/src/tsommerfeld/qchem/exe/qcprog.exe .input1.055556.3699.qcin.1 /src/jdavis/qchem.scratch/qchem3699/

                  Welcome to Q-Chem
     A Quantum Leap Into The Future Of Chemistry


 Q-Chem 5.4 (devel), Q-Chem, Inc., Pleasanton, CA (2021)

 E. Epifanovsky,  A. T. B. Gilbert,  Xintian Feng,  Joonho Lee,  Yuezhi Mao,  
 N. Mardirossian,  P. Pokhilko,  A. White,  M. Wormit,  M. P. Coons,  
 A. L. Dempwolff,  Zhengting Gan,  D. Hait,  P. R. Horn,  L. D. Jacobson,  
 I. Kaliman,  J. Kussmann,  A. W. Lange,  Ka Un Lao,  D. S. Levine,  Jie Liu,  
 S. C. McKenzie,  A. F. Morrison,  K. Nanda,  F. Plasser,  D. R. Rehn,  
 M. L. Vidal,  Zhi-Qiang You,  Ying Zhu,  B. Alam,  B. Albrecht,  
 A. Aldossary,  E. Alguire,  J. H. Andersen,  D. Barton,  K. Begam,  A. Behn,  
 Y. A. Bernard,  E. J. Berquist,  H. Burton,  A. Carreras,  K. Carter-Fenk,  
 R. Chakraborty,  A. D. Chien,  K. D. Closser,  V. Cofer-Shabica,  
 S. Dasgupta,  Jia Deng,  M. de Wergifosse,  M. Diedenhofen,  Hainam Do,  
 S. Ehlert,  Po-Tung Fang,  S. Fatehi,  Qingguo Feng,  T. Friedhoff,  
 J. Gayvert,  Qinghui Ge,  G. Gidofalvi,  M. Goldey,  J. Gomes,  
 C. Gonzalez-Espinoza,  S. Gulania,  A. Gunina,  M. W. D. Hanson-Heine,  
 P. H. P. Harbach,  A. W. Hauser,  M. F. Herbst,  M. Hernandez Vera,  
 M. Hodecker,  Z. C. Holden,  S. Houck,  Xunkun Huang,  Kerwin Hui,  
 B. C. Huynh,  M. Ivanov,  Hyunjun Ji,  Hanjie Jiang,  B. Kaduk,  S. Kaehler,  
 K. Khistyaev,  Jaehoon Kim,  P. Klunzinger,  Z. Koczor-Benda,  
 Joong Hoon Koh,  D. Kosenkov,  L. Koulias,  T. Kowalczyk,  C. M. Krauter,  
 K. Kue,  A. Kunitsa,  T. Kus,  A. Landau,  K. V. Lawler,  D. Lefrancois,  
 S. Lehtola,  Rain Li,  Yi-Pei Li,  Jiashu Liang,  M. Liebenthal,  
 Hung-Hsuan Lin,  You-Sheng Lin,  Fenglai Liu,  Kuan-Yu Liu,  
 M. Loipersberger,  A. Luenser,  A. Manjanath,  P. Manohar,  E. Mansoor,  
 S. F. Manzer,  Shan-Ping Mao,  A. V. Marenich,  T. Markovich,  S. Mason,  
 S. A. Maurer,  P. F. McLaughlin,  M. F. S. J. Menger,  J.-M. Mewes,  
 S. A. Mewes,  P. Morgante,  J. W. Mullinax,  K. J. Oosterbaan,  G. Paran,  
 Alexander C. Paul,  Suranjan K. Paul,  F. Pavosevic,  Zheng Pei,  S. Prager,  
 E. I. Proynov,  E. Ramos,  B. Rana,  A. E. Rask,  A. Rettig,  R. M. Richard,  
 F. Rob,  E. Rossomme,  T. Scheele,  M. Scheurer,  M. Schneider,  
 N. Sergueev,  S. M. Sharada,  W. Skomorowski,  D. W. Small,  C. J. Stein,  
 Yu-Chuan Su,  E. J. Sundstrom,  Zhen Tao,  J. Thirman,  T. Tsuchimochi,  
 N. M. Tubman,  S. P. Veccham,  O. Vydrov,  J. Wenzel,  J. Witte,  A. Yamada,  
 Kun Yao,  S. Yeganeh,  S. R. Yost,  A. Zech,  Igor Ying Zhang,  Xing Zhang,  
 Yu Zhang,  D. Zuev,  A. Aspuru-Guzik,  A. T. Bell,  N. A. Besley,  
 K. B. Bravaya,  B. R. Brooks,  D. Casanova,  Jeng-Da Chai,  S. Coriani,  
 C. J. Cramer,  A. E. DePrince, III,  R. A. DiStasio Jr.,  A. Dreuw,  
 B. D. Dunietz,  T. R. Furlani,  W. A. Goddard III,  S. Grimme,  
 S. Hammes-Schiffer,  T. Head-Gordon,  W. J. Hehre,  Chao-Ping Hsu,  
 T.-C. Jagau,  Yousung Jung,  A. Klamt,  Jing Kong,  D. S. Lambrecht,  
 WanZhen Liang,  N. J. Mayhall,  C. W. McCurdy,  J. B. Neaton,  
 C. Ochsenfeld,  J. A. Parkhill,  R. Peverati,  V. A. Rassolov,  Yihan Shao,  
 L. V. Slipchenko,  T. Stauch,  R. P. Steele,  J. E. Subotnik,  
 A. J. W. Thom,  A. Tkatchenko,  D. G. Truhlar,  T. Van Voorhis,  
 T. A. Wesolowski,  K. B. Whaley,  H. L. Woodcock III,  P. M. Zimmerman,  
 S. Faraji,  P. M. W. Gill,  M. Head-Gordon,  J. M. Herbert,  A. I. Krylov

 Additional authors for Version 5.4.1: 
 S. Kotaru,  Shaozhi Li,  Xiangyuan Li,  F. Matz,  A. Molle,  Haisheng Ren,  
 Yingli Su,  Hung-Yi Tsai,  C. Utku,  Fang Wang

 Contributors to earlier versions of Q-Chem not listed above: 
 R. D. Adamson,  B. Austin,  R. Baer,  J. Baker,  G. J. O. Beran,  
 K. Brandhorst,  S. T. Brown,  E. F. C. Byrd,  A. K. Chakraborty,  
 G. K. L. Chan,  Chun-Min Chang,  Yunqing Chen,  C.-L. Cheng,  
 Siu Hung Chien,  D. M. Chipman,  D. L. Crittenden,  H. Dachsel,  
 R. J. Doerksen,  A. D. Dutoi,  R. G. Edgar,  J. Fosso-Tande,  
 L. Fusti-Molnar,  D. Ghosh,  A. Ghysels,  A. Golubeva-Zadorozhnaya,  
 J. Gonthier,  M. S. Gordon,  S. R. Gwaltney,  G. Hawkins,  J. E. Herr,  
 A. Heyden,  S. Hirata,  E. G. Hohenstein,  G. Kedziora,  F. J. Keil,  
 C. Kelley,  Jihan Kim,  R. A. King,  R. Z. Khaliullin,  P. P. Korambath,  
 W. Kurlancheek,  A. Laurent,  A. M. Lee,  M. S. Lee,  S. V. Levchenko,  
 Ching Yeh Lin,  D. Liotard,  E. Livshits,  R. C. Lochan,  I. Lotan,  
 L. A. Martinez-Martinez,  P. E. Maslen,  N. Nair,  D. P. O'Neill,  
 D. Neuhauser,  E. Neuscamman,  C. M. Oana,  R. Olivares-Amaya,  R. Olson,  
 T. M. Perrine,  B. Peters,  P. A. Pieniazek,  A. Prociuk,  Y. M. Rhee,  
 J. Ritchie,  M. A. Rohrdanz,  E. Rosta,  N. J. Russ,  H. F. Schaefer III,  
 M. W. Schmidt,  N. E. Schultz,  S. Sharma,  N. Shenvi,  C. D. Sherrill,  
 A. C. Simmonett,  A. Sodt,  T. Stein,  D. Stuck,  K. S. Thanthiriwatte,  
 V. Vanovschi,  L. Vogt,  Tao Wang,  A. Warshel,  M. A. Watson,  
 C. F. Williams,  Q. Wu,  X. Xu,  Jun Yang,  W. Zhang,  Yan Zhao

 Please cite Q-Chem as follows:
 Y. Shao et al., Mol. Phys. 113, 184-215 (2015)
 DOI: 10.1080/00268976.2014.952696

 Q-Chem 5.4.1 for Intel X86 EM64T Linux

 Parts of Q-Chem use Armadillo 9.900.5 (Nocturnal Misbehaviour).
 http://arma.sourceforge.net/

 Q-Chem begins on Sun Mar 27 18:58:08 2022  

 Host: node01
0

     Scratch files written to /src/jdavis/qchem.scratch/qchem3699//
 Processing $rem in /src/tsommerfeld/qchem/config/preferences:
 Processing $rem in /home/jdavis/.qchemrc:

 Checking the input file for inconsistencies... 	...done.

--------------------------------------------------------------
User input:
--------------------------------------------------------------
$molecule
-1 1
C        -0.6645000000    0.0000000000   -0.1764707059
C         0.6645000000    0.0000000000   -0.1764707059
H        -1.1590800000    0.0000000000    0.7858782941
H         1.1590800000    0.0000000000    0.7858782941
H        -1.1590800000    0.0000000000   -1.1388187059
H         1.1590800000    0.0000000000   -1.1388187059
H         0.0000000000    0.0000000000  -10.1764707059
$end

$rem
   METHOD adc(2)
   BASIS gen
   PURECART 11
   EE_STATES [0,10,0,0]
   scf_convergence 8
   ADC_DAVIDSON_MAXITER 120
   ADC_DAVIDSON_MAXSUBSPACE 200
   adc_nguess_singles 100
   THRESH 14
   S2THRESH 14
   adc_davidson_conv 5
   adc_davidson_thresh 14
   THREADS 10
   MEM_TOTAL 95000
   STATE_ANALYSIS TRUE
$end
$basis
C 1
S   9   1.00
      6.665000D+03           6.920000D-04
      1.000000D+03           5.329000D-03
      2.280000D+02           2.707700D-02
      6.471000D+01           1.017180D-01
      2.106000D+01           2.747400D-01
      7.495000D+00           4.485640D-01
      2.797000D+00           2.850740D-01
      5.215000D-01           1.520400D-02
      1.596000D-01          -3.191000D-03
S   9   1.00
      6.665000D+03          -1.460000D-04
      1.000000D+03          -1.154000D-03
      2.280000D+02          -5.725000D-03
      6.471000D+01          -2.331200D-02
      2.106000D+01          -6.395500D-02
      7.495000D+00          -1.499810D-01
      2.797000D+00          -1.272620D-01
      5.215000D-01           5.445290D-01
      1.596000D-01           5.804960D-01
S   1   1.00
      1.596000D-01           1.000000D+00
S   1   1.00
      0.0469000              1.0000000
P   4   1.00
      9.439000D+00           3.810900D-02
      2.002000D+00           2.094800D-01
      5.456000D-01           5.085570D-01
      1.517000D-01           4.688420D-01
P   1   1.00
      1.517000D-01           1.000000D+00
P   1   1.00
      0.0640511      1.0000000
P   1   1.00
      0.0320256      1.0000000
D   1   1.00
      5.500000D-01           1.0000000
****
C 2
S   9   1.00
      6.665000D+03           6.920000D-04
      1.000000D+03           5.329000D-03
      2.280000D+02           2.707700D-02
      6.471000D+01           1.017180D-01
      2.106000D+01           2.747400D-01
      7.495000D+00           4.485640D-01
      2.797000D+00           2.850740D-01
      5.215000D-01           1.520400D-02
      1.596000D-01          -3.191000D-03
S   9   1.00
      6.665000D+03          -1.460000D-04
      1.000000D+03          -1.154000D-03
      2.280000D+02          -5.725000D-03
      6.471000D+01          -2.331200D-02
      2.106000D+01          -6.395500D-02
      7.495000D+00          -1.499810D-01
      2.797000D+00          -1.272620D-01
      5.215000D-01           5.445290D-01
      1.596000D-01           5.804960D-01
S   1   1.00
      1.596000D-01           1.000000D+00
S   1   1.00
      0.0469000              1.0000000
P   4   1.00
      9.439000D+00           3.810900D-02
      2.002000D+00           2.094800D-01
      5.456000D-01           5.085570D-01
      1.517000D-01           4.688420D-01
P   1   1.00
      1.517000D-01           1.000000D+00
P   1   1.00
      0.0640511      1.0000000
P   1   1.00
      0.0320256      1.0000000
D   1   1.00
      5.500000D-01           1.0000000
****
H 3
cc-pVDZ
****
H 4
cc-pVDZ
****
H 5
cc-pVDZ
****
H 6
cc-pVDZ
****
H 7
aug-cc-pVDZ
****
$end
--------------------------------------------------------------
 ----------------------------------------------------------------
             Standard Nuclear Orientation (Angstroms)
    I     Atom           X                Y                Z
 ----------------------------------------------------------------
    1      C      -0.6645000000     0.0000000000    -0.5882351765
    2      C       0.6645000000    -0.0000000000    -0.5882351765
    3      H      -1.1590800000     0.0000000000    -1.5505841765
    4      H       1.1590800000    -0.0000000000    -1.5505841765
    5      H      -1.1590800000     0.0000000000     0.3741128235
    6      H       1.1590800000    -0.0000000000     0.3741128235
    7      H       0.0000000000     0.0000000000     9.4117648235
 ----------------------------------------------------------------
 Molecular Point Group                 C2v   NOp =  4
 Largest Abelian Subgroup              C2v   NOp =  4
 Nuclear Repulsion Energy =          34.43499495 hartrees
 There are        9 alpha and        9 beta electrons
 Requested basis set is non-standard
 There are 33 shells and 67 basis functions
 Total memory of 95000 MB is distributed as follows: 
   MEM_STATIC is set to 192 MB
   QALLOC/CCMAN JOB total memory use is  94808 MB
 Warning: actual memory use might exceed 95000 MB

 Total QAlloc Memory Limit  95000 MB
 Mega-Array Size       188 MB
 MEM_STATIC part       192 MB

                       Distance Matrix (Angstroms)
             C (  1)   C (  2)   H (  3)   H (  4)   H (  5)   H (  6)
   C (  2)  1.329000
   H (  3)  1.082000  2.061931
   H (  4)  2.061931  1.082000  2.318160
   H (  5)  1.082000  2.061931  1.924697  3.013026
   H (  6)  2.061931  1.082000  3.013026  1.924697  2.318160
   H (  7) 10.022054 10.022054 11.023455 11.023455  9.111675  9.111675

 
 A cutoff of  1.0D-14 yielded    505 shell pairs
 There are      2121 function pairs (      2258 Cartesian)
 Smallest overlap matrix eigenvalue = 2.44E-04

 Scale SEOQF with 1.000000e-01/1.000000e-01/1.000000e-02

 Standard Electronic Orientation quadrupole field applied
 Nucleus-field energy     =    -0.0000000007 hartrees
 ================ Generating on-the-fly SAD Guess ================
Attempting to make child job directory: /src/jdavis/qchem.scratch/qchem3699//Frg1/
Attempting to make child job directory: /src/jdavis/qchem.scratch/qchem3699//Frg2/
Creating input file /src/jdavis/qchem.scratch/qchem3699/Frg1.input
using default PutDataFrgm: nothing
calling putenv with: QCSCRATCH=/src/jdavis/qchem.scratch/qchem3699/ 
Spawning Job For Fragment 0
Done Job For Fragment 0
calling putenv with: QCSCRATCH=/src/jdavis/qchem.scratch 
calling putenv with: QCTHREADS=1 
Creating input file /src/jdavis/qchem.scratch/qchem3699/Frg2.input
using default PutDataFrgm: nothing
calling putenv with: QCSCRATCH=/src/jdavis/qchem.scratch/qchem3699/ 
Spawning Job For Fragment 1
Done Job For Fragment 1
calling putenv with: QCSCRATCH=/src/jdavis/qchem.scratch 
calling putenv with: QCTHREADS=1 
 Time for running child jobs:  CPU 1.77 s  wall 52.68 s
 ============= Method Specific SAD Guess Constructed =============
 Guess from on-the-fly superposition of atomic densities
 Warning: Energy on first SCF cycle will be non-variational
 A restricted Hartree-Fock SCF calculation will be
 performed using Pulay DIIS extrapolation
 SCF converges when DIIS error is below 1.0E-08
 using 10 threads for integral computing
 -------------------------------------------------------
 OpenMP Integral computing Module                
 Release: version 1.0, May 2013, Q-Chem Inc. Pittsburgh 
 -------------------------------------------------------
 ---------------------------------------
  Cycle       Energy         DIIS Error
 ---------------------------------------
    1     -78.8003574194      7.36E-02
    2     -78.4467271488      6.48E-03
    3     -78.4847108141      1.48E-03
    4     -78.4866428743      4.76E-04
    5     -78.4868157215      7.28E-05
    6     -78.4868235306      1.22E-05
    7     -78.4868238507      3.40E-06
    8     -78.4868238754      3.07E-07
    9     -78.4868238756      6.97E-08
   10     -78.4868238757      1.61E-08
   11     -78.4868238757      4.99E-09 Convergence criterion met
 ---------------------------------------
 SCF time:  CPU 10.07 s  wall 1.01 s
 SCF   energy in the final basis set = -78.48682388
 Total energy in the final basis set = -78.48682388
================================================================================
|                                                                              |
|                                 A D C  M A N                                 |
|                                                                              |
 ------------------------------------------------------------------------------ 
|                                                                              |
| Components:                                                                  |
|                                                                              |
| - libvmm - 1.3-trunk                                                         |
|   Authors:                                                                   |
|   Evgeny Epifanovsky, Ilya Kaliman                                           |
|                                                                              |
| - libtensor - 2.5-trunk                                                      |
|   Authors:                                                                   |
|   Evgeny Epifanovsky, Michael Wormit, Dmitry Zuev, Sam Manzer,               |
|   Ilya Kaliman                                                               |
|                                                                              |
| - libwfa - 1.1-trunk                                                         |
|   Authors:                                                                   |
|   Felix Plasser, Stefanie Mewes (Baeppler), Benjamin Thomitzni,              |
|   Michael Wormit, Feng Chen, Anna I. Krylov, Pavel Pokhilko                  |
|                                                                              |
| - libadc - 1.1-trunk                                                         |
|   Authors:                                                                   |
|   Michael Wormit, Adrian L. Dempwolff, Philipp H. P. Harbach,                |
|   Caroline Krauter, Dirk Rehn, Matthias Schneider, Jan Wenzel                |
|                                                                              |
| - adcman - 2.6-trunk                                                         |
|   Authors:                                                                   |
|   Michael Wormit, Adrian L. Dempwolff, Philipp H. P. Harbach,                |
|   Caroline Krauter, Daniel Lefrancois, Jan-Michael Mewes, Dirk Rehn,         |
|   Matthias Schneider, Jan Wenzel, Andreas Dreuw                              |
|                                                                              |
| Authors of earlier versions of ADCMAN:                                       |
| Andreas Dreuw, Jan Hendrik Starcke, Dirk Rehn, Michael Wormit                |
|                                                                              |
================================================================================

 
 Alpha MOs, Restricted
 -- Occupied --                  
-11.184 -11.182  -0.989  -0.729  -0.607  -0.514  -0.462  -0.324
  1 A1    1 B1    2 A1    2 B1    3 A1    4 A1    3 B1    1 B2                 
  0.022
  5 A1                                                                         
 -- Virtual --                   
  0.107   0.121   0.126   0.130   0.135   0.145   0.176   0.213
  4 B1    6 A1    2 B2    7 A1    1 A2    5 B1    8 A1    2 A2                 
  0.247   0.312   0.322   0.337   0.339   0.341   0.345   0.393
  6 B1    9 A1   10 A1    7 B1    8 B1   11 A1    3 B2   12 A1                 
  0.416   0.424   0.601   0.653   0.861   0.913   0.942   0.983
  9 B1    3 A2   10 B1   11 B1   13 A1   14 A1   15 A1   12 B1                 
  0.997   1.058   1.073   1.091   1.108   1.117   1.138   1.167
 16 A1   17 A1    4 B2   18 A1   13 B1    4 A2   14 B1    5 B2                 
  1.320   1.337   1.339   1.435   1.669   1.679   1.771   1.919
 15 B1    5 A2    6 B2   16 B1   19 A1   17 B1   20 A1    6 A2                 
  1.967   1.967   1.967   1.995   1.998   2.070   2.095   2.134
 21 A1   18 B1    7 B2    8 B2   19 B1    9 B2   22 A1   23 A1                 
  2.230   2.376   2.465   2.513   2.628   2.636   2.862   2.871
  7 A2   20 B1    8 A2   24 A1   21 B1   22 B1   25 A1   26 A1                 
  3.297   3.392
 23 B1   24 B1                                                                 
 
 Beta MOs, Restricted
 -- Occupied --                  
-11.184 -11.182  -0.989  -0.729  -0.607  -0.514  -0.462  -0.324
  1 A1    1 B1    2 A1    2 B1    3 A1    4 A1    3 B1    1 B2                 
  0.022
  5 A1                                                                         
 -- Virtual --                   
  0.107   0.121   0.126   0.130   0.135   0.145   0.176   0.213
  4 B1    6 A1    2 B2    7 A1    1 A2    5 B1    8 A1    2 A2                 
  0.247   0.312   0.322   0.337   0.339   0.341   0.345   0.393
  6 B1    9 A1   10 A1    7 B1    8 B1   11 A1    3 B2   12 A1                 
  0.416   0.424   0.601   0.653   0.861   0.913   0.942   0.983
  9 B1    3 A2   10 B1   11 B1   13 A1   14 A1   15 A1   12 B1                 
  0.997   1.058   1.073   1.091   1.108   1.117   1.138   1.167
 16 A1   17 A1    4 B2   18 A1   13 B1    4 A2   14 B1    5 B2                 
  1.320   1.337   1.339   1.435   1.669   1.679   1.771   1.919
 15 B1    5 A2    6 B2   16 B1   19 A1   17 B1   20 A1    6 A2                 
  1.967   1.967   1.967   1.995   1.998   2.070   2.095   2.134
 21 A1   18 B1    7 B2    8 B2   19 B1    9 B2   22 A1   23 A1                 
  2.230   2.376   2.465   2.513   2.628   2.636   2.862   2.871
  7 A2   20 B1    8 A2   24 A1   21 B1   22 B1   25 A1   26 A1                 
  3.297   3.392
 23 B1   24 B1                                                                 

--------------------------------------------------------------------------------
                                   HF Summary                                   
--------------------------------------------------------------------------------
  Energy:                                                  -78.4868238757 a.u.
  Dip. moment [a.u.]:                  [   0.000000,    0.000000,  -17.725540]
  Total dipole [Debye]:                                              45.053836
  <r^2> [a.u.]:                        [  50.671571,   14.934479,  677.590151]
  Total <r^2> [a.u.]:                                               743.196201
--------------------------------------------------------------------------------

--------------------------------------------------------------------------------
                                 MP(2) Summary                                  
--------------------------------------------------------------------------------
  MP energy contribution:                                   -0.2985319717 a.u.
  Total energy:                                            -78.7853558473 a.u.
  Dip. moment [a.u.]:                  [  -0.000000,    0.000000,  -17.724779]
  Total dipole [Debye]:                                              45.051904
  <r^2> [a.u.]:                        [  50.737580,   14.743044,  677.578663]
  Total <r^2> [a.u.]:                                               743.059286

  Density matrix analysis:
  ------------------------
  NOs
    Occupation of frontier NOs:
       0.0447   1.9371
    Number of electrons: 18.000000
    Number of unpaired electrons: n_u =  0.43206, n_u,nl =  0.04675
    NO participation ratio (PR_NO): 15.325945
  
  
  Mulliken Population Analysis
  Atom      Charge (e)              h+              e-           Del q
  --------------------------------------------------------------------
   1 C       -0.186081        0.087781       -0.102561       -0.014780
   2 C       -0.186081        0.087781       -0.102561       -0.014780
   3 H        0.082278        0.017976       -0.010571        0.007405
   4 H        0.082278        0.017976       -0.010571        0.007405
   5 H        0.103764        0.017656       -0.010284        0.007372
   6 H        0.103764        0.017656       -0.010284        0.007372
   7 H       -0.999922        0.021959       -0.021954        0.000005
  --------------------------------------------------------------------
  Sum:       -1.000000        0.268785       -0.268785        0.000000
  
  Multipole moment analysis of the density matrix
    Molecular charge:                      -1.000000
    Number of electrons:                   18.000000
      Center of electronic charge [Ang]: [  0.000000,  -0.000000,   0.521086]
    Total nuclear charge:                  17.000000
      Center of nuclear charge [Ang]:    [ -0.000000,   0.000000,  -0.000000]
    Dipole moment [D]:                     45.051890
      Cartesian components [D]:          [ -0.000000,   0.000000, -45.051890]
    RMS size of the density [Ang]:         3.359813
      Cartesian components [Ang]:        [  0.888443,   0.478915,   3.204630]
  
  Exciton analysis of the difference density matrix
    <r_h> [Ang]:                  [  0.000000,  -0.000000,   0.226184]
    <r_e> [Ang]:                  [  0.000000,  -0.000000,   0.224687]
    |<r_e - r_h>| [Ang]:            0.001497
    Hole size [Ang]:                3.087060
      Cartesian components [Ang]: [  0.955818,   0.754675,   2.836691]
    Electron size [Ang]:            3.063980
      Cartesian components [Ang]: [  0.991140,   0.608352,   2.834700]
--------------------------------------------------------------------------------
Less singles guess vectors found than requested: 85 (found), 100 (requested).
Adjusting number of doubles guess vectors to 15.
  Starting Davidson for singlet states of irrep A2 ... 
--------------------------------------------------------------------------------
   It NVec Conv  Avg. Norm  Max. Norm  Conv. states           Remark
--------------------------------------------------------------------------------
       100    1  3.873e-02  3.460e-01  0.0820 n n n n n n n n Guess.
    1  110    3  1.576e-03  1.234e-02  0.0510 n n y n y y n n 
    2  120    6  4.409e-03  4.409e-02  0.0510 n n y y y y y n 
    3  130    9  4.343e-04  4.343e-03  0.0510 y y y y y y y n 
    4  140    9  1.403e-05  1.403e-04  0.0510 y y y y y y y n 
    5  150   10  7.124e-07  7.124e-06  0.0510 y y y y y y y y Converged.
--------------------------------------------------------------------------------
  Davidson Summary: 
 ------------------------------------------------------------
  State  0: excitation energy =   0.0510 a.u.   (converged)
  State  1: excitation energy =   0.1040 a.u.   (converged)
  State  2: excitation energy =   0.1895 a.u.   (converged)
  State  3: excitation energy =   0.2127 a.u.   (converged)
  State  4: excitation energy =   0.2224 a.u.   (converged)
  State  5: excitation energy =   0.2281 a.u.   (converged)
  State  6: excitation energy =   0.2675 a.u.   (converged)
  State  7: excitation energy =   0.2902 a.u.   (converged)
  State  8: excitation energy =   0.2908 a.u.   (converged)
  State  9: excitation energy =   0.3005 a.u.   (converged)
 ------------------------------------------------------------


--------------------------------------------------------------------------------
                   State-averaged natural transition orbitals
--------------------------------------------------------------------------------
--------------------------------------------------------------------------------

--------------------------------------------------------------------------------
                             Excited State Summary
--------------------------------------------------------------------------------
--------------------------------------------------------------------------------

  Excited state 1 (singlet, A2)                                    [converged]
  ----------------------------------------------------------------------------
  Term symbol:  1 (1) A2                                    R^2 =  1.05590e-09

  Total energy:                                            -78.7343379614 a.u.
  Excitation energy:                                               1.388267 eV

  Osc. strength:                                                      0.000000
  Trans. dip. moment [a.u.]:           [   0.000000,    0.000000,   -0.000000]
  <i|r^2|0> [a.u.]:                    [   0.000000,    0.000000,    0.000000]

  Dip. moment [a.u.]:                  [   0.000000,    0.000000,    1.134114]
  Total dipole [Debye]:                                               2.882630
  <r^2> [a.u.]:                        [  68.822990,   31.677765,  367.456552]
  Total <r^2> [a.u.]:                                               467.957307

  V1^2 = 0.9662, V2^2 = 0.0338

  Important amplitudes:
      occ i      occ j       vir a       vir b          v   
    ---------------------------------------------------------
     5 (A1) A               1 (A2) A                 -0.6665
     5 (A1) A               2 (A2) A                 -0.1922
    ---------------------------------------------------------

  Density matrix analysis:
  ------------------------
  NOs
    Occupation of frontier NOs:
       0.9922   1.0015
    Number of electrons: 18.000000
    Number of unpaired electrons: n_u =  2.41268, n_u,nl =  2.04535
    NO participation ratio (PR_NO):  2.920348
  
  
  Mulliken Population Analysis
  Atom      Charge (e)              h+              e-           Del q
  --------------------------------------------------------------------
   1 C       -0.630228        0.082158       -0.526306       -0.444148
   2 C       -0.630228        0.082158       -0.526306       -0.444148
   3 H        0.060768        0.003328       -0.024837       -0.021509
   4 H        0.060768        0.003328       -0.024837       -0.021509
   5 H        0.069389        0.002667       -0.037042       -0.034375
   6 H        0.069389        0.002667       -0.037042       -0.034375
   7 H        0.000142        1.019802       -0.019738        1.000064
  --------------------------------------------------------------------
  Sum:       -1.000000        1.196108       -1.196108        0.000000
  
  Multipole moment analysis of the density matrix
    Molecular charge:                      -1.000000
    Number of electrons:                   18.000000
      Center of electronic charge [Ang]: [ -0.000000,  -0.000000,  -0.033342]
    Total nuclear charge:                  17.000000
      Center of nuclear charge [Ang]:    [ -0.000000,   0.000000,  -0.000000]
    Dipole moment [D]:                     2.882629
      Cartesian components [D]:          [  0.000000,   0.000000,   2.882629]
    RMS size of the density [Ang]:         2.697956
      Cartesian components [Ang]:        [  1.034741,   0.702008,   2.390703]
  
  Exciton analysis of the difference density matrix
    <r_h> [Ang]:                  [  0.000000,   0.000000,   7.940978]
    <r_e> [Ang]:                  [ -0.000000,  -0.000000,  -0.402497]
    |<r_e - r_h>| [Ang]:            8.343475
    Hole size [Ang]:                3.756658
      Cartesian components [Ang]: [  0.763968,   0.715474,   3.607898]
    Electron size [Ang]:            3.550172
      Cartesian components [Ang]: [  2.194935,   2.115798,   1.819170]

  Transition density matrix analysis:
  -----------------------------------
  
  CT numbers (Mulliken)
    omega =     0.9541
    <Phe> =     0.0000
  
  Exciton analysis of the transition density matrix
    Trans. dipole moment [D]:             0.000000
      Cartesian components [D]:         [  0.000000,   0.000000,  -0.000000]
    <r_h> [Ang]:                        [  0.000000,   0.000000,   9.411367]
    <r_e> [Ang]:                        [ -0.000000,  -0.000000,  -0.588166]
    |<r_e - r_h>| [Ang]:                  9.999533
    Hole size [Ang]:                      1.111827
      Cartesian components [Ang]:       [  0.640938,   0.640921,   0.643876]
    Electron size [Ang]:                  3.524955
      Cartesian components [Ang]:       [  2.340193,   2.281465,   1.320501]
    RMS electron-hole separation [Ang]:  10.660772
      Cartesian components [Ang]:       [  2.426367,   2.369776,  10.106877]
    Covariance(r_h, r_e) [Ang^2]:         0.000035
    Correlation coefficient:              0.000009
    Center-of-mass size [Ang]:            1.848076
      Cartesian components [Ang]:       [  1.213194,   1.184893,   0.734558]

  Decomposition into state-averaged NTOs
    H- 0 -> L+ 0:  0.5579 ( 62.3%)
    H- 0 -> L+ 1: -0.4072 ( 33.2%)
                   omega =  95.4%
  ----------------------------------------------------------------------------


  Excited state 2 (singlet, A2)                                    [converged]
  ----------------------------------------------------------------------------
  Term symbol:  2 (1) A2                                    R^2 =  2.95592e-09

  Total energy:                                            -78.6813886242 a.u.
  Excitation energy:                                               2.829092 eV

  Osc. strength:                                                      0.000000
  Trans. dip. moment [a.u.]:           [   0.000000,    0.000000,    0.000000]
  <i|r^2|0> [a.u.]:                    [  -0.000000,   -0.000000,   -0.000000]

  Dip. moment [a.u.]:                  [   0.000000,   -0.000000,    1.136063]
  Total dipole [Debye]:                                               2.887586
  <r^2> [a.u.]:                        [  68.747834,   31.432948,  367.714649]
  Total <r^2> [a.u.]:                                               467.895431

  V1^2 = 0.9535, V2^2 = 0.0465

  Important amplitudes:
      occ i      occ j       vir a       vir b          v   
    ---------------------------------------------------------
     5 (A1) A               2 (A2) A                  0.6518
     5 (A1) A               1 (A2) A                 -0.2098
    ---------------------------------------------------------

  Density matrix analysis:
  ------------------------
  NOs
    Occupation of frontier NOs:
       0.9886   1.0012
    Number of electrons: 18.000000
    Number of unpaired electrons: n_u =  2.42006, n_u,nl =  2.04605
    NO participation ratio (PR_NO):  2.947599
  
  
  Mulliken Population Analysis
  Atom      Charge (e)              h+              e-           Del q
  --------------------------------------------------------------------
   1 C       -0.586880        0.125993       -0.526793       -0.400800
   2 C       -0.586880        0.125993       -0.526793       -0.400800
   3 H        0.038596        0.003940       -0.047622       -0.043682
   4 H        0.038596        0.003940       -0.047622       -0.043682
   5 H        0.048223        0.003180       -0.058721       -0.055541
   6 H        0.048223        0.003180       -0.058721       -0.055541
   7 H        0.000122        1.018710       -0.018665        1.000045
  --------------------------------------------------------------------
  Sum:       -1.000000        1.284935       -1.284935        0.000000
  
  Multipole moment analysis of the density matrix
    Molecular charge:                      -1.000000
    Number of electrons:                   18.000000
      Center of electronic charge [Ang]: [ -0.000000,   0.000000,  -0.033399]
    Total nuclear charge:                  17.000000
      Center of nuclear charge [Ang]:    [ -0.000000,   0.000000,  -0.000000]
    Dipole moment [D]:                     2.887585
      Cartesian components [D]:          [  0.000000,  -0.000000,   2.887585]
    RMS size of the density [Ang]:         2.697777
      Cartesian components [Ang]:        [  1.034176,   0.699290,   2.391542]
  
  Exciton analysis of the difference density matrix
    <r_h> [Ang]:                  [  0.000000,   0.000000,   7.342490]
    <r_e> [Ang]:                  [ -0.000000,   0.000000,  -0.425006]
    |<r_e - r_h>| [Ang]:            7.767496
    Hole size [Ang]:                4.231859
      Cartesian components [Ang]: [  0.764649,   0.677323,   4.106723]
    Electron size [Ang]:            3.416598
      Cartesian components [Ang]: [  2.123605,   2.023865,   1.751403]

  Transition density matrix analysis:
  -----------------------------------
  
  CT numbers (Mulliken)
    omega =     0.9381
    <Phe> =     0.0000
  
  Exciton analysis of the transition density matrix
    Trans. dipole moment [D]:             0.000000
      Cartesian components [D]:         [  0.000000,   0.000000,   0.000000]
    <r_h> [Ang]:                        [  0.000000,   0.000000,   9.411367]
    <r_e> [Ang]:                        [ -0.000000,   0.000000,  -0.588128]
    |<r_e - r_h>| [Ang]:                  9.999495
    Hole size [Ang]:                      1.111737
      Cartesian components [Ang]:       [  0.640886,   0.640870,   0.643824]
    Electron size [Ang]:                  3.511077
      Cartesian components [Ang]:       [  2.327490,   2.274201,   1.318509]
    RMS electron-hole separation [Ang]:  10.656147
      Cartesian components [Ang]:       [  2.414106,   2.362770,  10.106576]
    Covariance(r_h, r_e) [Ang^2]:         0.000027
    Correlation coefficient:              0.000007
    Center-of-mass size [Ang]:            1.841445
      Cartesian components [Ang]:       [  1.207061,   1.181389,   0.733651]

  Decomposition into state-averaged NTOs
    H- 0 -> L+ 1:  0.5405 ( 58.4%)
    H- 0 -> L+ 0:  0.4207 ( 35.4%)
                   omega =  93.8%
  ----------------------------------------------------------------------------


  Excited state 3 (singlet, A2)                                    [converged]
  ----------------------------------------------------------------------------
  Term symbol:  3 (1) A2                                    R^2 =  9.31490e-13

  Total energy:                                            -78.5958197332 a.u.
  Excitation energy:                                               5.157540 eV

  Osc. strength:                                                      0.000000
  Trans. dip. moment [a.u.]:           [   0.000000,    0.000000,    0.000000]
  <i|r^2|0> [a.u.]:                    [   0.000000,    0.000000,   -0.000000]

  Dip. moment [a.u.]:                  [   0.000000,    0.000000,   21.547092]
  Total dipole [Debye]:                                              54.767255
  <r^2> [a.u.]:                        [ 107.192876,   59.452834,   73.130458]
  Total <r^2> [a.u.]:                                               239.776168

  V1^2 = 0.0000, V2^2 = 1.0000

  Important amplitudes:
      occ i      occ j       vir a       vir b          v   
    ---------------------------------------------------------
     5 (A1) A   5 (A1) B    4 (B1) A    2 (B2) B      0.3536
     5 (A1) A               1 (A2) A                 -0.0002
    ---------------------------------------------------------

  Density matrix analysis:
  ------------------------
  NOs
    Occupation of frontier NOs:
       1.0006   1.0012
    Number of electrons: 18.000000
    Number of unpaired electrons: n_u =  2.40556, n_u,nl =  2.04905
    NO participation ratio (PR_NO):  2.880175
  
  
  Mulliken Population Analysis
  Atom      Charge (e)              h+              e-           Del q
  --------------------------------------------------------------------
   1 C       -1.144618        0.000033       -0.958569       -0.958537
   2 C       -1.144618        0.000033       -0.958569       -0.958537
   3 H        0.042254        0.000002       -0.040025       -0.040023
   4 H        0.042254        0.000002       -0.040025       -0.040023
   5 H        0.102361        0.000002       -0.001405       -0.001403
   6 H        0.102361        0.000002       -0.001405       -0.001403
   7 H        1.000005        1.999927       -0.000000        1.999927
  --------------------------------------------------------------------
  Sum:       -1.000000        2.000000       -2.000000       -0.000000
  
  Multipole moment analysis of the density matrix
    Molecular charge:                      -1.000000
    Number of electrons:                   18.000000
      Center of electronic charge [Ang]: [ -0.000000,  -0.000000,  -0.633457]
    Total nuclear charge:                  17.000000
      Center of nuclear charge [Ang]:    [ -0.000000,   0.000000,  -0.000000]
    Dipole moment [D]:                     54.767238
      Cartesian components [D]:          [  0.000000,   0.000000,  54.767238]
    RMS size of the density [Ang]:         1.824545
      Cartesian components [Ang]:        [  1.291362,   0.961726,   0.858157]
  
  Exciton analysis of the difference density matrix
    <r_h> [Ang]:                  [ -0.000000,   0.000000,   9.411414]
    <r_e> [Ang]:                  [ -0.000000,  -0.000000,  -0.979476]
    |<r_e - r_h>| [Ang]:           10.390890
    Hole size [Ang]:                1.112909
      Cartesian components [Ang]: [  0.641653,   0.641639,   0.644319]
    Electron size [Ang]:            4.288017
      Cartesian components [Ang]: [  2.883794,   2.582965,   1.843668]

  Transition density matrix analysis:
  -----------------------------------
  
  CT numbers (Mulliken)
    omega =     0.0000
    <Phe> =     0.0000
  
  Exciton analysis of the transition density matrix
    ... vanishing.

  Decomposition into state-averaged NTOs
                   omega =   0.0%
  ----------------------------------------------------------------------------


  Excited state 4 (singlet, A2)                                    [converged]
  ----------------------------------------------------------------------------
  Term symbol:  4 (1) A2                                    R^2 =  7.86778e-11

  Total energy:                                            -78.5726305036 a.u.
  Excitation energy:                                               5.788551 eV

  Osc. strength:                                                      0.000000
  Trans. dip. moment [a.u.]:           [  -0.000000,   -0.000000,    0.000000]
  <i|r^2|0> [a.u.]:                    [  -0.000000,   -0.000000,   -0.000000]

  Dip. moment [a.u.]:                  [   0.000000,   -0.000000,   21.097697]
  Total dipole [Debye]:                                              53.625008
  <r^2> [a.u.]:                        [  88.437026,   48.885764,   88.408305]
  Total <r^2> [a.u.]:                                               225.731095

  V1^2 = 0.0003, V2^2 = 0.9997

  Important amplitudes:
      occ i      occ j       vir a       vir b          v   
    ---------------------------------------------------------
     5 (A1) A   5 (A1) B    6 (A1) A    1 (A2) B     -0.3535
     5 (A1) A               1 (A2) A                  0.0127
    ---------------------------------------------------------

  Density matrix analysis:
  ------------------------
  NOs
    Occupation of frontier NOs:
       1.0012   1.0049
    Number of electrons: 18.000000
    Number of unpaired electrons: n_u =  2.39722, n_u,nl =  2.04756
    NO participation ratio (PR_NO):  2.872815
  
  
  Mulliken Population Analysis
  Atom      Charge (e)              h+              e-           Del q
  --------------------------------------------------------------------
   1 C       -1.155511        0.000016       -0.969446       -0.969430
   2 C       -1.155511        0.000016       -0.969446       -0.969430
   3 H        0.068952       -0.000000       -0.013326       -0.013326
   4 H        0.068952       -0.000000       -0.013326       -0.013326
   5 H        0.086639        0.000000       -0.017125       -0.017125
   6 H        0.086639        0.000000       -0.017125       -0.017125
   7 H        0.999839        1.999766       -0.000004        1.999761
  --------------------------------------------------------------------
  Sum:       -1.000000        1.999797       -1.999797        0.000000
  
  Multipole moment analysis of the density matrix
    Molecular charge:                      -1.000000
    Number of electrons:                   18.000000
      Center of electronic charge [Ang]: [ -0.000000,   0.000000,  -0.620246]
    Total nuclear charge:                  17.000000
      Center of nuclear charge [Ang]:    [ -0.000000,   0.000000,  -0.000000]
    Dipole moment [D]:                     53.624992
      Cartesian components [D]:          [  0.000000,  -0.000000,  53.624992]
    RMS size of the density [Ang]:         1.768340
      Cartesian components [Ang]:        [  1.172957,   0.872080,   0.995327]
  
  Exciton analysis of the difference density matrix
    <r_h> [Ang]:                  [  0.000000,   0.000000,   9.411594]
    <r_e> [Ang]:                  [ -0.000000,   0.000000,  -0.861434]
    |<r_e - r_h>| [Ang]:           10.273027
    Hole size [Ang]:                1.111944
      Cartesian components [Ang]: [  0.641581,   0.641578,   0.642783]
    Electron size [Ang]:            4.078207
      Cartesian components [Ang]: [  2.385503,   2.278722,   2.397619]

  Transition density matrix analysis:
  -----------------------------------
  
  CT numbers (Mulliken)
    omega =     0.0003
    <Phe> =     0.0000
  
  Exciton analysis of the transition density matrix
    Trans. dipole moment [D]:             0.000000
      Cartesian components [D]:         [ -0.000000,  -0.000000,   0.000000]
    <r_h> [Ang]:                        [ -0.000000,   0.000000,   9.412362]
    <r_e> [Ang]:                        [ -0.000000,  -0.000000,  -0.588124]
    |<r_e - r_h>| [Ang]:                 10.000485
    Hole size [Ang]:                      1.073885
      Cartesian components [Ang]:       [  0.619947,   0.619946,   0.620131]
    Electron size [Ang]:                  4.413286
      Cartesian components [Ang]:       [  2.908861,   2.874179,   1.659733]
    RMS electron-hole separation [Ang]:  10.983623
      Cartesian components [Ang]:       [  2.974184,   2.940275,  10.156229]
    Covariance(r_h, r_e) [Ang^2]:         0.000028
    Correlation coefficient:              0.000006
    Center-of-mass size [Ang]:            2.271034
      Cartesian components [Ang]:       [  1.487098,   1.470141,   0.885900]

  Decomposition into state-averaged NTOs
                   omega =   0.0%
  ----------------------------------------------------------------------------


  Excited state 5 (singlet, A2)                                    [converged]
  ----------------------------------------------------------------------------
  Term symbol:  5 (1) A2                                    R^2 =  1.40283e-11

  Total energy:                                            -78.5629724847 a.u.
  Excitation energy:                                               6.051359 eV

  Osc. strength:                                                      0.000000
  Trans. dip. moment [a.u.]:           [  -0.000000,    0.000000,    0.000000]
  <i|r^2|0> [a.u.]:                    [  -0.000000,   -0.000000,   -0.000000]

  Dip. moment [a.u.]:                  [  -0.000000,   -0.000000,   19.610635]
  Total dipole [Debye]:                                              49.845273
  <r^2> [a.u.]:                        [ 123.263056,   46.712956,   62.030661]
  Total <r^2> [a.u.]:                                               232.006673

  V1^2 = 0.0000, V2^2 = 1.0000

  Important amplitudes:
      occ i      occ j       vir a       vir b          v   
    ---------------------------------------------------------
     5 (A1) A   5 (A1) B    7 (A1) A    1 (A2) B     -0.3536
     5 (A1) A               1 (A2) A                  0.0016
    ---------------------------------------------------------

  Density matrix analysis:
  ------------------------
  NOs
    Occupation of frontier NOs:
       1.0009   1.0049
    Number of electrons: 18.000000
    Number of unpaired electrons: n_u =  2.39775, n_u,nl =  2.04759
    NO participation ratio (PR_NO):  2.873257
  
  
  Mulliken Population Analysis
  Atom      Charge (e)              h+              e-           Del q
  --------------------------------------------------------------------
   1 C       -1.218551        0.000032       -1.032503       -1.032471
   2 C       -1.218551        0.000032       -1.032503       -1.032471
   3 H        0.095888        0.000002        0.013608        0.013610
   4 H        0.095888        0.000002        0.013608        0.013610
   5 H        0.122662        0.000002        0.018896        0.018898
   6 H        0.122662        0.000002        0.018896        0.018898
   7 H        1.000003        1.999925       -0.000000        1.999925
  --------------------------------------------------------------------
  Sum:       -1.000000        1.999997       -1.999997        0.000000
  
  Multipole moment analysis of the density matrix
    Molecular charge:                      -1.000000
    Number of electrons:                   18.000000
      Center of electronic charge [Ang]: [  0.000000,   0.000000,  -0.576528]
    Total nuclear charge:                  17.000000
      Center of nuclear charge [Ang]:    [ -0.000000,   0.000000,  -0.000000]
    Dipole moment [D]:                     49.845258
      Cartesian components [D]:          [ -0.000000,  -0.000000,  49.845258]
    RMS size of the density [Ang]:         1.810242
      Cartesian components [Ang]:        [  1.384782,   0.852479,   0.795384]
  
  Exciton analysis of the difference density matrix
    <r_h> [Ang]:                  [  0.000000,   0.000000,   9.411413]
    <r_e> [Ang]:                  [  0.000000,   0.000000,  -0.467127]
    |<r_e - r_h>| [Ang]:            9.878541
    Hole size [Ang]:                1.112929
      Cartesian components [Ang]: [  0.641664,   0.641637,   0.644345]
    Electron size [Ang]:            4.247393
      Cartesian components [Ang]: [  3.250592,   2.210871,   1.608119]

  Transition density matrix analysis:
  -----------------------------------
  
  CT numbers (Mulliken)
    omega =     0.0000
    <Phe> =     0.0000
  
  Exciton analysis of the transition density matrix
    Trans. dipole moment [D]:             0.000000
      Cartesian components [D]:         [ -0.000000,   0.000000,   0.000000]
    <r_h> [Ang]:                        [ -0.000000,   0.000000,   9.412413]
    <r_e> [Ang]:                        [ -0.000000,  -0.000000,  -0.588761]
    |<r_e - r_h>| [Ang]:                 10.001174
    Hole size [Ang]:                      1.069994
      Cartesian components [Ang]:       [  0.617714,   0.617712,   0.617858]
    Electron size [Ang]:                  4.387803
      Cartesian components [Ang]:       [  2.892480,   2.857231,   1.650032]
    RMS electron-hole separation [Ang]:  10.973656
      Cartesian components [Ang]:       [  2.957698,   2.923237,  10.155188]
    Covariance(r_h, r_e) [Ang^2]:         0.000029
    Correlation coefficient:              0.000006
    Center-of-mass size [Ang]:            2.258194
      Cartesian components [Ang]:       [  1.478855,   1.461622,   0.880959]

  Decomposition into state-averaged NTOs
                   omega =   0.0%
  ----------------------------------------------------------------------------


  Excited state 6 (singlet, A2)                                    [converged]
  ----------------------------------------------------------------------------
  Term symbol:  6 (1) A2                                    R^2 =  3.25841e-13

  Total energy:                                            -78.5572736674 a.u.
  Excitation energy:                                               6.206432 eV

  Osc. strength:                                                      0.000000
  Trans. dip. moment [a.u.]:           [  -0.000000,   -0.000000,   -0.000000]
  <i|r^2|0> [a.u.]:                    [   0.000000,   -0.000000,    0.000000]

  Dip. moment [a.u.]:                  [  -0.000000,   -0.000000,   18.725975]
  Total dipole [Debye]:                                              47.596691
  <r^2> [a.u.]:                        [  94.582896,   58.169187,   85.223542]
  Total <r^2> [a.u.]:                                               237.975625

  V1^2 = 0.0000, V2^2 = 1.0000

  Important amplitudes:
      occ i      occ j       vir a       vir b          v   
    ---------------------------------------------------------
     5 (A1) A   5 (A1) B    5 (B1) A    2 (B2) B      0.3536
     5 (A1) A               1 (A2) A                  0.0005
    ---------------------------------------------------------

  Density matrix analysis:
  ------------------------
  NOs
    Occupation of frontier NOs:
       1.0006   1.0012
    Number of electrons: 18.000000
    Number of unpaired electrons: n_u =  2.40549, n_u,nl =  2.04904
    NO participation ratio (PR_NO):  2.880095
  
  
  Mulliken Population Analysis
  Atom      Charge (e)              h+              e-           Del q
  --------------------------------------------------------------------
   1 C       -1.089258        0.000033       -0.903210       -0.903177
   2 C       -1.089258        0.000033       -0.903210       -0.903177
   3 H        0.051091        0.000002       -0.031189       -0.031187
   4 H        0.051091        0.000002       -0.031189       -0.031187
   5 H        0.038165        0.000002       -0.065602       -0.065600
   6 H        0.038165        0.000002       -0.065602       -0.065600
   7 H        1.000004        1.999927       -0.000000        1.999927
  --------------------------------------------------------------------
  Sum:       -1.000000        1.999999       -1.999999        0.000000
  
  Multipole moment analysis of the density matrix
    Molecular charge:                      -1.000000
    Number of electrons:                   18.000000
      Center of electronic charge [Ang]: [  0.000000,   0.000000,  -0.550520]
    Total nuclear charge:                  17.000000
      Center of nuclear charge [Ang]:    [ -0.000000,   0.000000,  -0.000000]
    Dipole moment [D]:                     47.596677
      Cartesian components [D]:          [ -0.000000,  -0.000000,  47.596677]
    RMS size of the density [Ang]:         1.843678
      Cartesian components [Ang]:        [  1.213029,   0.951287,   1.011317]
  
  Exciton analysis of the difference density matrix
    <r_h> [Ang]:                  [  0.000000,   0.000000,   9.411414]
    <r_e> [Ang]:                  [  0.000000,   0.000000,  -0.233043]
    |<r_e - r_h>| [Ang]:            9.644457
    Hole size [Ang]:                1.112909
      Cartesian components [Ang]: [  0.641653,   0.641639,   0.644319]
    Electron size [Ang]:            4.363488
      Cartesian components [Ang]: [  2.559432,   2.547937,   2.448951]

  Transition density matrix analysis:
  -----------------------------------
  
  CT numbers (Mulliken)
    omega =     0.0000
    <Phe> =     0.0000
  
  Exciton analysis of the transition density matrix
    ... vanishing.

  Decomposition into state-averaged NTOs
                   omega =   0.0%
  ----------------------------------------------------------------------------


  Excited state 7 (singlet, A2)                                    [converged]
  ----------------------------------------------------------------------------
  Term symbol:  7 (1) A2                                    R^2 =  4.68288e-11

  Total energy:                                            -78.5178688064 a.u.
  Excitation energy:                                               7.278693 eV

  Osc. strength:                                                      0.000000
  Trans. dip. moment [a.u.]:           [  -0.000000,    0.000000,    0.000000]
  <i|r^2|0> [a.u.]:                    [  -0.000000,   -0.000000,   -0.000000]

  Dip. moment [a.u.]:                  [   0.000000,   -0.000000,   19.574135]
  Total dipole [Debye]:                                              49.752499
  <r^2> [a.u.]:                        [  85.504141,   51.692388,   63.385740]
  Total <r^2> [a.u.]:                                               200.582269

  V1^2 = 0.0000, V2^2 = 1.0000

  Important amplitudes:
      occ i      occ j       vir a       vir b          v   
    ---------------------------------------------------------
     5 (A1) A   5 (A1) B    8 (A1) A    1 (A2) B     -0.3536
     5 (A1) A               1 (A2) A                  0.0016
    ---------------------------------------------------------

  Density matrix analysis:
  ------------------------
  NOs
    Occupation of frontier NOs:
       1.0026   1.0049
    Number of electrons: 18.000000
    Number of unpaired electrons: n_u =  2.39424, n_u,nl =  2.04746
    NO participation ratio (PR_NO):  2.869940
  
  
  Mulliken Population Analysis
  Atom      Charge (e)              h+              e-           Del q
  --------------------------------------------------------------------
   1 C       -1.315794        0.000032       -1.129745       -1.129713
   2 C       -1.315794        0.000032       -1.129745       -1.129713
   3 H        0.153986        0.000002        0.071706        0.071708
   4 H        0.153986        0.000002        0.071706        0.071708
   5 H        0.161806        0.000001        0.058040        0.058042
   6 H        0.161806        0.000001        0.058040        0.058042
   7 H        1.000003        1.999926       -0.000000        1.999926
  --------------------------------------------------------------------
  Sum:       -1.000000        1.999997       -1.999997       -0.000000
  
  Multipole moment analysis of the density matrix
    Molecular charge:                      -1.000000
    Number of electrons:                   18.000000
      Center of electronic charge [Ang]: [ -0.000000,   0.000000,  -0.575455]
    Total nuclear charge:                  17.000000
      Center of nuclear charge [Ang]:    [ -0.000000,   0.000000,  -0.000000]
    Dipole moment [D]:                     49.752484
      Cartesian components [D]:          [  0.000000,  -0.000000,  49.752484]
    RMS size of the density [Ang]:         1.670131
      Cartesian components [Ang]:        [  1.153343,   0.896764,   0.809291]
  
  Exciton analysis of the difference density matrix
    <r_h> [Ang]:                  [  0.000000,   0.000000,   9.411410]
    <r_e> [Ang]:                  [ -0.000000,   0.000000,  -0.457472]
    |<r_e - r_h>| [Ang]:            9.868883
    Hole size [Ang]:                1.112957
      Cartesian components [Ang]: [  0.641648,   0.641637,   0.644409]
    Electron size [Ang]:            3.694511
      Cartesian components [Ang]: [  2.297724,   2.363290,   1.668752]

  Transition density matrix analysis:
  -----------------------------------
  
  CT numbers (Mulliken)
    omega =     0.0000
    <Phe> =     0.0000
  
  Exciton analysis of the transition density matrix
    Trans. dipole moment [D]:             0.000000
      Cartesian components [D]:         [ -0.000000,   0.000000,   0.000000]
    <r_h> [Ang]:                        [ -0.000000,   0.000000,   9.413193]
    <r_e> [Ang]:                        [ -0.000000,  -0.000000,  -0.589793]
    |<r_e - r_h>| [Ang]:                 10.002987
    Hole size [Ang]:                      1.059089
      Cartesian components [Ang]:       [  0.611393,   0.611392,   0.611611]
    Electron size [Ang]:                  4.445018
      Cartesian components [Ang]:       [  2.928762,   2.895584,   1.672164]
    RMS electron-hole separation [Ang]:  10.997251
      Cartesian components [Ang]:       [  2.991891,   2.959423,  10.160214]
    Covariance(r_h, r_e) [Ang^2]:         0.000030
    Correlation coefficient:              0.000006
    Center-of-mass size [Ang]:            2.284727
      Cartesian components [Ang]:       [  1.495952,   1.479715,   0.890253]

  Decomposition into state-averaged NTOs
                   omega =   0.0%
  ----------------------------------------------------------------------------


  Excited state 8 (singlet, A2)                                    [converged]
  ----------------------------------------------------------------------------
  Term symbol:  8 (1) A2                                    R^2 =  7.12396e-06

  Total energy:                                            -78.4951787639 a.u.
  Excitation energy:                                               7.896120 eV

  Osc. strength:                                                      0.000000
  Trans. dip. moment [a.u.]:           [  -0.000000,    0.000000,   -0.000000]
  <i|r^2|0> [a.u.]:                    [  -0.000000,   -0.000000,   -0.000000]

  Dip. moment [a.u.]:                  [   0.000000,    0.000000,  -16.775937]
  Total dipole [Debye]:                                              42.640186
  <r^2> [a.u.]:                        [  82.381620,   21.002904,  688.034686]
  Total <r^2> [a.u.]:                                               791.419209

  V1^2 = 0.9485, V2^2 = 0.0515

  Important amplitudes:
      occ i      occ j       vir a       vir b          v   
    ---------------------------------------------------------
     1 (B2) A               4 (B1) A                 -0.6586
     1 (B2) A               6 (B1) A                 -0.1667
    ---------------------------------------------------------

  Density matrix analysis:
  ------------------------
  NOs
    Occupation of frontier NOs:
       0.9834   0.9926
    Number of electrons: 18.000000
    Number of unpaired electrons: n_u =  2.31793, n_u,nl =  2.02572
    NO participation ratio (PR_NO):  2.742381
  
  
  Mulliken Population Analysis
  Atom      Charge (e)              h+              e-           Del q
  --------------------------------------------------------------------
   1 C       -0.314952        0.523673       -0.652545       -0.128871
   2 C       -0.314952        0.523673       -0.652545       -0.128871
   3 H        0.138460        0.102163       -0.045981        0.056182
   4 H        0.138460        0.102163       -0.045981        0.056182
   5 H        0.176447        0.089596       -0.016913        0.072683
   6 H        0.176447        0.089596       -0.016913        0.072683
   7 H       -0.999911        0.000451       -0.000439        0.000011
  --------------------------------------------------------------------
  Sum:       -1.000000        1.431315       -1.431315       -0.000000
  
  Multipole moment analysis of the density matrix
    Molecular charge:                      -1.000000
    Number of electrons:                   18.000000
      Center of electronic charge [Ang]: [ -0.000000,  -0.000000,   0.493191]
    Total nuclear charge:                  17.000000
      Center of nuclear charge [Ang]:    [ -0.000000,   0.000000,  -0.000000]
    Dipole moment [D]:                     42.640174
      Cartesian components [D]:          [  0.000000,   0.000000, -42.640174]
    RMS size of the density [Ang]:         3.474044
      Cartesian components [Ang]:        [  1.132088,   0.571616,   3.234287]
  
  Exciton analysis of the difference density matrix
    <r_h> [Ang]:                  [  0.000000,   0.000000,  -0.603188]
    <r_e> [Ang]:                  [ -0.000000,  -0.000000,  -0.953989]
    |<r_e - r_h>| [Ang]:            0.350800
    Hole size [Ang]:                1.592527
      Cartesian components [Ang]: [  1.060932,   0.862329,   0.816672]
    Electron size [Ang]:            3.383966
      Cartesian components [Ang]: [  2.704912,   1.402967,   1.471855]

  Transition density matrix analysis:
  -----------------------------------
  
  CT numbers (Mulliken)
    omega =     0.9180
    <Phe> =    -0.0029
  
  Exciton analysis of the transition density matrix
    Trans. dipole moment [D]:             0.000000
      Cartesian components [D]:         [ -0.000000,   0.000000,  -0.000000]
    <r_h> [Ang]:                        [  0.000000,  -0.000000,  -0.589285]
    <r_e> [Ang]:                        [ -0.000000,  -0.000000,  -1.113440]
    |<r_e - r_h>| [Ang]:                  0.524154
    Hole size [Ang]:                      1.255707
      Cartesian components [Ang]:       [  0.756951,   0.862525,   0.509778]
    Electron size [Ang]:                  3.931695
      Cartesian components [Ang]:       [  3.165821,   1.637454,   1.659682]
    RMS electron-hole separation [Ang]:   4.152205
      Cartesian components [Ang]:       [  3.248914,   1.843402,   1.813073]
    Covariance(r_h, r_e) [Ang^2]:         0.034476
    Correlation coefficient:              0.006983
    Center-of-mass size [Ang]:            2.067848
      Cartesian components [Ang]:       [  1.630594,   0.929016,   0.868381]

  Decomposition into state-averaged NTOs
    H- 1 -> L+ 2: -0.6770 ( 91.7%)
                   omega =  91.8%
  ----------------------------------------------------------------------------


  Excited state 9 (singlet, A2)                                    [converged]
  ----------------------------------------------------------------------------
  Term symbol:  9 (1) A2                                    R^2 =  3.05134e-09

  Total energy:                                            -78.4945242434 a.u.
  Excitation energy:                                               7.913930 eV

  Osc. strength:                                                      0.000000
  Trans. dip. moment [a.u.]:           [   0.000000,   -0.000000,   -0.000000]
  <i|r^2|0> [a.u.]:                    [  -0.000000,   -0.000000,    0.000000]

  Dip. moment [a.u.]:                  [  -0.000000,    0.000000,   21.090196]
  Total dipole [Debye]:                                              53.605942
  <r^2> [a.u.]:                        [  75.262781,   35.556005,   84.150969]
  Total <r^2> [a.u.]:                                               194.969755

  V1^2 = 0.0006, V2^2 = 0.9994

  Important amplitudes:
      occ i      occ j       vir a       vir b          v   
    ---------------------------------------------------------
     5 (A1) A   5 (A1) B    6 (A1) A    2 (A2) B      0.3534
     5 (A1) A               3 (A2) A                  0.0155
    ---------------------------------------------------------

  Density matrix analysis:
  ------------------------
  NOs
    Occupation of frontier NOs:
       1.0006   1.0252
    Number of electrons: 18.000000
    Number of unpaired electrons: n_u =  2.35767, n_u,nl =  2.04171
    NO participation ratio (PR_NO):  2.835817
  
  
  Mulliken Population Analysis
  Atom      Charge (e)              h+              e-           Del q
  --------------------------------------------------------------------
   1 C       -1.146471        0.000154       -0.960544       -0.960390
   2 C       -1.146471        0.000154       -0.960544       -0.960390
   3 H        0.064457        0.000001       -0.017822       -0.017820
   4 H        0.064457        0.000001       -0.017822       -0.017820
   5 H        0.082295        0.000002       -0.021471       -0.021469
   6 H        0.082295        0.000002       -0.021471       -0.021469
   7 H        0.999437        1.999368       -0.000008        1.999360
  --------------------------------------------------------------------
  Sum:       -1.000000        1.999682       -1.999682        0.000000
  
  Multipole moment analysis of the density matrix
    Molecular charge:                      -1.000000
    Number of electrons:                   18.000000
      Center of electronic charge [Ang]: [  0.000000,  -0.000000,  -0.620025]
    Total nuclear charge:                  17.000000
      Center of nuclear charge [Ang]:    [ -0.000000,   0.000000,  -0.000000]
    Dipole moment [D]:                     53.605926
      Cartesian components [D]:          [ -0.000000,   0.000000,  53.605926]
    RMS size of the density [Ang]:         1.627495
      Cartesian components [Ang]:        [  1.082069,   0.743740,   0.961622]
  
  Exciton analysis of the difference density matrix
    <r_h> [Ang]:                  [ -0.000000,   0.000000,   9.410199]
    <r_e> [Ang]:                  [  0.000000,  -0.000000,  -0.861437]
    |<r_e - r_h>| [Ang]:           10.271636
    Hole size [Ang]:                1.118224
      Cartesian components [Ang]: [  0.641654,   0.641588,   0.653505]
    Electron size [Ang]:            3.508223
      Cartesian components [Ang]: [  1.961159,   1.823790,   2.266114]

  Transition density matrix analysis:
  -----------------------------------
  
  CT numbers (Mulliken)
    omega =     0.0006
    <Phe> =     0.0000
  
  Exciton analysis of the transition density matrix
    Trans. dipole moment [D]:             0.000000
      Cartesian components [D]:         [  0.000000,  -0.000000,  -0.000000]
    <r_h> [Ang]:                        [  0.000000,   0.000000,   9.411639]
    <r_e> [Ang]:                        [ -0.000000,   0.000000,  -0.587715]
    |<r_e - r_h>| [Ang]:                  9.999354
    Hole size [Ang]:                      1.099501
      Cartesian components [Ang]:       [  0.633962,   0.633948,   0.636478]
    Electron size [Ang]:                  2.057222
      Cartesian components [Ang]:       [  1.394334,   1.308760,   0.758382]
    RMS electron-hole separation [Ang]:  10.267819
      Cartesian components [Ang]:       [  1.531682,   1.454211,  10.048250]
    Covariance(r_h, r_e) [Ang^2]:         0.000019
    Correlation coefficient:              0.000008
    Center-of-mass size [Ang]:            1.166309
      Cartesian components [Ang]:       [  0.765849,   0.727110,   0.495037]

  Decomposition into state-averaged NTOs
                   omega =   0.1%
  ----------------------------------------------------------------------------


  Excited state 10 (singlet, A2)                                    [converged]
  ----------------------------------------------------------------------------
  Term symbol:  10 (1) A2                                   R^2 =  7.43214e-10

  Total energy:                                            -78.4848469699 a.u.
  Excitation energy:                                               8.177262 eV

  Osc. strength:                                                      0.000000
  Trans. dip. moment [a.u.]:           [   0.000000,    0.000000,   -0.000000]
  <i|r^2|0> [a.u.]:                    [  -0.000000,   -0.000000,    0.000000]

  Dip. moment [a.u.]:                  [  -0.000000,    0.000000,   19.611847]
  Total dipole [Debye]:                                              49.848352
  <r^2> [a.u.]:                        [ 110.096612,   33.382183,   57.660430]
  Total <r^2> [a.u.]:                                               201.139225

  V1^2 = 0.0000, V2^2 = 1.0000

  Important amplitudes:
      occ i      occ j       vir a       vir b          v   
    ---------------------------------------------------------
     5 (A1) A   5 (A1) B    7 (A1) A    2 (A2) B      0.3535
     5 (A1) A               3 (A2) A                  0.0035
    ---------------------------------------------------------

  Density matrix analysis:
  ------------------------
  NOs
    Occupation of frontier NOs:
       1.0008   1.0257
    Number of electrons: 18.000000
    Number of unpaired electrons: n_u =  2.35613, n_u,nl =  2.04167
    NO participation ratio (PR_NO):  2.834156
  
  
  Mulliken Population Analysis
  Atom      Charge (e)              h+              e-           Del q
  --------------------------------------------------------------------
   1 C       -1.209818        0.000037       -1.023774       -1.023737
   2 C       -1.209818        0.000037       -1.023774       -1.023737
   3 H        0.091456        0.000002        0.009177        0.009179
   4 H        0.091456        0.000002        0.009177        0.009179
   5 H        0.118372        0.000002        0.014606        0.014608
   6 H        0.118372        0.000002        0.014606        0.014608
   7 H        0.999978        1.999901       -0.000000        1.999900
  --------------------------------------------------------------------
  Sum:       -1.000000        1.999982       -1.999982        0.000000
  
  Multipole moment analysis of the density matrix
    Molecular charge:                      -1.000000
    Number of electrons:                   18.000000
      Center of electronic charge [Ang]: [  0.000000,  -0.000000,  -0.576563]
    Total nuclear charge:                  17.000000
      Center of nuclear charge [Ang]:    [ -0.000000,   0.000000,  -0.000000]
    Dipole moment [D]:                     49.848337
      Cartesian components [D]:          [ -0.000000,   0.000000,  49.848337]
    RMS size of the density [Ang]:         1.672341
      Cartesian components [Ang]:        [  1.308735,   0.720646,   0.751403]
  
  Exciton analysis of the difference density matrix
    <r_h> [Ang]:                  [  0.000000,   0.000000,   9.411367]
    <r_e> [Ang]:                  [  0.000000,  -0.000000,  -0.467567]
    |<r_e - r_h>| [Ang]:            9.878934
    Hole size [Ang]:                1.113129
      Cartesian components [Ang]: [  0.641660,   0.641639,   0.644693]
    Electron size [Ang]:            3.703655
      Cartesian components [Ang]: [  2.953458,   1.738237,   1.404520]

  Transition density matrix analysis:
  -----------------------------------
  
  CT numbers (Mulliken)
    omega =     0.0000
    <Phe> =     0.0000
  
  Exciton analysis of the transition density matrix
    Trans. dipole moment [D]:             0.000000
      Cartesian components [D]:         [  0.000000,   0.000000,  -0.000000]
    <r_h> [Ang]:                        [  0.000000,   0.000000,   9.411430]
    <r_e> [Ang]:                        [ -0.000000,   0.000000,  -0.589046]
    |<r_e - r_h>| [Ang]:                 10.000475
    Hole size [Ang]:                      1.108159
      Cartesian components [Ang]:       [  0.638819,   0.638803,   0.641761]
    Electron size [Ang]:                  2.507041
      Cartesian components [Ang]:       [  1.670252,   1.618913,   0.935218]
    RMS electron-hole separation [Ang]:  10.369317
      Cartesian components [Ang]:       [  1.788243,   1.740383,  10.064591]
    Covariance(r_h, r_e) [Ang^2]:         0.000016
    Correlation coefficient:              0.000006
    Center-of-mass size [Ang]:            1.370520
      Cartesian components [Ang]:       [  0.894127,   0.870196,   0.567117]

  Decomposition into state-averaged NTOs
                   omega =   0.0%
  ----------------------------------------------------------------------------


--------------------------------------------------------------------------------
  Time of ADC calculation:  CPU 112.92 s  wall 33.23 s
================================================================================
 
 --------------------------------------------------------------
             Orbital Energies (a.u.) and Symmetries
 --------------------------------------------------------------
 
 Alpha MOs, Restricted
 -- Occupied --                  
-11.184 -11.182  -0.989  -0.729  -0.607  -0.514  -0.462  -0.324
  1 A1    1 B1    2 A1    2 B1    3 A1    4 A1    3 B1    1 B2                 
  0.022
  5 A1                                                                         
 -- Virtual --                   
  0.107   0.121   0.126   0.130   0.135   0.145   0.176   0.213
  4 B1    6 A1    2 B2    7 A1    1 A2    5 B1    8 A1    2 A2                 
  0.247   0.312   0.322   0.337   0.339   0.341   0.345   0.393
  6 B1    9 A1   10 A1    7 B1    8 B1   11 A1    3 B2   12 A1                 
  0.416   0.424   0.601   0.653   0.861   0.913   0.942   0.983
  9 B1    3 A2   10 B1   11 B1   13 A1   14 A1   15 A1   12 B1                 
  0.997   1.058   1.073   1.091   1.108   1.117   1.138   1.167
 16 A1   17 A1    4 B2   18 A1   13 B1    4 A2   14 B1    5 B2                 
  1.320   1.337   1.339   1.435   1.669   1.679   1.771   1.919
 15 B1    5 A2    6 B2   16 B1   19 A1   17 B1   20 A1    6 A2                 
  1.967   1.967   1.967   1.995   1.998   2.070   2.095   2.134
 21 A1   18 B1    7 B2    8 B2   19 B1    9 B2   22 A1   23 A1                 
  2.230   2.376   2.465   2.513   2.628   2.636   2.862   2.871
  7 A2   20 B1    8 A2   24 A1   21 B1   22 B1   25 A1   26 A1                 
  3.297   3.392
 23 B1   24 B1                                                                 
 
 Beta MOs, Restricted
 -- Occupied --                  
-11.184 -11.182  -0.989  -0.729  -0.607  -0.514  -0.462  -0.324
  1 A1    1 B1    2 A1    2 B1    3 A1    4 A1    3 B1    1 B2                 
  0.022
  5 A1                                                                         
 -- Virtual --                   
  0.107   0.121   0.126   0.130   0.135   0.145   0.176   0.213
  4 B1    6 A1    2 B2    7 A1    1 A2    5 B1    8 A1    2 A2                 
  0.247   0.312   0.322   0.337   0.339   0.341   0.345   0.393
  6 B1    9 A1   10 A1    7 B1    8 B1   11 A1    3 B2   12 A1                 
  0.416   0.424   0.601   0.653   0.861   0.913   0.942   0.983
  9 B1    3 A2   10 B1   11 B1   13 A1   14 A1   15 A1   12 B1                 
  0.997   1.058   1.073   1.091   1.108   1.117   1.138   1.167
 16 A1   17 A1    4 B2   18 A1   13 B1    4 A2   14 B1    5 B2                 
  1.320   1.337   1.339   1.435   1.669   1.679   1.771   1.919
 15 B1    5 A2    6 B2   16 B1   19 A1   17 B1   20 A1    6 A2                 
  1.967   1.967   1.967   1.995   1.998   2.070   2.095   2.134
 21 A1   18 B1    7 B2    8 B2   19 B1    9 B2   22 A1   23 A1                 
  2.230   2.376   2.465   2.513   2.628   2.636   2.862   2.871
  7 A2   20 B1    8 A2   24 A1   21 B1   22 B1   25 A1   26 A1                 
  3.297   3.392
 23 B1   24 B1                                                                 
 --------------------------------------------------------------
 
          Ground-State Mulliken Net Atomic Charges

     Atom                 Charge (a.u.)
  ----------------------------------------
      1 C                    -0.171301
      2 C                    -0.171301
      3 H                     0.074872
      4 H                     0.074872
      5 H                     0.096392
      6 H                     0.096392
      7 H                    -0.999927
  ----------------------------------------
  Sum of atomic charges =    -1.000000

 -----------------------------------------------------------------
                    Cartesian Multipole Moments
 -----------------------------------------------------------------
    Charge (ESU x 10^10)
                -4.8032
    Dipole Moment (Debye)
         X       0.0000      Y       0.0000      Z     -45.0538
       Tot      45.0538
    Quadrupole Moments (Debye-Ang)
        XX     -16.8924     XY       0.0000     YY     -20.0874
        XZ       0.0000     YZ      -0.0000     ZZ    -441.5224
    Octopole Moments (Debye-Ang^2)
       XXX       0.0000    XXY       0.0000    XYY       0.0000
       YYY       0.0000    XXZ     -29.3461    XYZ      -0.0000
       YYZ     -27.6655    XZZ       0.0000    YZZ      -0.0000
       ZZZ   -4094.1510
    Hexadecapole Moments (Debye-Ang^3)
      XXXX     -74.1475   XXXY       0.0000   XXYY     -17.5652
      XYYY       0.0000   YYYY     -27.5199   XXXZ       0.0000
      XXYZ      -0.0000   XYYZ       0.0000   YYYZ      -0.0000
      XXZZ    -370.2096   XYZZ       0.0000   YYZZ    -366.8342
      XZZZ       0.0000   YZZZ      -0.0000   ZZZZ  -39845.7944
 -----------------------------------------------------------------
 Total job time:  114.14s(wall), 156.96s(cpu) 
 Sun Mar 27 19:00:02 2022

        *************************************************************
        *                                                           *
        *  Thank you very much for using Q-Chem.  Have a nice day.  *
        *                                                           *
        *************************************************************


