/src/tsommerfeld/qchem/exe/qcprog.exe .input1.305556.4368.qcin.1 /src/jdavis/qchem.scratch/qchem4368/

                  Welcome to Q-Chem
     A Quantum Leap Into The Future Of Chemistry


 Q-Chem 5.4 (devel), Q-Chem, Inc., Pleasanton, CA (2021)

 E. Epifanovsky,  A. T. B. Gilbert,  Xintian Feng,  Joonho Lee,  Yuezhi Mao,  
 N. Mardirossian,  P. Pokhilko,  A. White,  M. Wormit,  M. P. Coons,  
 A. L. Dempwolff,  Zhengting Gan,  D. Hait,  P. R. Horn,  L. D. Jacobson,  
 I. Kaliman,  J. Kussmann,  A. W. Lange,  Ka Un Lao,  D. S. Levine,  Jie Liu,  
 S. C. McKenzie,  A. F. Morrison,  K. Nanda,  F. Plasser,  D. R. Rehn,  
 M. L. Vidal,  Zhi-Qiang You,  Ying Zhu,  B. Alam,  B. Albrecht,  
 A. Aldossary,  E. Alguire,  J. H. Andersen,  D. Barton,  K. Begam,  A. Behn,  
 Y. A. Bernard,  E. J. Berquist,  H. Burton,  A. Carreras,  K. Carter-Fenk,  
 R. Chakraborty,  A. D. Chien,  K. D. Closser,  V. Cofer-Shabica,  
 S. Dasgupta,  Jia Deng,  M. de Wergifosse,  M. Diedenhofen,  Hainam Do,  
 S. Ehlert,  Po-Tung Fang,  S. Fatehi,  Qingguo Feng,  T. Friedhoff,  
 J. Gayvert,  Qinghui Ge,  G. Gidofalvi,  M. Goldey,  J. Gomes,  
 C. Gonzalez-Espinoza,  S. Gulania,  A. Gunina,  M. W. D. Hanson-Heine,  
 P. H. P. Harbach,  A. W. Hauser,  M. F. Herbst,  M. Hernandez Vera,  
 M. Hodecker,  Z. C. Holden,  S. Houck,  Xunkun Huang,  Kerwin Hui,  
 B. C. Huynh,  M. Ivanov,  Hyunjun Ji,  Hanjie Jiang,  B. Kaduk,  S. Kaehler,  
 K. Khistyaev,  Jaehoon Kim,  P. Klunzinger,  Z. Koczor-Benda,  
 Joong Hoon Koh,  D. Kosenkov,  L. Koulias,  T. Kowalczyk,  C. M. Krauter,  
 K. Kue,  A. Kunitsa,  T. Kus,  A. Landau,  K. V. Lawler,  D. Lefrancois,  
 S. Lehtola,  Rain Li,  Yi-Pei Li,  Jiashu Liang,  M. Liebenthal,  
 Hung-Hsuan Lin,  You-Sheng Lin,  Fenglai Liu,  Kuan-Yu Liu,  
 M. Loipersberger,  A. Luenser,  A. Manjanath,  P. Manohar,  E. Mansoor,  
 S. F. Manzer,  Shan-Ping Mao,  A. V. Marenich,  T. Markovich,  S. Mason,  
 S. A. Maurer,  P. F. McLaughlin,  M. F. S. J. Menger,  J.-M. Mewes,  
 S. A. Mewes,  P. Morgante,  J. W. Mullinax,  K. J. Oosterbaan,  G. Paran,  
 Alexander C. Paul,  Suranjan K. Paul,  F. Pavosevic,  Zheng Pei,  S. Prager,  
 E. I. Proynov,  E. Ramos,  B. Rana,  A. E. Rask,  A. Rettig,  R. M. Richard,  
 F. Rob,  E. Rossomme,  T. Scheele,  M. Scheurer,  M. Schneider,  
 N. Sergueev,  S. M. Sharada,  W. Skomorowski,  D. W. Small,  C. J. Stein,  
 Yu-Chuan Su,  E. J. Sundstrom,  Zhen Tao,  J. Thirman,  T. Tsuchimochi,  
 N. M. Tubman,  S. P. Veccham,  O. Vydrov,  J. Wenzel,  J. Witte,  A. Yamada,  
 Kun Yao,  S. Yeganeh,  S. R. Yost,  A. Zech,  Igor Ying Zhang,  Xing Zhang,  
 Yu Zhang,  D. Zuev,  A. Aspuru-Guzik,  A. T. Bell,  N. A. Besley,  
 K. B. Bravaya,  B. R. Brooks,  D. Casanova,  Jeng-Da Chai,  S. Coriani,  
 C. J. Cramer,  A. E. DePrince, III,  R. A. DiStasio Jr.,  A. Dreuw,  
 B. D. Dunietz,  T. R. Furlani,  W. A. Goddard III,  S. Grimme,  
 S. Hammes-Schiffer,  T. Head-Gordon,  W. J. Hehre,  Chao-Ping Hsu,  
 T.-C. Jagau,  Yousung Jung,  A. Klamt,  Jing Kong,  D. S. Lambrecht,  
 WanZhen Liang,  N. J. Mayhall,  C. W. McCurdy,  J. B. Neaton,  
 C. Ochsenfeld,  J. A. Parkhill,  R. Peverati,  V. A. Rassolov,  Yihan Shao,  
 L. V. Slipchenko,  T. Stauch,  R. P. Steele,  J. E. Subotnik,  
 A. J. W. Thom,  A. Tkatchenko,  D. G. Truhlar,  T. Van Voorhis,  
 T. A. Wesolowski,  K. B. Whaley,  H. L. Woodcock III,  P. M. Zimmerman,  
 S. Faraji,  P. M. W. Gill,  M. Head-Gordon,  J. M. Herbert,  A. I. Krylov

 Additional authors for Version 5.4.1: 
 S. Kotaru,  Shaozhi Li,  Xiangyuan Li,  F. Matz,  A. Molle,  Haisheng Ren,  
 Yingli Su,  Hung-Yi Tsai,  C. Utku,  Fang Wang

 Contributors to earlier versions of Q-Chem not listed above: 
 R. D. Adamson,  B. Austin,  R. Baer,  J. Baker,  G. J. O. Beran,  
 K. Brandhorst,  S. T. Brown,  E. F. C. Byrd,  A. K. Chakraborty,  
 G. K. L. Chan,  Chun-Min Chang,  Yunqing Chen,  C.-L. Cheng,  
 Siu Hung Chien,  D. M. Chipman,  D. L. Crittenden,  H. Dachsel,  
 R. J. Doerksen,  A. D. Dutoi,  R. G. Edgar,  J. Fosso-Tande,  
 L. Fusti-Molnar,  D. Ghosh,  A. Ghysels,  A. Golubeva-Zadorozhnaya,  
 J. Gonthier,  M. S. Gordon,  S. R. Gwaltney,  G. Hawkins,  J. E. Herr,  
 A. Heyden,  S. Hirata,  E. G. Hohenstein,  G. Kedziora,  F. J. Keil,  
 C. Kelley,  Jihan Kim,  R. A. King,  R. Z. Khaliullin,  P. P. Korambath,  
 W. Kurlancheek,  A. Laurent,  A. M. Lee,  M. S. Lee,  S. V. Levchenko,  
 Ching Yeh Lin,  D. Liotard,  E. Livshits,  R. C. Lochan,  I. Lotan,  
 L. A. Martinez-Martinez,  P. E. Maslen,  N. Nair,  D. P. O'Neill,  
 D. Neuhauser,  E. Neuscamman,  C. M. Oana,  R. Olivares-Amaya,  R. Olson,  
 T. M. Perrine,  B. Peters,  P. A. Pieniazek,  A. Prociuk,  Y. M. Rhee,  
 J. Ritchie,  M. A. Rohrdanz,  E. Rosta,  N. J. Russ,  H. F. Schaefer III,  
 M. W. Schmidt,  N. E. Schultz,  S. Sharma,  N. Shenvi,  C. D. Sherrill,  
 A. C. Simmonett,  A. Sodt,  T. Stein,  D. Stuck,  K. S. Thanthiriwatte,  
 V. Vanovschi,  L. Vogt,  Tao Wang,  A. Warshel,  M. A. Watson,  
 C. F. Williams,  Q. Wu,  X. Xu,  Jun Yang,  W. Zhang,  Yan Zhao

 Please cite Q-Chem as follows:
 Y. Shao et al., Mol. Phys. 113, 184-215 (2015)
 DOI: 10.1080/00268976.2014.952696

 Q-Chem 5.4.1 for Intel X86 EM64T Linux

 Parts of Q-Chem use Armadillo 9.900.5 (Nocturnal Misbehaviour).
 http://arma.sourceforge.net/

 Q-Chem begins on Sun Mar 27 19:15:27 2022  

 Host: node01
0

     Scratch files written to /src/jdavis/qchem.scratch/qchem4368//
 Processing $rem in /src/tsommerfeld/qchem/config/preferences:
 Processing $rem in /home/jdavis/.qchemrc:

 Checking the input file for inconsistencies... 	...done.

--------------------------------------------------------------
User input:
--------------------------------------------------------------
$molecule
-1 1
C        -0.6645000000    0.0000000000   -0.1764707059
C         0.6645000000    0.0000000000   -0.1764707059
H        -1.1590800000    0.0000000000    0.7858782941
H         1.1590800000    0.0000000000    0.7858782941
H        -1.1590800000    0.0000000000   -1.1388187059
H         1.1590800000    0.0000000000   -1.1388187059
H         0.0000000000    0.0000000000  -10.1764707059
$end

$rem
   METHOD adc(2)
   BASIS gen
   PURECART 11
   EE_STATES [0,10,0,0]
   scf_convergence 8
   ADC_DAVIDSON_MAXITER 120
   ADC_DAVIDSON_MAXSUBSPACE 200
   adc_nguess_singles 100
   THRESH 14
   S2THRESH 14
   adc_davidson_conv 5
   adc_davidson_thresh 14
   THREADS 10
   MEM_TOTAL 95000
   STATE_ANALYSIS TRUE
$end
$basis
C 1
S   9   1.00
      6.665000D+03           6.920000D-04
      1.000000D+03           5.329000D-03
      2.280000D+02           2.707700D-02
      6.471000D+01           1.017180D-01
      2.106000D+01           2.747400D-01
      7.495000D+00           4.485640D-01
      2.797000D+00           2.850740D-01
      5.215000D-01           1.520400D-02
      1.596000D-01          -3.191000D-03
S   9   1.00
      6.665000D+03          -1.460000D-04
      1.000000D+03          -1.154000D-03
      2.280000D+02          -5.725000D-03
      6.471000D+01          -2.331200D-02
      2.106000D+01          -6.395500D-02
      7.495000D+00          -1.499810D-01
      2.797000D+00          -1.272620D-01
      5.215000D-01           5.445290D-01
      1.596000D-01           5.804960D-01
S   1   1.00
      1.596000D-01           1.000000D+00
S   1   1.00
      0.0469000              1.0000000
P   4   1.00
      9.439000D+00           3.810900D-02
      2.002000D+00           2.094800D-01
      5.456000D-01           5.085570D-01
      1.517000D-01           4.688420D-01
P   1   1.00
      1.517000D-01           1.000000D+00
P   1   1.00
      0.0792211      1.0000000
P   1   1.00
      0.0396106      1.0000000
D   1   1.00
      5.500000D-01           1.0000000
****
C 2
S   9   1.00
      6.665000D+03           6.920000D-04
      1.000000D+03           5.329000D-03
      2.280000D+02           2.707700D-02
      6.471000D+01           1.017180D-01
      2.106000D+01           2.747400D-01
      7.495000D+00           4.485640D-01
      2.797000D+00           2.850740D-01
      5.215000D-01           1.520400D-02
      1.596000D-01          -3.191000D-03
S   9   1.00
      6.665000D+03          -1.460000D-04
      1.000000D+03          -1.154000D-03
      2.280000D+02          -5.725000D-03
      6.471000D+01          -2.331200D-02
      2.106000D+01          -6.395500D-02
      7.495000D+00          -1.499810D-01
      2.797000D+00          -1.272620D-01
      5.215000D-01           5.445290D-01
      1.596000D-01           5.804960D-01
S   1   1.00
      1.596000D-01           1.000000D+00
S   1   1.00
      0.0469000              1.0000000
P   4   1.00
      9.439000D+00           3.810900D-02
      2.002000D+00           2.094800D-01
      5.456000D-01           5.085570D-01
      1.517000D-01           4.688420D-01
P   1   1.00
      1.517000D-01           1.000000D+00
P   1   1.00
      0.0792211      1.0000000
P   1   1.00
      0.0396106      1.0000000
D   1   1.00
      5.500000D-01           1.0000000
****
H 3
cc-pVDZ
****
H 4
cc-pVDZ
****
H 5
cc-pVDZ
****
H 6
cc-pVDZ
****
H 7
aug-cc-pVDZ
****
$end
--------------------------------------------------------------
 ----------------------------------------------------------------
             Standard Nuclear Orientation (Angstroms)
    I     Atom           X                Y                Z
 ----------------------------------------------------------------
    1      C      -0.6645000000     0.0000000000    -0.5882351765
    2      C       0.6645000000    -0.0000000000    -0.5882351765
    3      H      -1.1590800000     0.0000000000    -1.5505841765
    4      H       1.1590800000    -0.0000000000    -1.5505841765
    5      H      -1.1590800000     0.0000000000     0.3741128235
    6      H       1.1590800000    -0.0000000000     0.3741128235
    7      H       0.0000000000     0.0000000000     9.4117648235
 ----------------------------------------------------------------
 Molecular Point Group                 C2v   NOp =  4
 Largest Abelian Subgroup              C2v   NOp =  4
 Nuclear Repulsion Energy =          34.43499495 hartrees
 There are        9 alpha and        9 beta electrons
 Requested basis set is non-standard
 There are 33 shells and 67 basis functions
 Total memory of 95000 MB is distributed as follows: 
   MEM_STATIC is set to 192 MB
   QALLOC/CCMAN JOB total memory use is  94808 MB
 Warning: actual memory use might exceed 95000 MB

 Total QAlloc Memory Limit  95000 MB
 Mega-Array Size       188 MB
 MEM_STATIC part       192 MB

                       Distance Matrix (Angstroms)
             C (  1)   C (  2)   H (  3)   H (  4)   H (  5)   H (  6)
   C (  2)  1.329000
   H (  3)  1.082000  2.061931
   H (  4)  2.061931  1.082000  2.318160
   H (  5)  1.082000  2.061931  1.924697  3.013026
   H (  6)  2.061931  1.082000  3.013026  1.924697  2.318160
   H (  7) 10.022054 10.022054 11.023455 11.023455  9.111675  9.111675

 
 A cutoff of  1.0D-14 yielded    505 shell pairs
 There are      2121 function pairs (      2258 Cartesian)
 Smallest overlap matrix eigenvalue = 2.41E-04

 Scale SEOQF with 1.000000e-01/1.000000e-01/1.000000e-02

 Standard Electronic Orientation quadrupole field applied
 Nucleus-field energy     =    -0.0000000007 hartrees
 ================ Generating on-the-fly SAD Guess ================
Attempting to make child job directory: /src/jdavis/qchem.scratch/qchem4368//Frg1/
Attempting to make child job directory: /src/jdavis/qchem.scratch/qchem4368//Frg2/
Creating input file /src/jdavis/qchem.scratch/qchem4368/Frg1.input
using default PutDataFrgm: nothing
calling putenv with: QCSCRATCH=/src/jdavis/qchem.scratch/qchem4368/ 
Spawning Job For Fragment 0
Done Job For Fragment 0
calling putenv with: QCSCRATCH=/src/jdavis/qchem.scratch 
calling putenv with: QCTHREADS=1 
Creating input file /src/jdavis/qchem.scratch/qchem4368/Frg2.input
using default PutDataFrgm: nothing
calling putenv with: QCSCRATCH=/src/jdavis/qchem.scratch/qchem4368/ 
Spawning Job For Fragment 1
Done Job For Fragment 1
calling putenv with: QCSCRATCH=/src/jdavis/qchem.scratch 
calling putenv with: QCTHREADS=1 
 Time for running child jobs:  CPU 1.81 s  wall 54.51 s
 ============= Method Specific SAD Guess Constructed =============
 Guess from on-the-fly superposition of atomic densities
 Warning: Energy on first SCF cycle will be non-variational
 A restricted Hartree-Fock SCF calculation will be
 performed using Pulay DIIS extrapolation
 SCF converges when DIIS error is below 1.0E-08
 using 10 threads for integral computing
 -------------------------------------------------------
 OpenMP Integral computing Module                
 Release: version 1.0, May 2013, Q-Chem Inc. Pittsburgh 
 -------------------------------------------------------
 ---------------------------------------
  Cycle       Energy         DIIS Error
 ---------------------------------------
    1     -78.8012784789      7.36E-02
    2     -78.4468786458      6.48E-03
    3     -78.4848415042      1.48E-03
    4     -78.4867731724      4.76E-04
    5     -78.4869461076      7.27E-05
    6     -78.4869538925      1.23E-05
    7     -78.4869542103      3.41E-06
    8     -78.4869542347      3.02E-07
    9     -78.4869542348      6.47E-08
   10     -78.4869542348      1.01E-08
   11     -78.4869542348      1.08E-09 Convergence criterion met
 ---------------------------------------
 SCF time:  CPU 10.22 s  wall 1.03 s
 SCF   energy in the final basis set = -78.48695423
 Total energy in the final basis set = -78.48695423
================================================================================
|                                                                              |
|                                 A D C  M A N                                 |
|                                                                              |
 ------------------------------------------------------------------------------ 
|                                                                              |
| Components:                                                                  |
|                                                                              |
| - libvmm - 1.3-trunk                                                         |
|   Authors:                                                                   |
|   Evgeny Epifanovsky, Ilya Kaliman                                           |
|                                                                              |
| - libtensor - 2.5-trunk                                                      |
|   Authors:                                                                   |
|   Evgeny Epifanovsky, Michael Wormit, Dmitry Zuev, Sam Manzer,               |
|   Ilya Kaliman                                                               |
|                                                                              |
| - libwfa - 1.1-trunk                                                         |
|   Authors:                                                                   |
|   Felix Plasser, Stefanie Mewes (Baeppler), Benjamin Thomitzni,              |
|   Michael Wormit, Feng Chen, Anna I. Krylov, Pavel Pokhilko                  |
|                                                                              |
| - libadc - 1.1-trunk                                                         |
|   Authors:                                                                   |
|   Michael Wormit, Adrian L. Dempwolff, Philipp H. P. Harbach,                |
|   Caroline Krauter, Dirk Rehn, Matthias Schneider, Jan Wenzel                |
|                                                                              |
| - adcman - 2.6-trunk                                                         |
|   Authors:                                                                   |
|   Michael Wormit, Adrian L. Dempwolff, Philipp H. P. Harbach,                |
|   Caroline Krauter, Daniel Lefrancois, Jan-Michael Mewes, Dirk Rehn,         |
|   Matthias Schneider, Jan Wenzel, Andreas Dreuw                              |
|                                                                              |
| Authors of earlier versions of ADCMAN:                                       |
| Andreas Dreuw, Jan Hendrik Starcke, Dirk Rehn, Michael Wormit                |
|                                                                              |
================================================================================

 
 Alpha MOs, Restricted
 -- Occupied --                  
-11.184 -11.182  -0.989  -0.729  -0.607  -0.514  -0.462  -0.324
  1 A1    1 B1    2 A1    2 B1    3 A1    4 A1    3 B1    1 B2                 
  0.022
  5 A1                                                                         
 -- Virtual --                   
  0.119   0.133   0.142   0.144   0.148   0.167   0.189   0.233
  4 B1    6 A1    7 A1    2 B2    1 A2    5 B1    8 A1    2 A2                 
  0.264   0.315   0.368   0.369   0.392   0.402   0.404   0.412
  6 B1    9 A1   10 A1    7 B1   11 A1   12 A1    3 B2    8 B1                 
  0.423   0.487   0.605   0.668   0.886   0.905   0.988   1.003
  9 B1    3 A2   10 B1   11 B1   13 A1   14 A1   12 B1   15 A1                 
  1.058   1.078   1.094   1.108   1.165   1.167   1.188   1.208
 16 A1   13 B1   17 A1   18 A1    4 B2    5 B2   14 B1    4 A2                 
  1.336   1.337   1.343   1.499   1.674   1.727   1.783   1.927
 15 B1    5 A2    6 B2   16 B1   19 A1   17 B1   20 A1    6 A2                 
  1.967   1.967   1.967   1.997   2.013   2.070   2.123   2.148
 21 A1   18 B1    7 B2    8 B2   19 B1    9 B2   22 A1   23 A1                 
  2.234   2.383   2.465   2.525   2.625   2.632   2.888   2.894
  7 A2   20 B1    8 A2   24 A1   21 B1   22 B1   25 A1   26 A1                 
  3.316   3.395
 23 B1   24 B1                                                                 
 
 Beta MOs, Restricted
 -- Occupied --                  
-11.184 -11.182  -0.989  -0.729  -0.607  -0.514  -0.462  -0.324
  1 A1    1 B1    2 A1    2 B1    3 A1    4 A1    3 B1    1 B2                 
  0.022
  5 A1                                                                         
 -- Virtual --                   
  0.119   0.133   0.142   0.144   0.148   0.167   0.189   0.233
  4 B1    6 A1    7 A1    2 B2    1 A2    5 B1    8 A1    2 A2                 
  0.264   0.315   0.368   0.369   0.392   0.402   0.404   0.412
  6 B1    9 A1   10 A1    7 B1   11 A1   12 A1    3 B2    8 B1                 
  0.423   0.487   0.605   0.668   0.886   0.905   0.988   1.003
  9 B1    3 A2   10 B1   11 B1   13 A1   14 A1   12 B1   15 A1                 
  1.058   1.078   1.094   1.108   1.165   1.167   1.188   1.208
 16 A1   13 B1   17 A1   18 A1    4 B2    5 B2   14 B1    4 A2                 
  1.336   1.337   1.343   1.499   1.674   1.727   1.783   1.927
 15 B1    5 A2    6 B2   16 B1   19 A1   17 B1   20 A1    6 A2                 
  1.967   1.967   1.967   1.997   2.013   2.070   2.123   2.148
 21 A1   18 B1    7 B2    8 B2   19 B1    9 B2   22 A1   23 A1                 
  2.234   2.383   2.465   2.525   2.625   2.632   2.888   2.894
  7 A2   20 B1    8 A2   24 A1   21 B1   22 B1   25 A1   26 A1                 
  3.316   3.395
 23 B1   24 B1                                                                 

--------------------------------------------------------------------------------
                                   HF Summary                                   
--------------------------------------------------------------------------------
  Energy:                                                  -78.4869542348 a.u.
  Dip. moment [a.u.]:                  [  -0.000000,   -0.000000,  -17.726666]
  Total dipole [Debye]:                                              45.056699
  <r^2> [a.u.]:                        [  50.663789,   14.946354,  677.605539]
  Total <r^2> [a.u.]:                                               743.215682
--------------------------------------------------------------------------------

--------------------------------------------------------------------------------
                                 MP(2) Summary                                  
--------------------------------------------------------------------------------
  MP energy contribution:                                   -0.2992014465 a.u.
  Total energy:                                            -78.7861556813 a.u.
  Dip. moment [a.u.]:                  [  -0.000000,   -0.000000,  -17.725975]
  Total dipole [Debye]:                                              45.054944
  <r^2> [a.u.]:                        [  50.729060,   14.754122,  677.594481]
  Total <r^2> [a.u.]:                                               743.077662

  Density matrix analysis:
  ------------------------
  NOs
    Occupation of frontier NOs:
       0.0447   1.9370
    Number of electrons: 18.000000
    Number of unpaired electrons: n_u =  0.43237, n_u,nl =  0.04681
    NO participation ratio (PR_NO): 15.330159
  
  
  Mulliken Population Analysis
  Atom      Charge (e)              h+              e-           Del q
  --------------------------------------------------------------------
   1 C       -0.215834        0.087478       -0.102571       -0.015094
   2 C       -0.215834        0.087478       -0.102571       -0.015094
   3 H        0.097026        0.018202       -0.010642        0.007559
   4 H        0.097026        0.018202       -0.010642        0.007559
   5 H        0.118806        0.017882       -0.010348        0.007534
   6 H        0.118806        0.017882       -0.010348        0.007534
   7 H       -0.999995        0.021953       -0.021953        0.000000
  --------------------------------------------------------------------
  Sum:       -1.000000        0.269076       -0.269076       -0.000000
  
  Multipole moment analysis of the density matrix
    Molecular charge:                      -1.000000
    Number of electrons:                   18.000000
      Center of electronic charge [Ang]: [  0.000000,   0.000000,   0.521121]
    Total nuclear charge:                  17.000000
      Center of nuclear charge [Ang]:    [ -0.000000,   0.000000,  -0.000000]
    Dipole moment [D]:                     45.054931
      Cartesian components [D]:          [ -0.000000,  -0.000000, -45.054931]
    RMS size of the density [Ang]:         3.359851
      Cartesian components [Ang]:        [  0.888369,   0.479095,   3.204663]
  
  Exciton analysis of the difference density matrix
    <r_h> [Ang]:                  [ -0.000000,  -0.000000,   0.225118]
    <r_e> [Ang]:                  [ -0.000000,  -0.000000,   0.223761]
    |<r_e - r_h>| [Ang]:            0.001358
    Hole size [Ang]:                3.083933
      Cartesian components [Ang]: [  0.952796,   0.754056,   2.834471]
    Electron size [Ang]:            3.060656
      Cartesian components [Ang]: [  0.987799,   0.607078,   2.832548]
--------------------------------------------------------------------------------
Less singles guess vectors found than requested: 85 (found), 100 (requested).
Adjusting number of doubles guess vectors to 15.
  Starting Davidson for singlet states of irrep A2 ... 
--------------------------------------------------------------------------------
   It NVec Conv  Avg. Norm  Max. Norm  Conv. states           Remark
--------------------------------------------------------------------------------
       100    0  5.300e-02  3.606e-01  0.0961 n n n n n n n n Guess.
    1  110    3  1.861e-03  1.182e-02  0.0566 n n y n n y y n 
    2  120    8  2.277e-04  2.277e-03  0.0565 y n y y y y y n 
    3  130    9  1.985e-05  1.985e-04  0.0565 y y y y y y y n 
    4  140   10  8.084e-07  8.084e-06  0.0565 y y y y y y y y Converged.
--------------------------------------------------------------------------------
  Davidson Summary: 
 ------------------------------------------------------------
  State  0: excitation energy =   0.0565 a.u.   (converged)
  State  1: excitation energy =   0.1248 a.u.   (converged)
  State  2: excitation energy =   0.2202 a.u.   (converged)
  State  3: excitation energy =   0.2375 a.u.   (converged)
  State  4: excitation energy =   0.2459 a.u.   (converged)
  State  5: excitation energy =   0.2680 a.u.   (converged)
  State  6: excitation energy =   0.2936 a.u.   (converged)
  State  7: excitation energy =   0.2941 a.u.   (converged)
  State  8: excitation energy =   0.3234 a.u.   (converged)
  State  9: excitation energy =   0.3318 a.u.   (converged)
 ------------------------------------------------------------


--------------------------------------------------------------------------------
                   State-averaged natural transition orbitals
--------------------------------------------------------------------------------
--------------------------------------------------------------------------------

--------------------------------------------------------------------------------
                             Excited State Summary
--------------------------------------------------------------------------------
--------------------------------------------------------------------------------

  Excited state 1 (singlet, A2)                                    [converged]
  ----------------------------------------------------------------------------
  Term symbol:  1 (1) A2                                    R^2 =  4.49900e-09

  Total energy:                                            -78.7296154079 a.u.
  Excitation energy:                                               1.538539 eV

  Osc. strength:                                                      0.000000
  Trans. dip. moment [a.u.]:           [   0.000000,    0.000000,    0.000000]
  <i|r^2|0> [a.u.]:                    [  -0.000000,   -0.000000,   -0.000000]

  Dip. moment [a.u.]:                  [  -0.000000,   -0.000000,    1.132878]
  Total dipole [Debye]:                                               2.879489
  <r^2> [a.u.]:                        [  63.451635,   26.160339,  365.855166]
  Total <r^2> [a.u.]:                                               455.467140

  V1^2 = 0.9595, V2^2 = 0.0405

  Important amplitudes:
      occ i      occ j       vir a       vir b          v   
    ---------------------------------------------------------
     5 (A1) A               1 (A2) A                 -0.6632
     5 (A1) A               2 (A2) A                 -0.1952
    ---------------------------------------------------------

  Density matrix analysis:
  ------------------------
  NOs
    Occupation of frontier NOs:
       0.9911   1.0014
    Number of electrons: 18.000000
    Number of unpaired electrons: n_u =  2.41264, n_u,nl =  2.04427
    NO participation ratio (PR_NO):  2.923354
  
  
  Mulliken Population Analysis
  Atom      Charge (e)              h+              e-           Del q
  --------------------------------------------------------------------
   1 C       -0.641511        0.112346       -0.538022       -0.425676
   2 C       -0.641511        0.112346       -0.538022       -0.425676
   3 H        0.066121        0.004563       -0.035468       -0.030905
   4 H        0.066121        0.004563       -0.035468       -0.030905
   5 H        0.075386        0.003862       -0.047281       -0.043420
   6 H        0.075386        0.003862       -0.047281       -0.043420
   7 H        0.000006        1.019138       -0.019137        1.000002
  --------------------------------------------------------------------
  Sum:       -1.000000        1.260679       -1.260679       -0.000000
  
  Multipole moment analysis of the density matrix
    Molecular charge:                      -1.000000
    Number of electrons:                   18.000000
      Center of electronic charge [Ang]: [  0.000000,   0.000000,  -0.033305]
    Total nuclear charge:                  17.000000
      Center of nuclear charge [Ang]:    [ -0.000000,   0.000000,  -0.000000]
    Dipole moment [D]:                     2.879488
      Cartesian components [D]:          [ -0.000000,  -0.000000,   2.879488]
    RMS size of the density [Ang]:         2.661702
      Cartesian components [Ang]:        [  0.993542,   0.637950,   2.385488]
  
  Exciton analysis of the difference density matrix
    <r_h> [Ang]:                  [  0.000000,  -0.000000,   7.498497]
    <r_e> [Ang]:                  [  0.000000,  -0.000000,  -0.417612]
    |<r_e - r_h>| [Ang]:            7.916109
    Hole size [Ang]:                4.129150
      Cartesian components [Ang]: [  0.776422,   0.710391,   3.992793]
    Electron size [Ang]:            3.036021
      Cartesian components [Ang]: [  1.851711,   1.743061,   1.658412]

  Transition density matrix analysis:
  -----------------------------------
  
  CT numbers (Mulliken)
    omega =     0.9449
    <Phe> =     0.0000
  
  Exciton analysis of the transition density matrix
    Trans. dipole moment [D]:             0.000000
      Cartesian components [D]:         [  0.000000,   0.000000,   0.000000]
    <r_h> [Ang]:                        [ -0.000000,   0.000000,   9.411713]
    <r_e> [Ang]:                        [  0.000000,   0.000000,  -0.588137]
    |<r_e - r_h>| [Ang]:                  9.999849
    Hole size [Ang]:                      1.110005
      Cartesian components [Ang]:       [  0.640805,   0.640804,   0.640976]
    Electron size [Ang]:                  2.949427
      Cartesian components [Ang]:       [  1.972386,   1.896652,   1.100692]
    RMS electron-hole separation [Ang]:  10.484662
      Cartesian components [Ang]:       [  2.073858,   2.001973,  10.080643]
    Covariance(r_h, r_e) [Ang^2]:         0.000038
    Correlation coefficient:              0.000012
    Center-of-mass size [Ang]:            1.575699
      Cartesian components [Ang]:       [  1.036942,   1.000992,   0.636862]

  Decomposition into state-averaged NTOs
    H- 0 -> L+ 0: -0.5059 ( 51.2%)
    H- 0 -> L+ 2: -0.4653 ( 43.3%)
                   omega =  94.5%
  ----------------------------------------------------------------------------


  Excited state 2 (singlet, A2)                                    [converged]
  ----------------------------------------------------------------------------
  Term symbol:  2 (1) A2                                    R^2 =  9.19343e-09

  Total energy:                                            -78.6613684040 a.u.
  Excitation energy:                                               3.395635 eV

  Osc. strength:                                                      0.000000
  Trans. dip. moment [a.u.]:           [   0.000000,    0.000000,   -0.000000]
  <i|r^2|0> [a.u.]:                    [  -0.000000,   -0.000000,    0.000000]

  Dip. moment [a.u.]:                  [  -0.000000,   -0.000000,    1.133162]
  Total dipole [Debye]:                                               2.880212
  <r^2> [a.u.]:                        [  68.304492,   31.140342,  367.527773]
  Total <r^2> [a.u.]:                                               466.972608

  V1^2 = 0.9564, V2^2 = 0.0436

  Important amplitudes:
      occ i      occ j       vir a       vir b          v   
    ---------------------------------------------------------
     5 (A1) A               2 (A2) A                  0.6532
     5 (A1) A               1 (A2) A                 -0.2148
    ---------------------------------------------------------

  Density matrix analysis:
  ------------------------
  NOs
    Occupation of frontier NOs:
       0.9872   1.0013
    Number of electrons: 18.000000
    Number of unpaired electrons: n_u =  2.42531, n_u,nl =  2.04829
    NO participation ratio (PR_NO):  2.963799
  
  
  Mulliken Population Analysis
  Atom      Charge (e)              h+              e-           Del q
  --------------------------------------------------------------------
   1 C       -0.625309        0.109317       -0.518792       -0.409475
   2 C       -0.625309        0.109317       -0.518792       -0.409475
   3 H        0.057924        0.002644       -0.041745       -0.039101
   4 H        0.057924        0.002644       -0.041745       -0.039101
   5 H        0.067381        0.001857       -0.053282       -0.051425
   6 H        0.067381        0.001857       -0.053282       -0.051425
   7 H        0.000006        1.018864       -0.018862        1.000002
  --------------------------------------------------------------------
  Sum:       -1.000000        1.246500       -1.246500       -0.000000
  
  Multipole moment analysis of the density matrix
    Molecular charge:                      -1.000000
    Number of electrons:                   18.000000
      Center of electronic charge [Ang]: [  0.000000,   0.000000,  -0.033314]
    Total nuclear charge:                  17.000000
      Center of nuclear charge [Ang]:    [ -0.000000,   0.000000,  -0.000000]
    Dipole moment [D]:                     2.880211
      Cartesian components [D]:          [ -0.000000,  -0.000000,   2.880211]
    RMS size of the density [Ang]:         2.695116
      Cartesian components [Ang]:        [  1.030836,   0.696028,   2.390935]
  
  Exciton analysis of the difference density matrix
    <r_h> [Ang]:                  [  0.000000,   0.000000,   7.588418]
    <r_e> [Ang]:                  [  0.000000,   0.000000,  -0.417863]
    |<r_e - r_h>| [Ang]:            8.006281
    Hole size [Ang]:                4.046144
      Cartesian components [Ang]: [  0.752334,   0.672809,   3.918240]
    Electron size [Ang]:            3.428298
      Cartesian components [Ang]: [  2.124702,   2.033192,   1.762100]

  Transition density matrix analysis:
  -----------------------------------
  
  CT numbers (Mulliken)
    omega =     0.9428
    <Phe> =     0.0000
  
  Exciton analysis of the transition density matrix
    Trans. dipole moment [D]:             0.000000
      Cartesian components [D]:         [  0.000000,   0.000000,  -0.000000]
    <r_h> [Ang]:                        [ -0.000000,   0.000000,   9.411713]
    <r_e> [Ang]:                        [  0.000000,   0.000000,  -0.588149]
    |<r_e - r_h>| [Ang]:                  9.999862
    Hole size [Ang]:                      1.109982
      Cartesian components [Ang]:       [  0.640792,   0.640791,   0.640963]
    Electron size [Ang]:                  3.480449
      Cartesian components [Ang]:       [  2.305314,   2.256326,   1.306921]
    RMS electron-hole separation [Ang]:  10.646257
      Cartesian components [Ang]:       [  2.392710,   2.345550,  10.105252]
    Covariance(r_h, r_e) [Ang^2]:         0.000022
    Correlation coefficient:              0.000006
    Center-of-mass size [Ang]:            1.826583
      Cartesian components [Ang]:       [  1.196361,   1.172779,   0.727818]

  Decomposition into state-averaged NTOs
    H- 0 -> L+ 2:  0.4892 ( 47.9%)
    H- 0 -> L+ 0: -0.4817 ( 46.4%)
                   omega =  94.3%
  ----------------------------------------------------------------------------


  Excited state 3 (singlet, A2)                                    [converged]
  ----------------------------------------------------------------------------
  Term symbol:  3 (1) A2                                    R^2 =  4.77304e-13

  Total energy:                                            -78.5659964885 a.u.
  Excitation energy:                                               5.990836 eV

  Osc. strength:                                                      0.000000
  Trans. dip. moment [a.u.]:           [  -0.000000,   -0.000000,   -0.000000]
  <i|r^2|0> [a.u.]:                    [  -0.000000,   -0.000000,    0.000000]

  Dip. moment [a.u.]:                  [   0.000000,    0.000000,   21.005818]
  Total dipole [Debye]:                                              53.391474
  <r^2> [a.u.]:                        [ 101.142871,   51.417894,   67.138350]
  Total <r^2> [a.u.]:                                               219.699114

  V1^2 = 0.0000, V2^2 = 1.0000

  Important amplitudes:
      occ i      occ j       vir a       vir b          v   
    ---------------------------------------------------------
     5 (A1) A   5 (A1) B    4 (B1) A    2 (B2) B     -0.3536
     5 (A1) A               1 (A2) A                 -0.0000
    ---------------------------------------------------------

  Density matrix analysis:
  ------------------------
  NOs
    Occupation of frontier NOs:
       1.0008   1.0018
    Number of electrons: 18.000000
    Number of unpaired electrons: n_u =  2.40438, n_u,nl =  2.04904
    NO participation ratio (PR_NO):  2.879432
  
  
  Mulliken Population Analysis
  Atom      Charge (e)              h+              e-           Del q
  --------------------------------------------------------------------
   1 C       -1.166941        0.000002       -0.951108       -0.951106
   2 C       -1.166941        0.000002       -0.951108       -0.951106
   3 H        0.056589        0.000000       -0.040436       -0.040436
   4 H        0.056589        0.000000       -0.040436       -0.040436
   5 H        0.110351        0.000000       -0.008455       -0.008455
   6 H        0.110351        0.000000       -0.008455       -0.008455
   7 H        1.000000        1.999996       -0.000000        1.999996
  --------------------------------------------------------------------
  Sum:       -1.000000        2.000000       -2.000000       -0.000000
  
  Multipole moment analysis of the density matrix
    Molecular charge:                      -1.000000
    Number of electrons:                   18.000000
      Center of electronic charge [Ang]: [ -0.000000,  -0.000000,  -0.617544]
    Total nuclear charge:                  17.000000
      Center of nuclear charge [Ang]:    [ -0.000000,   0.000000,  -0.000000]
    Dipole moment [D]:                     53.391458
      Cartesian components [D]:          [  0.000000,   0.000000,  53.391458]
    RMS size of the density [Ang]:         1.742564
      Cartesian components [Ang]:        [  1.254390,   0.894380,   0.814322]
  
  Exciton analysis of the difference density matrix
    <r_h> [Ang]:                  [ -0.000000,  -0.000000,   9.411729]
    <r_e> [Ang]:                  [ -0.000000,  -0.000000,  -0.836262]
    |<r_e - r_h>| [Ang]:           10.247991
    Hole size [Ang]:                1.111310
      Cartesian components [Ang]: [  0.641563,   0.641563,   0.641719]
    Electron size [Ang]:            3.979429
      Cartesian components [Ang]: [  2.733177,   2.354794,   1.679448]

  Transition density matrix analysis:
  -----------------------------------
  
  CT numbers (Mulliken)
    omega =     0.0000
    <Phe> =     0.0000
  
  Exciton analysis of the transition density matrix
    ... vanishing.

  Decomposition into state-averaged NTOs
                   omega =   0.0%
  ----------------------------------------------------------------------------


  Excited state 4 (singlet, A2)                                    [converged]
  ----------------------------------------------------------------------------
  Term symbol:  4 (1) A2                                    R^2 =  3.59041e-11

  Total energy:                                            -78.5486815984 a.u.
  Excitation energy:                                               6.461998 eV

  Osc. strength:                                                      0.000000
  Trans. dip. moment [a.u.]:           [  -0.000000,    0.000000,    0.000000]
  <i|r^2|0> [a.u.]:                    [   0.000000,    0.000000,   -0.000000]

  Dip. moment [a.u.]:                  [  -0.000000,   -0.000000,   22.060717]
  Total dipole [Debye]:                                              56.072760
  <r^2> [a.u.]:                        [  88.586951,   40.284585,   75.381378]
  Total <r^2> [a.u.]:                                               204.252915

  V1^2 = 0.0000, V2^2 = 1.0000

  Important amplitudes:
      occ i      occ j       vir a       vir b          v   
    ---------------------------------------------------------
     5 (A1) A   5 (A1) B    6 (A1) A    1 (A2) B     -0.3536
     5 (A1) A               1 (A2) A                  0.0023
    ---------------------------------------------------------

  Density matrix analysis:
  ------------------------
  NOs
    Occupation of frontier NOs:
       1.0017   1.0087
    Number of electrons: 18.000000
    Number of unpaired electrons: n_u =  2.38860, n_u,nl =  2.04637
    NO participation ratio (PR_NO):  2.865292
  
  
  Mulliken Population Analysis
  Atom      Charge (e)              h+              e-           Del q
  --------------------------------------------------------------------
   1 C       -1.228953        0.000002       -1.013120       -1.013119
   2 C       -1.228953        0.000002       -1.013120       -1.013119
   3 H        0.110075       -0.000000        0.013050        0.013050
   4 H        0.110075       -0.000000        0.013050        0.013050
   5 H        0.118880       -0.000000        0.000074        0.000074
   6 H        0.118880       -0.000000        0.000074        0.000074
   7 H        0.999995        1.999990       -0.000000        1.999990
  --------------------------------------------------------------------
  Sum:       -1.000000        1.999994       -1.999994       -0.000000
  
  Multipole moment analysis of the density matrix
    Molecular charge:                      -1.000000
    Number of electrons:                   18.000000
      Center of electronic charge [Ang]: [  0.000000,   0.000000,  -0.648557]
    Total nuclear charge:                  17.000000
      Center of nuclear charge [Ang]:    [ -0.000000,   0.000000,  -0.000000]
    Dipole moment [D]:                     56.072743
      Cartesian components [D]:          [ -0.000000,  -0.000000,  56.072743]
    RMS size of the density [Ang]:         1.660411
      Cartesian components [Ang]:        [  1.173950,   0.791652,   0.867233]
  
  Exciton analysis of the difference density matrix
    <r_h> [Ang]:                  [ -0.000000,  -0.000000,   9.411735]
    <r_e> [Ang]:                  [  0.000000,   0.000000,  -1.115404]
    |<r_e - r_h>| [Ang]:           10.527139
    Hole size [Ang]:                1.111275
      Cartesian components [Ang]: [  0.641563,   0.641561,   0.641661]
    Electron size [Ang]:            3.623282
      Cartesian components [Ang]: [  2.390034,   1.996557,   1.851935]

  Transition density matrix analysis:
  -----------------------------------
  
  CT numbers (Mulliken)
    omega =     0.0000
    <Phe> =     0.0000
  
  Exciton analysis of the transition density matrix
    Trans. dipole moment [D]:             0.000000
      Cartesian components [D]:         [ -0.000000,   0.000000,   0.000000]
    <r_h> [Ang]:                        [ -0.000000,   0.000000,   9.412335]
    <r_e> [Ang]:                        [  0.000000,   0.000000,  -0.587857]
    |<r_e - r_h>| [Ang]:                 10.000192
    Hole size [Ang]:                      1.070859
      Cartesian components [Ang]:       [  0.618256,   0.618256,   0.618270]
    Electron size [Ang]:                  3.926995
      Cartesian components [Ang]:       [  2.593888,   2.553054,   1.474770]
    RMS electron-hole separation [Ang]:  10.796843
      Cartesian components [Ang]:       [  2.666544,   2.626842,  10.127243]
    Covariance(r_h, r_e) [Ang^2]:         0.000031
    Correlation coefficient:              0.000007
    Center-of-mass size [Ang]:            2.035196
      Cartesian components [Ang]:       [  1.333279,   1.313426,   0.799563]

  Decomposition into state-averaged NTOs
                   omega =   0.0%
  ----------------------------------------------------------------------------


  Excited state 5 (singlet, A2)                                    [converged]
  ----------------------------------------------------------------------------
  Term symbol:  5 (1) A2                                    R^2 =  3.08548e-11

  Total energy:                                            -78.5402819067 a.u.
  Excitation energy:                                               6.690566 eV

  Osc. strength:                                                      0.000000
  Trans. dip. moment [a.u.]:           [  -0.000000,    0.000000,    0.000000]
  <i|r^2|0> [a.u.]:                    [   0.000000,    0.000000,   -0.000000]

  Dip. moment [a.u.]:                  [  -0.000000,   -0.000000,   18.546908]
  Total dipole [Debye]:                                              47.141548
  <r^2> [a.u.]:                        [  96.838015,   39.768390,   63.826263]
  Total <r^2> [a.u.]:                                               200.432668

  V1^2 = 0.0000, V2^2 = 1.0000

  Important amplitudes:
      occ i      occ j       vir a       vir b          v   
    ---------------------------------------------------------
     5 (A1) A   5 (A1) B    7 (A1) A    1 (A2) B     -0.3536
     5 (A1) A               1 (A2) A                  0.0017
    ---------------------------------------------------------

  Density matrix analysis:
  ------------------------
  NOs
    Occupation of frontier NOs:
       1.0014   1.0087
    Number of electrons: 18.000000
    Number of unpaired electrons: n_u =  2.38924, n_u,nl =  2.04640
    NO participation ratio (PR_NO):  2.865892
  
  
  Mulliken Population Analysis
  Atom      Charge (e)              h+              e-           Del q
  --------------------------------------------------------------------
   1 C       -1.232365        0.000002       -1.016533       -1.016531
   2 C       -1.232365        0.000002       -1.016533       -1.016531
   3 H        0.098800        0.000000        0.001775        0.001775
   4 H        0.098800        0.000000        0.001775        0.001775
   5 H        0.133566        0.000000        0.014760        0.014760
   6 H        0.133566        0.000000        0.014760        0.014760
   7 H        0.999998        1.999993       -0.000000        1.999993
  --------------------------------------------------------------------
  Sum:       -1.000000        1.999997       -1.999997       -0.000000
  
  Multipole moment analysis of the density matrix
    Molecular charge:                      -1.000000
    Number of electrons:                   18.000000
      Center of electronic charge [Ang]: [  0.000000,   0.000000,  -0.545256]
    Total nuclear charge:                  17.000000
      Center of nuclear charge [Ang]:    [ -0.000000,   0.000000,  -0.000000]
    Dipole moment [D]:                     47.141534
      Cartesian components [D]:          [ -0.000000,  -0.000000,  47.141534]
    RMS size of the density [Ang]:         1.679540
      Cartesian components [Ang]:        [  1.227405,   0.786564,   0.834057]
  
  Exciton analysis of the difference density matrix
    <r_h> [Ang]:                  [ -0.000000,   0.000000,   9.411731]
    <r_e> [Ang]:                  [  0.000000,   0.000000,  -0.185676]
    |<r_e - r_h>| [Ang]:            9.597407
    Hole size [Ang]:                1.111300
      Cartesian components [Ang]: [  0.641566,   0.641562,   0.641702]
    Electron size [Ang]:            3.715244
      Cartesian components [Ang]: [  2.620597,   1.978373,   1.738261]

  Transition density matrix analysis:
  -----------------------------------
  
  CT numbers (Mulliken)
    omega =     0.0000
    <Phe> =     0.0000
  
  Exciton analysis of the transition density matrix
    Trans. dipole moment [D]:             0.000000
      Cartesian components [D]:         [ -0.000000,   0.000000,   0.000000]
    <r_h> [Ang]:                        [ -0.000000,   0.000000,   9.412414]
    <r_e> [Ang]:                        [  0.000000,   0.000000,  -0.588423]
    |<r_e - r_h>| [Ang]:                 10.000837
    Hole size [Ang]:                      1.068360
      Cartesian components [Ang]:       [  0.616814,   0.616814,   0.616826]
    Electron size [Ang]:                  3.911011
      Cartesian components [Ang]:       [  2.583666,   2.542376,   1.468675]
    RMS electron-hole separation [Ang]:  10.791389
      Cartesian components [Ang]:       [  2.656266,   2.616125,  10.126906]
    Covariance(r_h, r_e) [Ang^2]:         0.000032
    Correlation coefficient:              0.000008
    Center-of-mass size [Ang]:            2.027157
      Cartesian components [Ang]:       [  1.328140,   1.308067,   0.796473]

  Decomposition into state-averaged NTOs
                   omega =   0.0%
  ----------------------------------------------------------------------------


  Excited state 6 (singlet, A2)                                    [converged]
  ----------------------------------------------------------------------------
  Term symbol:  6 (1) A2                                    R^2 =  1.05693e-12

  Total energy:                                            -78.5181908543 a.u.
  Excitation energy:                                               7.291694 eV

  Osc. strength:                                                      0.000000
  Trans. dip. moment [a.u.]:           [   0.000000,   -0.000000,   -0.000000]
  <i|r^2|0> [a.u.]:                    [  -0.000000,   -0.000000,    0.000000]

  Dip. moment [a.u.]:                  [   0.000000,    0.000000,   19.308456]
  Total dipole [Debye]:                                              49.077210
  <r^2> [a.u.]:                        [  86.401070,   50.404977,   79.205750]
  Total <r^2> [a.u.]:                                               216.011797

  V1^2 = 0.0000, V2^2 = 1.0000

  Important amplitudes:
      occ i      occ j       vir a       vir b          v   
    ---------------------------------------------------------
     5 (A1) A   5 (A1) B    5 (B1) A    2 (B2) B     -0.3536
     5 (A1) A               1 (A2) A                 -0.0001
    ---------------------------------------------------------

  Density matrix analysis:
  ------------------------
  NOs
    Occupation of frontier NOs:
       1.0010   1.0018
    Number of electrons: 18.000000
    Number of unpaired electrons: n_u =  2.40396, n_u,nl =  2.04900
    NO participation ratio (PR_NO):  2.879012
  
  
  Mulliken Population Analysis
  Atom      Charge (e)              h+              e-           Del q
  --------------------------------------------------------------------
   1 C       -1.096681        0.000002       -0.880849       -0.880847
   2 C       -1.096681        0.000002       -0.880849       -0.880847
   3 H        0.048476        0.000000       -0.048549       -0.048549
   4 H        0.048476        0.000000       -0.048549       -0.048549
   5 H        0.048204        0.000000       -0.070602       -0.070602
   6 H        0.048204        0.000000       -0.070602       -0.070602
   7 H        1.000000        1.999996       -0.000000        1.999996
  --------------------------------------------------------------------
  Sum:       -1.000000        2.000000       -2.000000       -0.000000
  
  Multipole moment analysis of the density matrix
    Molecular charge:                      -1.000000
    Number of electrons:                   18.000000
      Center of electronic charge [Ang]: [ -0.000000,  -0.000000,  -0.567644]
    Total nuclear charge:                  17.000000
      Center of nuclear charge [Ang]:    [ -0.000000,   0.000000,  -0.000000]
    Dipole moment [D]:                     49.077195
      Cartesian components [D]:          [  0.000000,   0.000000,  49.077195]
    RMS size of the density [Ang]:         1.743074
      Cartesian components [Ang]:        [  1.159376,   0.885527,   0.953937]
  
  Exciton analysis of the difference density matrix
    <r_h> [Ang]:                  [ -0.000000,  -0.000000,   9.411729]
    <r_e> [Ang]:                  [ -0.000000,  -0.000000,  -0.387160]
    |<r_e - r_h>| [Ang]:            9.798889
    Hole size [Ang]:                1.111310
      Cartesian components [Ang]: [  0.641563,   0.641563,   0.641719]
    Electron size [Ang]:            3.983594
      Cartesian components [Ang]: [  2.325122,   2.324485,   2.249354]

  Transition density matrix analysis:
  -----------------------------------
  
  CT numbers (Mulliken)
    omega =     0.0000
    <Phe> =     0.0000
  
  Exciton analysis of the transition density matrix
    ... vanishing.

  Decomposition into state-averaged NTOs
                   omega =   0.0%
  ----------------------------------------------------------------------------


  Excited state 7 (singlet, A2)                                    [converged]
  ----------------------------------------------------------------------------
  Term symbol:  7 (1) A2                                    R^2 =  2.00277e-11

  Total energy:                                            -78.4925484663 a.u.
  Excitation energy:                                               7.989459 eV

  Osc. strength:                                                      0.000000
  Trans. dip. moment [a.u.]:           [  -0.000000,    0.000000,   -0.000000]
  <i|r^2|0> [a.u.]:                    [   0.000000,    0.000000,    0.000000]

  Dip. moment [a.u.]:                  [   0.000000,   -0.000000,   19.660693]
  Total dipole [Debye]:                                              49.972507
  <r^2> [a.u.]:                        [  80.505038,   44.066852,   60.597631]
  Total <r^2> [a.u.]:                                               185.169522

  V1^2 = 0.0000, V2^2 = 1.0000

  Important amplitudes:
      occ i      occ j       vir a       vir b          v   
    ---------------------------------------------------------
     5 (A1) A   5 (A1) B    8 (A1) A    1 (A2) B     -0.3536
     5 (A1) A               1 (A2) A                  0.0004
    ---------------------------------------------------------

  Density matrix analysis:
  ------------------------
  NOs
    Occupation of frontier NOs:
       1.0022   1.0087
    Number of electrons: 18.000000
    Number of unpaired electrons: n_u =  2.38765, n_u,nl =  2.04636
    NO participation ratio (PR_NO):  2.864408
  
  
  Mulliken Population Analysis
  Atom      Charge (e)              h+              e-           Del q
  --------------------------------------------------------------------
   1 C       -1.319416        0.000002       -1.103584       -1.103582
   2 C       -1.319416        0.000002       -1.103584       -1.103582
   3 H        0.153056        0.000000        0.056030        0.056030
   4 H        0.153056        0.000000        0.056030        0.056030
   5 H        0.166360        0.000000        0.047554        0.047554
   6 H        0.166360        0.000000        0.047554        0.047554
   7 H        1.000000        1.999996       -0.000000        1.999996
  --------------------------------------------------------------------
  Sum:       -1.000000        2.000000       -2.000000        0.000000
  
  Multipole moment analysis of the density matrix
    Molecular charge:                      -1.000000
    Number of electrons:                   18.000000
      Center of electronic charge [Ang]: [ -0.000000,   0.000000,  -0.577999]
    Total nuclear charge:                  17.000000
      Center of nuclear charge [Ang]:    [ -0.000000,   0.000000,  -0.000000]
    Dipole moment [D]:                     49.972492
      Cartesian components [D]:          [  0.000000,  -0.000000,  49.972492]
    RMS size of the density [Ang]:         1.595815
      Cartesian components [Ang]:        [  1.119119,   0.827982,   0.780155]
  
  Exciton analysis of the difference density matrix
    <r_h> [Ang]:                  [ -0.000000,   0.000000,   9.411729]
    <r_e> [Ang]:                  [ -0.000000,   0.000000,  -0.480359]
    |<r_e - r_h>| [Ang]:            9.892087
    Hole size [Ang]:                1.111313
      Cartesian components [Ang]: [  0.641563,   0.641563,   0.641724]
    Electron size [Ang]:            3.386710
      Cartesian components [Ang]: [  2.140249,   2.125042,   1.540564]

  Transition density matrix analysis:
  -----------------------------------
  
  CT numbers (Mulliken)
    omega =     0.0000
    <Phe> =     0.0000
  
  Exciton analysis of the transition density matrix
    ... vanishing.

  Decomposition into state-averaged NTOs
                   omega =   0.0%
  ----------------------------------------------------------------------------


  Excited state 8 (singlet, A2)                                    [converged]
  ----------------------------------------------------------------------------
  Term symbol:  8 (1) A2                                    R^2 =  8.08370e-06

  Total energy:                                            -78.4920546645 a.u.
  Excitation energy:                                               8.002896 eV

  Osc. strength:                                                      0.000000
  Trans. dip. moment [a.u.]:           [  -0.000000,    0.000000,   -0.000000]
  <i|r^2|0> [a.u.]:                    [  -0.000000,    0.000000,    0.000000]

  Dip. moment [a.u.]:                  [   0.000000,    0.000000,  -17.002868]
  Total dipole [Debye]:                                              43.216989
  <r^2> [a.u.]:                        [  79.900754,   19.521365,  686.035123]
  Total <r^2> [a.u.]:                                               785.457241

  V1^2 = 0.9486, V2^2 = 0.0514

  Important amplitudes:
      occ i      occ j       vir a       vir b          v   
    ---------------------------------------------------------
     1 (B2) A               4 (B1) A                  0.6651
     1 (B2) A               6 (B1) A                  0.1417
    ---------------------------------------------------------

  Density matrix analysis:
  ------------------------
  NOs
    Occupation of frontier NOs:
       0.9835   0.9915
    Number of electrons: 18.000000
    Number of unpaired electrons: n_u =  2.31912, n_u,nl =  2.02602
    NO participation ratio (PR_NO):  2.747902
  
  
  Mulliken Population Analysis
  Atom      Charge (e)              h+              e-           Del q
  --------------------------------------------------------------------
   1 C       -0.328488        0.523625       -0.636279       -0.112654
   2 C       -0.328488        0.523625       -0.636279       -0.112654
   3 H        0.143832        0.099740       -0.052934        0.046806
   4 H        0.143832        0.099740       -0.052934        0.046806
   5 H        0.184654        0.088184       -0.022337        0.065848
   6 H        0.184654        0.088184       -0.022337        0.065848
   7 H       -0.999995        0.000249       -0.000248        0.000001
  --------------------------------------------------------------------
  Sum:       -1.000000        1.423346       -1.423346       -0.000000
  
  Multipole moment analysis of the density matrix
    Molecular charge:                      -1.000000
    Number of electrons:                   18.000000
      Center of electronic charge [Ang]: [ -0.000000,  -0.000000,   0.499863]
    Total nuclear charge:                  17.000000
      Center of nuclear charge [Ang]:    [ -0.000000,   0.000000,  -0.000000]
    Dipole moment [D]:                     43.216976
      Cartesian components [D]:          [  0.000000,   0.000000, -43.216976]
    RMS size of the density [Ang]:         3.459712
      Cartesian components [Ang]:        [  1.114911,   0.551087,   3.228449]
  
  Exciton analysis of the difference density matrix
    <r_h> [Ang]:                  [ -0.000000,   0.000000,  -0.602682]
    <r_e> [Ang]:                  [ -0.000000,  -0.000000,  -0.871522]
    |<r_e - r_h>| [Ang]:            0.268840
    Hole size [Ang]:                1.580401
      Cartesian components [Ang]: [  1.056648,   0.860192,   0.800770]
    Electron size [Ang]:            3.230957
      Cartesian components [Ang]: [  2.618345,   1.295313,   1.380404]

  Transition density matrix analysis:
  -----------------------------------
  
  CT numbers (Mulliken)
    omega =     0.9180
    <Phe> =    -0.0033
  
  Exciton analysis of the transition density matrix
    Trans. dipole moment [D]:             0.000000
      Cartesian components [D]:         [ -0.000000,   0.000000,  -0.000000]
    <r_h> [Ang]:                        [  0.000000,   0.000000,  -0.589273]
    <r_e> [Ang]:                        [ -0.000000,  -0.000000,  -0.992383]
    |<r_e - r_h>| [Ang]:                  0.403110
    Hole size [Ang]:                      1.255740
      Cartesian components [Ang]:       [  0.757275,   0.862324,   0.509718]
    Electron size [Ang]:                  3.744715
      Cartesian components [Ang]:       [  3.054143,   1.503663,   1.560160]
    RMS electron-hole separation [Ang]:   3.961164
      Cartesian components [Ang]:       [  3.139808,   1.725718,   1.689475]
    Covariance(r_h, r_e) [Ang^2]:         0.035725
    Correlation coefficient:              0.007597
    Center-of-mass size [Ang]:            1.979345
      Cartesian components [Ang]:       [  1.576714,   0.870504,   0.820974]

  Decomposition into state-averaged NTOs
    H- 1 -> L+ 1: -0.6769 ( 91.6%)
                   omega =  91.8%
  ----------------------------------------------------------------------------


  Excited state 9 (singlet, A2)                                    [converged]
  ----------------------------------------------------------------------------
  Term symbol:  9 (1) A2                                    R^2 =  4.19454e-10

  Total energy:                                            -78.4627445385 a.u.
  Excitation energy:                                               8.800465 eV

  Osc. strength:                                                      0.000000
  Trans. dip. moment [a.u.]:           [  -0.000000,    0.000000,    0.000000]
  <i|r^2|0> [a.u.]:                    [   0.000000,    0.000000,   -0.000000]

  Dip. moment [a.u.]:                  [  -0.000000,   -0.000000,   22.061510]
  Total dipole [Debye]:                                              56.074776
  <r^2> [a.u.]:                        [  82.006599,   33.659371,   73.226588]
  Total <r^2> [a.u.]:                                               188.892557

  V1^2 = 0.0000, V2^2 = 1.0000

  Important amplitudes:
      occ i      occ j       vir a       vir b          v   
    ---------------------------------------------------------
     5 (A1) A   5 (A1) B    6 (A1) A    2 (A2) B      0.3536
     5 (A1) A               2 (A2) A                 -0.0017
    ---------------------------------------------------------

  Density matrix analysis:
  ------------------------
  NOs
    Occupation of frontier NOs:
       1.0017   1.0249
    Number of electrons: 18.000000
    Number of unpaired electrons: n_u =  2.35630, n_u,nl =  2.04181
    NO participation ratio (PR_NO):  2.834821
  
  
  Mulliken Population Analysis
  Atom      Charge (e)              h+              e-           Del q
  --------------------------------------------------------------------
   1 C       -1.221757        0.000004       -1.005926       -1.005923
   2 C       -1.221757        0.000004       -1.005926       -1.005923
   3 H        0.106426       -0.000000        0.009400        0.009400
   4 H        0.106426       -0.000000        0.009400        0.009400
   5 H        0.115334        0.000000       -0.003472       -0.003472
   6 H        0.115334        0.000000       -0.003472       -0.003472
   7 H        0.999994        1.999990       -0.000000        1.999990
  --------------------------------------------------------------------
  Sum:       -1.000000        1.999997       -1.999997        0.000000
  
  Multipole moment analysis of the density matrix
    Molecular charge:                      -1.000000
    Number of electrons:                   18.000000
      Center of electronic charge [Ang]: [  0.000000,   0.000000,  -0.648580]
    Total nuclear charge:                  17.000000
      Center of nuclear charge [Ang]:    [ -0.000000,   0.000000,  -0.000000]
    Dipole moment [D]:                     56.074759
      Cartesian components [D]:          [ -0.000000,  -0.000000,  56.074759]
    RMS size of the density [Ang]:         1.586812
      Cartesian components [Ang]:        [  1.129508,   0.723632,   0.847667]
  
  Exciton analysis of the difference density matrix
    <r_h> [Ang]:                  [ -0.000000,   0.000000,   9.411714]
    <r_e> [Ang]:                  [  0.000000,   0.000000,  -1.115617]
    |<r_e - r_h>| [Ang]:           10.527331
    Hole size [Ang]:                1.111369
      Cartesian components [Ang]: [  0.641563,   0.641561,   0.641824]
    Electron size [Ang]:            3.313150
      Cartesian components [Ang]: [  2.188815,   1.748888,   1.768458]

  Transition density matrix analysis:
  -----------------------------------
  
  CT numbers (Mulliken)
    omega =     0.0000
    <Phe> =     0.0000
  
  Exciton analysis of the transition density matrix
    Trans. dipole moment [D]:             0.000000
      Cartesian components [D]:         [ -0.000000,   0.000000,   0.000000]
    <r_h> [Ang]:                        [ -0.000000,   0.000000,   9.412259]
    <r_e> [Ang]:                        [  0.000000,   0.000000,  -0.586751]
    |<r_e - r_h>| [Ang]:                  9.999011
    Hole size [Ang]:                      1.075115
      Cartesian components [Ang]:       [  0.620696,   0.620695,   0.620764]
    Electron size [Ang]:                  2.084943
      Cartesian components [Ang]:       [  1.422861,   1.317476,   0.765971]
    RMS electron-hole separation [Ang]:  10.270493
      Cartesian components [Ang]:       [  1.552342,   1.456362,  10.047501]
    Covariance(r_h, r_e) [Ang^2]:         0.000022
    Correlation coefficient:              0.000010
    Center-of-mass size [Ang]:            1.172914
      Cartesian components [Ang]:       [  0.776181,   0.728186,   0.492964]

  Decomposition into state-averaged NTOs
                   omega =   0.0%
  ----------------------------------------------------------------------------


  Excited state 10 (singlet, A2)                                    [converged]
  ----------------------------------------------------------------------------
  Term symbol:  10 (1) A2                                   R^2 =  3.86710e-10

  Total energy:                                            -78.4543446431 a.u.
  Excitation energy:                                               9.029038 eV

  Osc. strength:                                                      0.000000
  Trans. dip. moment [a.u.]:           [  -0.000000,    0.000000,    0.000000]
  <i|r^2|0> [a.u.]:                    [   0.000000,    0.000000,   -0.000000]

  Dip. moment [a.u.]:                  [  -0.000000,   -0.000000,   18.547706]
  Total dipole [Debye]:                                              47.143575
  <r^2> [a.u.]:                        [  90.259721,   33.143036,   61.669913]
  Total <r^2> [a.u.]:                                               185.072670

  V1^2 = 0.0000, V2^2 = 1.0000

  Important amplitudes:
      occ i      occ j       vir a       vir b          v   
    ---------------------------------------------------------
     5 (A1) A   5 (A1) B    7 (A1) A    2 (A2) B      0.3536
     5 (A1) A               2 (A2) A                 -0.0012
    ---------------------------------------------------------

  Density matrix analysis:
  ------------------------
  NOs
    Occupation of frontier NOs:
       1.0014   1.0249
    Number of electrons: 18.000000
    Number of unpaired electrons: n_u =  2.35693, n_u,nl =  2.04184
    NO participation ratio (PR_NO):  2.835415
  
  
  Mulliken Population Analysis
  Atom      Charge (e)              h+              e-           Del q
  --------------------------------------------------------------------
   1 C       -1.225178        0.000003       -1.009347       -1.009344
   2 C       -1.225178        0.000003       -1.009347       -1.009344
   3 H        0.095155        0.000000       -0.001871       -0.001871
   4 H        0.095155        0.000000       -0.001871       -0.001871
   5 H        0.130025        0.000000        0.011218        0.011218
   6 H        0.130025        0.000000        0.011218        0.011218
   7 H        0.999996        1.999992       -0.000000        1.999992
  --------------------------------------------------------------------
  Sum:       -1.000000        1.999998       -1.999998        0.000000
  
  Multipole moment analysis of the density matrix
    Molecular charge:                      -1.000000
    Number of electrons:                   18.000000
      Center of electronic charge [Ang]: [  0.000000,   0.000000,  -0.545279]
    Total nuclear charge:                  17.000000
      Center of nuclear charge [Ang]:    [ -0.000000,   0.000000,  -0.000000]
    Dipole moment [D]:                     47.143561
      Cartesian components [D]:          [ -0.000000,  -0.000000,  47.143561]
    RMS size of the density [Ang]:         1.606821
      Cartesian components [Ang]:        [  1.184982,   0.718060,   0.813682]
  
  Exciton analysis of the difference density matrix
    <r_h> [Ang]:                  [ -0.000000,  -0.000000,   9.411718]
    <r_e> [Ang]:                  [  0.000000,   0.000000,  -0.185894]
    |<r_e - r_h>| [Ang]:            9.597612
    Hole size [Ang]:                1.111360
      Cartesian components [Ang]: [  0.641565,   0.641562,   0.641805]
    Electron size [Ang]:            3.413542
      Cartesian components [Ang]: [  2.438538,   1.728095,   1.649087]

  Transition density matrix analysis:
  -----------------------------------
  
  CT numbers (Mulliken)
    omega =     0.0000
    <Phe> =     0.0000
  
  Exciton analysis of the transition density matrix
    Trans. dipole moment [D]:             0.000000
      Cartesian components [D]:         [ -0.000000,   0.000000,   0.000000]
    <r_h> [Ang]:                        [ -0.000000,   0.000000,   9.412236]
    <r_e> [Ang]:                        [  0.000000,   0.000000,  -0.588800]
    |<r_e - r_h>| [Ang]:                 10.001035
    Hole size [Ang]:                      1.078568
      Cartesian components [Ang]:       [  0.622683,   0.622683,   0.622769]
    Electron size [Ang]:                  1.971846
      Cartesian components [Ang]:       [  1.350216,   1.242586,   0.721853]
    RMS electron-hole separation [Ang]:  10.250471
      Cartesian components [Ang]:       [  1.486872,   1.389870,  10.046374]
    Covariance(r_h, r_e) [Ang^2]:         0.000021
    Correlation coefficient:              0.000010
    Center-of-mass size [Ang]:            1.123780
      Cartesian components [Ang]:       [  0.743446,   0.694940,   0.476684]

  Decomposition into state-averaged NTOs
                   omega =   0.0%
  ----------------------------------------------------------------------------


--------------------------------------------------------------------------------
  Time of ADC calculation:  CPU 97.03 s  wall 28.42 s
================================================================================
 
 --------------------------------------------------------------
             Orbital Energies (a.u.) and Symmetries
 --------------------------------------------------------------
 
 Alpha MOs, Restricted
 -- Occupied --                  
-11.184 -11.182  -0.989  -0.729  -0.607  -0.514  -0.462  -0.324
  1 A1    1 B1    2 A1    2 B1    3 A1    4 A1    3 B1    1 B2                 
  0.022
  5 A1                                                                         
 -- Virtual --                   
  0.119   0.133   0.142   0.144   0.148   0.167   0.189   0.233
  4 B1    6 A1    7 A1    2 B2    1 A2    5 B1    8 A1    2 A2                 
  0.264   0.315   0.368   0.369   0.392   0.402   0.404   0.412
  6 B1    9 A1   10 A1    7 B1   11 A1   12 A1    3 B2    8 B1                 
  0.423   0.487   0.605   0.668   0.886   0.905   0.988   1.003
  9 B1    3 A2   10 B1   11 B1   13 A1   14 A1   12 B1   15 A1                 
  1.058   1.078   1.094   1.108   1.165   1.167   1.188   1.208
 16 A1   13 B1   17 A1   18 A1    4 B2    5 B2   14 B1    4 A2                 
  1.336   1.337   1.343   1.499   1.674   1.727   1.783   1.927
 15 B1    5 A2    6 B2   16 B1   19 A1   17 B1   20 A1    6 A2                 
  1.967   1.967   1.967   1.997   2.013   2.070   2.123   2.148
 21 A1   18 B1    7 B2    8 B2   19 B1    9 B2   22 A1   23 A1                 
  2.234   2.383   2.465   2.525   2.625   2.632   2.888   2.894
  7 A2   20 B1    8 A2   24 A1   21 B1   22 B1   25 A1   26 A1                 
  3.316   3.395
 23 B1   24 B1                                                                 
 
 Beta MOs, Restricted
 -- Occupied --                  
-11.184 -11.182  -0.989  -0.729  -0.607  -0.514  -0.462  -0.324
  1 A1    1 B1    2 A1    2 B1    3 A1    4 A1    3 B1    1 B2                 
  0.022
  5 A1                                                                         
 -- Virtual --                   
  0.119   0.133   0.142   0.144   0.148   0.167   0.189   0.233
  4 B1    6 A1    7 A1    2 B2    1 A2    5 B1    8 A1    2 A2                 
  0.264   0.315   0.368   0.369   0.392   0.402   0.404   0.412
  6 B1    9 A1   10 A1    7 B1   11 A1   12 A1    3 B2    8 B1                 
  0.423   0.487   0.605   0.668   0.886   0.905   0.988   1.003
  9 B1    3 A2   10 B1   11 B1   13 A1   14 A1   12 B1   15 A1                 
  1.058   1.078   1.094   1.108   1.165   1.167   1.188   1.208
 16 A1   13 B1   17 A1   18 A1    4 B2    5 B2   14 B1    4 A2                 
  1.336   1.337   1.343   1.499   1.674   1.727   1.783   1.927
 15 B1    5 A2    6 B2   16 B1   19 A1   17 B1   20 A1    6 A2                 
  1.967   1.967   1.967   1.997   2.013   2.070   2.123   2.148
 21 A1   18 B1    7 B2    8 B2   19 B1    9 B2   22 A1   23 A1                 
  2.234   2.383   2.465   2.525   2.625   2.632   2.888   2.894
  7 A2   20 B1    8 A2   24 A1   21 B1   22 B1   25 A1   26 A1                 
  3.316   3.395
 23 B1   24 B1                                                                 
 --------------------------------------------------------------
 
          Ground-State Mulliken Net Atomic Charges

     Atom                 Charge (a.u.)
  ----------------------------------------
      1 C                    -0.200741
      2 C                    -0.200741
      3 H                     0.089466
      4 H                     0.089466
      5 H                     0.111272
      6 H                     0.111272
      7 H                    -0.999996
  ----------------------------------------
  Sum of atomic charges =    -1.000000

 -----------------------------------------------------------------
                    Cartesian Multipole Moments
 -----------------------------------------------------------------
    Charge (ESU x 10^10)
                -4.8032
    Dipole Moment (Debye)
         X      -0.0000      Y      -0.0000      Z     -45.0567
       Tot      45.0567
    Quadrupole Moments (Debye-Ang)
        XX     -16.8819     XY      -0.0000     YY     -20.1034
        XZ       0.0000     YZ      -0.0000     ZZ    -441.5431
    Octopole Moments (Debye-Ang^2)
       XXX       0.0000    XXY      -0.0000    XYY       0.0000
       YYY      -0.0000    XXZ     -29.3538    XYZ       0.0000
       YYZ     -27.6571    XZZ       0.0000    YZZ      -0.0000
       ZZZ   -4094.4390
    Hexadecapole Moments (Debye-Ang^3)
      XXXX     -74.0588   XXXY       0.0000   XXYY     -17.6103
      XYYY      -0.0000   YYYY     -27.6814   XXXZ      -0.0000
      XXYZ      -0.0000   XYYZ      -0.0000   YYYZ      -0.0000
      XXZZ    -370.1652   XYZZ      -0.0000   YYZZ    -366.8890
      XZZZ       0.0000   YZZZ      -0.0000   ZZZZ  -39848.4029
 -----------------------------------------------------------------
 Total job time:  111.16s(wall), 141.33s(cpu) 
 Sun Mar 27 19:17:18 2022

        *************************************************************
        *                                                           *
        *  Thank you very much for using Q-Chem.  Have a nice day.  *
        *                                                           *
        *************************************************************


