/src/tsommerfeld/qchem/exe/qcprog.exe .input0.777778.2950.qcin.1 /src/jdavis/qchem.scratch/qchem2950/

                  Welcome to Q-Chem
     A Quantum Leap Into The Future Of Chemistry


 Q-Chem 5.4 (devel), Q-Chem, Inc., Pleasanton, CA (2021)

 E. Epifanovsky,  A. T. B. Gilbert,  Xintian Feng,  Joonho Lee,  Yuezhi Mao,  
 N. Mardirossian,  P. Pokhilko,  A. White,  M. Wormit,  M. P. Coons,  
 A. L. Dempwolff,  Zhengting Gan,  D. Hait,  P. R. Horn,  L. D. Jacobson,  
 I. Kaliman,  J. Kussmann,  A. W. Lange,  Ka Un Lao,  D. S. Levine,  Jie Liu,  
 S. C. McKenzie,  A. F. Morrison,  K. Nanda,  F. Plasser,  D. R. Rehn,  
 M. L. Vidal,  Zhi-Qiang You,  Ying Zhu,  B. Alam,  B. Albrecht,  
 A. Aldossary,  E. Alguire,  J. H. Andersen,  D. Barton,  K. Begam,  A. Behn,  
 Y. A. Bernard,  E. J. Berquist,  H. Burton,  A. Carreras,  K. Carter-Fenk,  
 R. Chakraborty,  A. D. Chien,  K. D. Closser,  V. Cofer-Shabica,  
 S. Dasgupta,  Jia Deng,  M. de Wergifosse,  M. Diedenhofen,  Hainam Do,  
 S. Ehlert,  Po-Tung Fang,  S. Fatehi,  Qingguo Feng,  T. Friedhoff,  
 J. Gayvert,  Qinghui Ge,  G. Gidofalvi,  M. Goldey,  J. Gomes,  
 C. Gonzalez-Espinoza,  S. Gulania,  A. Gunina,  M. W. D. Hanson-Heine,  
 P. H. P. Harbach,  A. W. Hauser,  M. F. Herbst,  M. Hernandez Vera,  
 M. Hodecker,  Z. C. Holden,  S. Houck,  Xunkun Huang,  Kerwin Hui,  
 B. C. Huynh,  M. Ivanov,  Hyunjun Ji,  Hanjie Jiang,  B. Kaduk,  S. Kaehler,  
 K. Khistyaev,  Jaehoon Kim,  P. Klunzinger,  Z. Koczor-Benda,  
 Joong Hoon Koh,  D. Kosenkov,  L. Koulias,  T. Kowalczyk,  C. M. Krauter,  
 K. Kue,  A. Kunitsa,  T. Kus,  A. Landau,  K. V. Lawler,  D. Lefrancois,  
 S. Lehtola,  Rain Li,  Yi-Pei Li,  Jiashu Liang,  M. Liebenthal,  
 Hung-Hsuan Lin,  You-Sheng Lin,  Fenglai Liu,  Kuan-Yu Liu,  
 M. Loipersberger,  A. Luenser,  A. Manjanath,  P. Manohar,  E. Mansoor,  
 S. F. Manzer,  Shan-Ping Mao,  A. V. Marenich,  T. Markovich,  S. Mason,  
 S. A. Maurer,  P. F. McLaughlin,  M. F. S. J. Menger,  J.-M. Mewes,  
 S. A. Mewes,  P. Morgante,  J. W. Mullinax,  K. J. Oosterbaan,  G. Paran,  
 Alexander C. Paul,  Suranjan K. Paul,  F. Pavosevic,  Zheng Pei,  S. Prager,  
 E. I. Proynov,  E. Ramos,  B. Rana,  A. E. Rask,  A. Rettig,  R. M. Richard,  
 F. Rob,  E. Rossomme,  T. Scheele,  M. Scheurer,  M. Schneider,  
 N. Sergueev,  S. M. Sharada,  W. Skomorowski,  D. W. Small,  C. J. Stein,  
 Yu-Chuan Su,  E. J. Sundstrom,  Zhen Tao,  J. Thirman,  T. Tsuchimochi,  
 N. M. Tubman,  S. P. Veccham,  O. Vydrov,  J. Wenzel,  J. Witte,  A. Yamada,  
 Kun Yao,  S. Yeganeh,  S. R. Yost,  A. Zech,  Igor Ying Zhang,  Xing Zhang,  
 Yu Zhang,  D. Zuev,  A. Aspuru-Guzik,  A. T. Bell,  N. A. Besley,  
 K. B. Bravaya,  B. R. Brooks,  D. Casanova,  Jeng-Da Chai,  S. Coriani,  
 C. J. Cramer,  A. E. DePrince, III,  R. A. DiStasio Jr.,  A. Dreuw,  
 B. D. Dunietz,  T. R. Furlani,  W. A. Goddard III,  S. Grimme,  
 S. Hammes-Schiffer,  T. Head-Gordon,  W. J. Hehre,  Chao-Ping Hsu,  
 T.-C. Jagau,  Yousung Jung,  A. Klamt,  Jing Kong,  D. S. Lambrecht,  
 WanZhen Liang,  N. J. Mayhall,  C. W. McCurdy,  J. B. Neaton,  
 C. Ochsenfeld,  J. A. Parkhill,  R. Peverati,  V. A. Rassolov,  Yihan Shao,  
 L. V. Slipchenko,  T. Stauch,  R. P. Steele,  J. E. Subotnik,  
 A. J. W. Thom,  A. Tkatchenko,  D. G. Truhlar,  T. Van Voorhis,  
 T. A. Wesolowski,  K. B. Whaley,  H. L. Woodcock III,  P. M. Zimmerman,  
 S. Faraji,  P. M. W. Gill,  M. Head-Gordon,  J. M. Herbert,  A. I. Krylov

 Additional authors for Version 5.4.1: 
 S. Kotaru,  Shaozhi Li,  Xiangyuan Li,  F. Matz,  A. Molle,  Haisheng Ren,  
 Yingli Su,  Hung-Yi Tsai,  C. Utku,  Fang Wang

 Contributors to earlier versions of Q-Chem not listed above: 
 R. D. Adamson,  B. Austin,  R. Baer,  J. Baker,  G. J. O. Beran,  
 K. Brandhorst,  S. T. Brown,  E. F. C. Byrd,  A. K. Chakraborty,  
 G. K. L. Chan,  Chun-Min Chang,  Yunqing Chen,  C.-L. Cheng,  
 Siu Hung Chien,  D. M. Chipman,  D. L. Crittenden,  H. Dachsel,  
 R. J. Doerksen,  A. D. Dutoi,  R. G. Edgar,  J. Fosso-Tande,  
 L. Fusti-Molnar,  D. Ghosh,  A. Ghysels,  A. Golubeva-Zadorozhnaya,  
 J. Gonthier,  M. S. Gordon,  S. R. Gwaltney,  G. Hawkins,  J. E. Herr,  
 A. Heyden,  S. Hirata,  E. G. Hohenstein,  G. Kedziora,  F. J. Keil,  
 C. Kelley,  Jihan Kim,  R. A. King,  R. Z. Khaliullin,  P. P. Korambath,  
 W. Kurlancheek,  A. Laurent,  A. M. Lee,  M. S. Lee,  S. V. Levchenko,  
 Ching Yeh Lin,  D. Liotard,  E. Livshits,  R. C. Lochan,  I. Lotan,  
 L. A. Martinez-Martinez,  P. E. Maslen,  N. Nair,  D. P. O'Neill,  
 D. Neuhauser,  E. Neuscamman,  C. M. Oana,  R. Olivares-Amaya,  R. Olson,  
 T. M. Perrine,  B. Peters,  P. A. Pieniazek,  A. Prociuk,  Y. M. Rhee,  
 J. Ritchie,  M. A. Rohrdanz,  E. Rosta,  N. J. Russ,  H. F. Schaefer III,  
 M. W. Schmidt,  N. E. Schultz,  S. Sharma,  N. Shenvi,  C. D. Sherrill,  
 A. C. Simmonett,  A. Sodt,  T. Stein,  D. Stuck,  K. S. Thanthiriwatte,  
 V. Vanovschi,  L. Vogt,  Tao Wang,  A. Warshel,  M. A. Watson,  
 C. F. Williams,  Q. Wu,  X. Xu,  Jun Yang,  W. Zhang,  Yan Zhao

 Please cite Q-Chem as follows:
 Y. Shao et al., Mol. Phys. 113, 184-215 (2015)
 DOI: 10.1080/00268976.2014.952696

 Q-Chem 5.4.1 for Intel X86 EM64T Linux

 Parts of Q-Chem use Armadillo 9.900.5 (Nocturnal Misbehaviour).
 http://arma.sourceforge.net/

 Q-Chem begins on Sun Mar 27 18:39:23 2022  

 Host: node01
0

     Scratch files written to /src/jdavis/qchem.scratch/qchem2950//
 Processing $rem in /src/tsommerfeld/qchem/config/preferences:
 Processing $rem in /home/jdavis/.qchemrc:

 Checking the input file for inconsistencies... 	...done.

--------------------------------------------------------------
User input:
--------------------------------------------------------------
$molecule
-1 1
C        -0.6645000000    0.0000000000   -0.1764707059
C         0.6645000000    0.0000000000   -0.1764707059
H        -1.1590800000    0.0000000000    0.7858782941
H         1.1590800000    0.0000000000    0.7858782941
H        -1.1590800000    0.0000000000   -1.1388187059
H         1.1590800000    0.0000000000   -1.1388187059
H         0.0000000000    0.0000000000  -10.1764707059
$end

$rem
   METHOD adc(2)
   BASIS gen
   PURECART 11
   EE_STATES [0,10,0,0]
   scf_convergence 8
   ADC_DAVIDSON_MAXITER 120
   ADC_DAVIDSON_MAXSUBSPACE 200
   adc_nguess_singles 100
   THRESH 14
   S2THRESH 14
   adc_davidson_conv 5
   adc_davidson_thresh 14
   THREADS 10
   MEM_TOTAL 95000
   STATE_ANALYSIS TRUE
$end
$basis
C 1
S   9   1.00
      6.665000D+03           6.920000D-04
      1.000000D+03           5.329000D-03
      2.280000D+02           2.707700D-02
      6.471000D+01           1.017180D-01
      2.106000D+01           2.747400D-01
      7.495000D+00           4.485640D-01
      2.797000D+00           2.850740D-01
      5.215000D-01           1.520400D-02
      1.596000D-01          -3.191000D-03
S   9   1.00
      6.665000D+03          -1.460000D-04
      1.000000D+03          -1.154000D-03
      2.280000D+02          -5.725000D-03
      6.471000D+01          -2.331200D-02
      2.106000D+01          -6.395500D-02
      7.495000D+00          -1.499810D-01
      2.797000D+00          -1.272620D-01
      5.215000D-01           5.445290D-01
      1.596000D-01           5.804960D-01
S   1   1.00
      1.596000D-01           1.000000D+00
S   1   1.00
      0.0469000              1.0000000
P   4   1.00
      9.439000D+00           3.810900D-02
      2.002000D+00           2.094800D-01
      5.456000D-01           5.085570D-01
      1.517000D-01           4.688420D-01
P   1   1.00
      1.517000D-01           1.000000D+00
P   1   1.00
      0.0471956      1.0000000
P   1   1.00
      0.0235978      1.0000000
D   1   1.00
      5.500000D-01           1.0000000
****
C 2
S   9   1.00
      6.665000D+03           6.920000D-04
      1.000000D+03           5.329000D-03
      2.280000D+02           2.707700D-02
      6.471000D+01           1.017180D-01
      2.106000D+01           2.747400D-01
      7.495000D+00           4.485640D-01
      2.797000D+00           2.850740D-01
      5.215000D-01           1.520400D-02
      1.596000D-01          -3.191000D-03
S   9   1.00
      6.665000D+03          -1.460000D-04
      1.000000D+03          -1.154000D-03
      2.280000D+02          -5.725000D-03
      6.471000D+01          -2.331200D-02
      2.106000D+01          -6.395500D-02
      7.495000D+00          -1.499810D-01
      2.797000D+00          -1.272620D-01
      5.215000D-01           5.445290D-01
      1.596000D-01           5.804960D-01
S   1   1.00
      1.596000D-01           1.000000D+00
S   1   1.00
      0.0469000              1.0000000
P   4   1.00
      9.439000D+00           3.810900D-02
      2.002000D+00           2.094800D-01
      5.456000D-01           5.085570D-01
      1.517000D-01           4.688420D-01
P   1   1.00
      1.517000D-01           1.000000D+00
P   1   1.00
      0.0471956      1.0000000
P   1   1.00
      0.0235978      1.0000000
D   1   1.00
      5.500000D-01           1.0000000
****
H 3
cc-pVDZ
****
H 4
cc-pVDZ
****
H 5
cc-pVDZ
****
H 6
cc-pVDZ
****
H 7
aug-cc-pVDZ
****
$end
--------------------------------------------------------------
 ----------------------------------------------------------------
             Standard Nuclear Orientation (Angstroms)
    I     Atom           X                Y                Z
 ----------------------------------------------------------------
    1      C      -0.6645000000     0.0000000000    -0.5882351765
    2      C       0.6645000000    -0.0000000000    -0.5882351765
    3      H      -1.1590800000     0.0000000000    -1.5505841765
    4      H       1.1590800000    -0.0000000000    -1.5505841765
    5      H      -1.1590800000     0.0000000000     0.3741128235
    6      H       1.1590800000    -0.0000000000     0.3741128235
    7      H       0.0000000000     0.0000000000     9.4117648235
 ----------------------------------------------------------------
 Molecular Point Group                 C2v   NOp =  4
 Largest Abelian Subgroup              C2v   NOp =  4
 Nuclear Repulsion Energy =          34.43499495 hartrees
 There are        9 alpha and        9 beta electrons
 Requested basis set is non-standard
 There are 33 shells and 67 basis functions
 Total memory of 95000 MB is distributed as follows: 
   MEM_STATIC is set to 192 MB
   QALLOC/CCMAN JOB total memory use is  94808 MB
 Warning: actual memory use might exceed 95000 MB

 Total QAlloc Memory Limit  95000 MB
 Mega-Array Size       188 MB
 MEM_STATIC part       192 MB

                       Distance Matrix (Angstroms)
             C (  1)   C (  2)   H (  3)   H (  4)   H (  5)   H (  6)
   C (  2)  1.329000
   H (  3)  1.082000  2.061931
   H (  4)  2.061931  1.082000  2.318160
   H (  5)  1.082000  2.061931  1.924697  3.013026
   H (  6)  2.061931  1.082000  3.013026  1.924697  2.318160
   H (  7) 10.022054 10.022054 11.023455 11.023455  9.111675  9.111675

 
 A cutoff of  1.0D-14 yielded    505 shell pairs
 There are      2121 function pairs (      2258 Cartesian)
 Smallest overlap matrix eigenvalue = 1.73E-04

 Scale SEOQF with 1.000000e-01/1.000000e-01/1.000000e-02

 Standard Electronic Orientation quadrupole field applied
 Nucleus-field energy     =    -0.0000000007 hartrees
 ================ Generating on-the-fly SAD Guess ================
Attempting to make child job directory: /src/jdavis/qchem.scratch/qchem2950//Frg1/
Attempting to make child job directory: /src/jdavis/qchem.scratch/qchem2950//Frg2/
Creating input file /src/jdavis/qchem.scratch/qchem2950/Frg1.input
using default PutDataFrgm: nothing
calling putenv with: QCSCRATCH=/src/jdavis/qchem.scratch/qchem2950/ 
Spawning Job For Fragment 0
Done Job For Fragment 0
calling putenv with: QCSCRATCH=/src/jdavis/qchem.scratch 
calling putenv with: QCTHREADS=1 
Creating input file /src/jdavis/qchem.scratch/qchem2950/Frg2.input
using default PutDataFrgm: nothing
calling putenv with: QCSCRATCH=/src/jdavis/qchem.scratch/qchem2950/ 
Spawning Job For Fragment 1
Done Job For Fragment 1
calling putenv with: QCSCRATCH=/src/jdavis/qchem.scratch 
calling putenv with: QCTHREADS=1 
 Time for running child jobs:  CPU 1.77 s  wall 54.39 s
 ============= Method Specific SAD Guess Constructed =============
 Guess from on-the-fly superposition of atomic densities
 Warning: Energy on first SCF cycle will be non-variational
 A restricted Hartree-Fock SCF calculation will be
 performed using Pulay DIIS extrapolation
 SCF converges when DIIS error is below 1.0E-08
 using 10 threads for integral computing
 -------------------------------------------------------
 OpenMP Integral computing Module                
 Release: version 1.0, May 2013, Q-Chem Inc. Pittsburgh 
 -------------------------------------------------------
 ---------------------------------------
  Cycle       Energy         DIIS Error
 ---------------------------------------
    1     -78.7999121384      7.36E-02
    2     -78.4466869936      6.48E-03
    3     -78.4847441100      1.48E-03
    4     -78.4866809010      4.77E-04
    5     -78.4868560766      7.32E-05
    6     -78.4868651290      1.28E-05
    7     -78.4868658813      4.11E-06
    8     -78.4868660871      1.31E-06
    9     -78.4868661373      5.92E-07
   10     -78.4868661496      1.19E-07
   11     -78.4868661499      1.30E-08
   12     -78.4868661499      1.48E-09 Convergence criterion met
 ---------------------------------------
 SCF time:  CPU 10.94 s  wall 1.10 s
 SCF   energy in the final basis set = -78.48686615
 Total energy in the final basis set = -78.48686615
================================================================================
|                                                                              |
|                                 A D C  M A N                                 |
|                                                                              |
 ------------------------------------------------------------------------------ 
|                                                                              |
| Components:                                                                  |
|                                                                              |
| - libvmm - 1.3-trunk                                                         |
|   Authors:                                                                   |
|   Evgeny Epifanovsky, Ilya Kaliman                                           |
|                                                                              |
| - libtensor - 2.5-trunk                                                      |
|   Authors:                                                                   |
|   Evgeny Epifanovsky, Michael Wormit, Dmitry Zuev, Sam Manzer,               |
|   Ilya Kaliman                                                               |
|                                                                              |
| - libwfa - 1.1-trunk                                                         |
|   Authors:                                                                   |
|   Felix Plasser, Stefanie Mewes (Baeppler), Benjamin Thomitzni,              |
|   Michael Wormit, Feng Chen, Anna I. Krylov, Pavel Pokhilko                  |
|                                                                              |
| - libadc - 1.1-trunk                                                         |
|   Authors:                                                                   |
|   Michael Wormit, Adrian L. Dempwolff, Philipp H. P. Harbach,                |
|   Caroline Krauter, Dirk Rehn, Matthias Schneider, Jan Wenzel                |
|                                                                              |
| - adcman - 2.6-trunk                                                         |
|   Authors:                                                                   |
|   Michael Wormit, Adrian L. Dempwolff, Philipp H. P. Harbach,                |
|   Caroline Krauter, Daniel Lefrancois, Jan-Michael Mewes, Dirk Rehn,         |
|   Matthias Schneider, Jan Wenzel, Andreas Dreuw                              |
|                                                                              |
| Authors of earlier versions of ADCMAN:                                       |
| Andreas Dreuw, Jan Hendrik Starcke, Dirk Rehn, Michael Wormit                |
|                                                                              |
================================================================================

 
 Alpha MOs, Restricted
 -- Occupied --                  
-11.184 -11.182  -0.989  -0.729  -0.607  -0.514  -0.462  -0.324
  1 A1    1 B1    2 A1    2 B1    3 A1    4 A1    3 B1    1 B2                 
  0.021
  5 A1                                                                         
 -- Virtual --                   
  0.094   0.104   0.105   0.117   0.118   0.124   0.160   0.191
  4 B1    6 A1    2 B2    1 A2    7 A1    5 B1    8 A1    2 A2                 
  0.228   0.250   0.265   0.273   0.279   0.285   0.319   0.350
  6 B1    9 A1    7 B1    3 B2   10 A1    8 B1   11 A1    3 A2                 
  0.396   0.403   0.550   0.589   0.781   0.869   0.916   0.946
 12 A1    9 B1   10 B1   11 B1   13 A1   14 A1   15 A1   16 A1                 
  0.967   0.984   1.018   1.033   1.057   1.084   1.117   1.167
  4 B2   12 B1    4 A2   13 B1   17 A1   18 A1   14 B1    5 B2                 
  1.337   1.337   1.378   1.400   1.662   1.668   1.756   1.907
  6 B2    5 A2   15 B1   16 B1   19 A1   17 B1   20 A1    6 A2                 
  1.966   1.966   1.966   1.966   1.992   2.055   2.070   2.107
 21 A1   18 B1    7 B2   19 B1    8 B2   22 A1    9 B2   23 A1                 
  2.226   2.363   2.465   2.500   2.615   2.623   2.851   2.857
  7 A2   20 B1    8 A2   24 A1   21 B1   22 B1   25 A1   26 A1                 
  3.301   3.393
 23 B1   24 B1                                                                 
 
 Beta MOs, Restricted
 -- Occupied --                  
-11.184 -11.182  -0.989  -0.729  -0.607  -0.514  -0.462  -0.324
  1 A1    1 B1    2 A1    2 B1    3 A1    4 A1    3 B1    1 B2                 
  0.021
  5 A1                                                                         
 -- Virtual --                   
  0.094   0.104   0.105   0.117   0.118   0.124   0.160   0.191
  4 B1    6 A1    2 B2    1 A2    7 A1    5 B1    8 A1    2 A2                 
  0.228   0.250   0.265   0.273   0.279   0.285   0.319   0.350
  6 B1    9 A1    7 B1    3 B2   10 A1    8 B1   11 A1    3 A2                 
  0.396   0.403   0.550   0.589   0.781   0.869   0.916   0.946
 12 A1    9 B1   10 B1   11 B1   13 A1   14 A1   15 A1   16 A1                 
  0.967   0.984   1.018   1.033   1.057   1.084   1.117   1.167
  4 B2   12 B1    4 A2   13 B1   17 A1   18 A1   14 B1    5 B2                 
  1.337   1.337   1.378   1.400   1.662   1.668   1.756   1.907
  6 B2    5 A2   15 B1   16 B1   19 A1   17 B1   20 A1    6 A2                 
  1.966   1.966   1.966   1.966   1.992   2.055   2.070   2.107
 21 A1   18 B1    7 B2   19 B1    8 B2   22 A1    9 B2   23 A1                 
  2.226   2.363   2.465   2.500   2.615   2.623   2.851   2.857
  7 A2   20 B1    8 A2   24 A1   21 B1   22 B1   25 A1   26 A1                 
  3.301   3.393
 23 B1   24 B1                                                                 

--------------------------------------------------------------------------------
                                   HF Summary                                   
--------------------------------------------------------------------------------
  Energy:                                                  -78.4868661499 a.u.
  Dip. moment [a.u.]:                  [   0.000000,   -0.000000,  -17.683406]
  Total dipole [Debye]:                                              44.946743
  <r^2> [a.u.]:                        [  50.712403,   14.965230,  676.956506]
  Total <r^2> [a.u.]:                                               742.634139
--------------------------------------------------------------------------------

--------------------------------------------------------------------------------
                                 MP(2) Summary                                  
--------------------------------------------------------------------------------
  MP energy contribution:                                   -0.2979127992 a.u.
  Total energy:                                            -78.7847789491 a.u.
  Dip. moment [a.u.]:                  [   0.000000,   -0.000000,  -17.677635]
  Total dipole [Debye]:                                              44.932075
  <r^2> [a.u.]:                        [  50.781339,   14.778241,  676.871310]
  Total <r^2> [a.u.]:                                               742.430891

  Density matrix analysis:
  ------------------------
  NOs
    Occupation of frontier NOs:
       0.0447   1.9372
    Number of electrons: 18.000000
    Number of unpaired electrons: n_u =  0.43181, n_u,nl =  0.04668
    NO participation ratio (PR_NO): 15.331869
  
  
  Mulliken Population Analysis
  Atom      Charge (e)              h+              e-           Del q
  --------------------------------------------------------------------
   1 C       -0.173722        0.088094       -0.102589       -0.014495
   2 C       -0.173722        0.088094       -0.102589       -0.014495
   3 H        0.075769        0.017776       -0.010568        0.007209
   4 H        0.075769        0.017776       -0.010568        0.007209
   5 H        0.096542        0.017449       -0.010302        0.007147
   6 H        0.096542        0.017449       -0.010302        0.007147
   7 H       -0.997179        0.022231       -0.021952        0.000279
  --------------------------------------------------------------------
  Sum:       -1.000000        0.268870       -0.268870       -0.000000
  
  Multipole moment analysis of the density matrix
    Molecular charge:                      -1.000000
    Number of electrons:                   18.000000
      Center of electronic charge [Ang]: [ -0.000000,   0.000000,   0.519700]
    Total nuclear charge:                  17.000000
      Center of nuclear charge [Ang]:    [ -0.000000,   0.000000,  -0.000000]
    Dipole moment [D]:                     44.932062
      Cartesian components [D]:          [  0.000000,  -0.000000, -44.932062]
    RMS size of the density [Ang]:         3.358573
      Cartesian components [Ang]:        [  0.888826,   0.479486,   3.203138]
  
  Exciton analysis of the difference density matrix
    <r_h> [Ang]:                  [ -0.000000,   0.000000,   0.235554]
    <r_e> [Ang]:                  [  0.000000,   0.000000,   0.224196]
    |<r_e - r_h>| [Ang]:            0.011358
    Hole size [Ang]:                3.104986
      Cartesian components [Ang]: [  0.960344,   0.757863,   2.853825]
    Electron size [Ang]:            3.071559
      Cartesian components [Ang]: [  0.997024,   0.616123,   2.839156]
--------------------------------------------------------------------------------
Less singles guess vectors found than requested: 85 (found), 100 (requested).
Adjusting number of doubles guess vectors to 15.
  Starting Davidson for singlet states of irrep A2 ... 
--------------------------------------------------------------------------------
   It NVec Conv  Avg. Norm  Max. Norm  Conv. states           Remark
--------------------------------------------------------------------------------
       100    0  3.444e-02  3.065e-01  0.0612 n n n n n n n n Guess.
    1  110    1  2.790e-03  2.217e-02  0.0390 n n y n n n n n 
    2  120    6  3.082e-05  2.898e-04  0.0390 n n y y y y y n 
    3  130    9  2.944e-06  2.898e-05  0.0390 y y y y y y y n 
    4  140   10  1.316e-07  1.297e-06  0.0390 y y y y y y y y Converged.
--------------------------------------------------------------------------------
  Davidson Summary: 
 ------------------------------------------------------------
  State  0: excitation energy =   0.0390 a.u.   (converged)
  State  1: excitation energy =   0.0819 a.u.   (converged)
  State  2: excitation energy =   0.1571 a.u.   (converged)
  State  3: excitation energy =   0.1811 a.u.   (converged)
  State  4: excitation energy =   0.1873 a.u.   (converged)
  State  5: excitation energy =   0.1932 a.u.   (converged)
  State  6: excitation energy =   0.2344 a.u.   (converged)
  State  7: excitation energy =   0.2383 a.u.   (converged)
  State  8: excitation energy =   0.2552 a.u.   (converged)
  State  9: excitation energy =   0.2671 a.u.   (converged)
 ------------------------------------------------------------


--------------------------------------------------------------------------------
                   State-averaged natural transition orbitals
--------------------------------------------------------------------------------
--------------------------------------------------------------------------------

--------------------------------------------------------------------------------
                             Excited State Summary
--------------------------------------------------------------------------------
--------------------------------------------------------------------------------

  Excited state 1 (singlet, A2)                                    [converged]
  ----------------------------------------------------------------------------
  Term symbol:  1 (1) A2                                    R^2 =  2.22027e-08

  Total energy:                                            -78.7457591859 a.u.
  Excitation energy:                                               1.061782 eV

  Osc. strength:                                                      0.000000
  Trans. dip. moment [a.u.]:           [   0.000000,    0.000000,    0.000000]
  <i|r^2|0> [a.u.]:                    [  -0.000000,   -0.000000,   -0.000000]

  Dip. moment [a.u.]:                  [   0.000000,   -0.000000,    1.259595]
  Total dipole [Debye]:                                               3.201571
  <r^2> [a.u.]:                        [  81.879808,   44.983478,  369.779698]
  Total <r^2> [a.u.]:                                               496.642984

  V1^2 = 0.9636, V2^2 = 0.0364

  Important amplitudes:
      occ i      occ j       vir a       vir b          v   
    ---------------------------------------------------------
     5 (A1) A               1 (A2) A                 -0.6794
     5 (A1) A               2 (A2) A                 -0.1376
    ---------------------------------------------------------

  Density matrix analysis:
  ------------------------
  NOs
    Occupation of frontier NOs:
       0.9955   1.0011
    Number of electrons: 18.000000
    Number of unpaired electrons: n_u =  2.41160, n_u,nl =  2.04632
    NO participation ratio (PR_NO):  2.906791
  
  
  Mulliken Population Analysis
  Atom      Charge (e)              h+              e-           Del q
  --------------------------------------------------------------------
   1 C       -0.649890        0.046516       -0.522685       -0.476169
   2 C       -0.649890        0.046516       -0.522685       -0.476169
   3 H        0.069405        0.001968       -0.008332       -0.006364
   4 H        0.069405        0.001968       -0.008332       -0.006364
   5 H        0.077171        0.001331       -0.020702       -0.019371
   6 H        0.077171        0.001331       -0.020702       -0.019371
   7 H        0.006628        1.026134       -0.022327        1.003806
  --------------------------------------------------------------------
  Sum:       -1.000000        1.125765       -1.125765        0.000000
  
  Multipole moment analysis of the density matrix
    Molecular charge:                      -1.000000
    Number of electrons:                   18.000000
      Center of electronic charge [Ang]: [ -0.000000,   0.000000,  -0.037030]
    Total nuclear charge:                  17.000000
      Center of nuclear charge [Ang]:    [ -0.000000,   0.000000,  -0.000000]
    Dipole moment [D]:                     3.201570
      Cartesian components [D]:          [  0.000000,  -0.000000,   3.201570]
    RMS size of the density [Ang]:         2.779384
      Cartesian components [Ang]:        [  1.128634,   0.836549,   2.398196]
  
  Exciton analysis of the difference density matrix
    <r_h> [Ang]:                  [  0.000000,   0.000000,   8.534022]
    <r_e> [Ang]:                  [ -0.000000,   0.000000,  -0.367613]
    |<r_e - r_h>| [Ang]:            8.901634
    Hole size [Ang]:                3.147815
      Cartesian components [Ang]: [  0.787905,   0.764283,   2.950223]
    Electron size [Ang]:            4.632991
      Cartesian components [Ang]: [  2.890741,   2.845616,   2.238457]

  Transition density matrix analysis:
  -----------------------------------
  
  CT numbers (Mulliken)
    omega =     0.9552
    <Phe> =     0.0002
  
  Exciton analysis of the transition density matrix
    Trans. dipole moment [D]:             0.000000
      Cartesian components [D]:         [  0.000000,   0.000000,   0.000000]
    <r_h> [Ang]:                        [ -0.000000,   0.000000,   9.398287]
    <r_e> [Ang]:                        [ -0.000000,   0.000000,  -0.588208]
    |<r_e - r_h>| [Ang]:                  9.986495
    Hole size [Ang]:                      1.180048
      Cartesian components [Ang]:       [  0.646011,   0.645440,   0.747389]
    Electron size [Ang]:                  4.595421
      Cartesian components [Ang]:       [  3.030428,   2.991363,   1.728046]
    RMS electron-hole separation [Ang]:  11.056237
      Cartesian components [Ang]:       [  3.098506,   3.060200,  10.162421]
    Covariance(r_h, r_e) [Ang^2]:         0.000055
    Correlation coefficient:              0.000010
    Center-of-mass size [Ang]:            2.372262
      Cartesian components [Ang]:       [  1.549267,   1.530104,   0.941373]

  Decomposition into state-averaged NTOs
    H- 0 -> L+ 0:  0.5989 ( 71.7%)
    H- 0 -> L+ 1:  0.2789 ( 15.6%)
    H- 0 -> L+ 2: -0.2028 (  8.2%)
                   omega =  95.5%
  ----------------------------------------------------------------------------


  Excited state 2 (singlet, A2)                                    [converged]
  ----------------------------------------------------------------------------
  Term symbol:  2 (1) A2                                    R^2 =  8.87796e-08

  Total energy:                                            -78.7028359887 a.u.
  Excitation energy:                                               2.229781 eV

  Osc. strength:                                                      0.000000
  Trans. dip. moment [a.u.]:           [   0.000000,   -0.000000,   -0.000000]
  <i|r^2|0> [a.u.]:                    [  -0.000000,   -0.000000,    0.000000]

  Dip. moment [a.u.]:                  [  -0.000000,    0.000000,    1.221378]
  Total dipole [Debye]:                                               3.104433
  <r^2> [a.u.]:                        [  67.189894,   29.711587,  366.090982]
  Total <r^2> [a.u.]:                                               462.992464

  V1^2 = 0.9407, V2^2 = 0.0593

  Important amplitudes:
      occ i      occ j       vir a       vir b          v   
    ---------------------------------------------------------
     5 (A1) A               2 (A2) A                  0.6587
     5 (A1) A               1 (A2) A                 -0.1489
    ---------------------------------------------------------

  Density matrix analysis:
  ------------------------
  NOs
    Occupation of frontier NOs:
       0.9904   1.0001
    Number of electrons: 18.000000
    Number of unpaired electrons: n_u =  2.41477, n_u,nl =  2.04335
    NO participation ratio (PR_NO):  2.927342
  
  
  Mulliken Population Analysis
  Atom      Charge (e)              h+              e-           Del q
  --------------------------------------------------------------------
   1 C       -0.564870        0.155174       -0.546321       -0.391148
   2 C       -0.564870        0.155174       -0.546321       -0.391148
   3 H        0.026453        0.005794       -0.055110       -0.049316
   4 H        0.026453        0.005794       -0.055110       -0.049316
   5 H        0.036212        0.005111       -0.065442       -0.060330
   6 H        0.036212        0.005111       -0.065442       -0.060330
   7 H        0.004409        1.021240       -0.019652        1.001588
  --------------------------------------------------------------------
  Sum:       -1.000000        1.353398       -1.353398        0.000000
  
  Multipole moment analysis of the density matrix
    Molecular charge:                      -1.000000
    Number of electrons:                   18.000000
      Center of electronic charge [Ang]: [  0.000000,  -0.000000,  -0.035907]
    Total nuclear charge:                  17.000000
      Center of nuclear charge [Ang]:    [ -0.000000,   0.000000,  -0.000000]
    Dipole moment [D]:                     3.104432
      Cartesian components [D]:          [ -0.000000,   0.000000,   3.104432]
    RMS size of the density [Ang]:         2.683570
      Cartesian components [Ang]:        [  1.022391,   0.679873,   2.386219]
  
  Exciton analysis of the difference density matrix
    <r_h> [Ang]:                  [  0.000000,   0.000000,   6.962576]
    <r_e> [Ang]:                  [  0.000000,  -0.000000,  -0.426920]
    |<r_e - r_h>| [Ang]:            7.389496
    Hole size [Ang]:                4.505194
      Cartesian components [Ang]: [  0.813836,   0.723855,   4.371553]
    Electron size [Ang]:            3.282376
      Cartesian components [Ang]: [  2.014295,   1.900998,   1.761481]

  Transition density matrix analysis:
  -----------------------------------
  
  CT numbers (Mulliken)
    omega =     0.9232
    <Phe> =     0.0000
  
  Exciton analysis of the transition density matrix
    Trans. dipole moment [D]:             0.000000
      Cartesian components [D]:         [  0.000000,  -0.000000,  -0.000000]
    <r_h> [Ang]:                        [ -0.000000,   0.000000,   9.398322]
    <r_e> [Ang]:                        [ -0.000000,  -0.000000,  -0.588106]
    |<r_e - r_h>| [Ang]:                  9.986428
    Hole size [Ang]:                      1.179627
      Cartesian components [Ang]:       [  0.645853,   0.645283,   0.746997]
    Electron size [Ang]:                  3.326291
      Cartesian components [Ang]:       [  2.211869,   2.148288,   1.247678]
    RMS electron-hole separation [Ang]:  10.591709
      Cartesian components [Ang]:       [  2.304201,   2.243103,  10.091752]
    Covariance(r_h, r_e) [Ang^2]:         0.000086
    Correlation coefficient:              0.000022
    Center-of-mass size [Ang]:            1.764646
      Cartesian components [Ang]:       [  1.152133,   1.121556,   0.727102]

  Decomposition into state-averaged NTOs
    H- 0 -> L+ 2:  0.4726 ( 44.7%)
    H- 0 -> L+ 1: -0.3512 ( 24.7%)
    H- 0 -> L+ 0:  0.3389 ( 23.0%)
                   omega =  92.3%
  ----------------------------------------------------------------------------


  Excited state 3 (singlet, A2)                                    [converged]
  ----------------------------------------------------------------------------
  Term symbol:  3 (1) A2                                    R^2 =  1.23854e-11

  Total energy:                                            -78.6277224998 a.u.
  Excitation energy:                                               4.273723 eV

  Osc. strength:                                                      0.000000
  Trans. dip. moment [a.u.]:           [   0.000000,    0.000000,   -0.000000]
  <i|r^2|0> [a.u.]:                    [  -0.000000,   -0.000000,   -0.000000]

  Dip. moment [a.u.]:                  [  -0.000000,    0.000000,   22.730199]
  Total dipole [Debye]:                                              57.774414
  <r^2> [a.u.]:                        [ 113.608886,   74.841144,   86.052324]
  Total <r^2> [a.u.]:                                               274.502354

  V1^2 = 0.0000, V2^2 = 1.0000

  Important amplitudes:
      occ i      occ j       vir a       vir b          v   
    ---------------------------------------------------------
     5 (A1) A   5 (A1) B    4 (B1) A    2 (B2) B      0.3536
     5 (A1) A               1 (A2) A                 -0.0015
    ---------------------------------------------------------

  Density matrix analysis:
  ------------------------
  NOs
    Occupation of frontier NOs:
       1.0004   1.0007
    Number of electrons: 18.000000
    Number of unpaired electrons: n_u =  2.40673, n_u,nl =  2.04918
    NO participation ratio (PR_NO):  2.880748
  
  
  Mulliken Population Analysis
  Atom      Charge (e)              h+              e-           Del q
  --------------------------------------------------------------------
   1 C       -1.149041        0.001174       -0.976493       -0.975319
   2 C       -1.149041        0.001174       -0.976493       -0.975319
   3 H        0.050767        0.000046       -0.025049       -0.025002
   4 H        0.050767        0.000046       -0.025049       -0.025002
   5 H        0.098137        0.000051        0.001544        0.001595
   6 H        0.098137        0.000051        0.001544        0.001595
   7 H        1.000273        1.997452       -0.000000        1.997452
  --------------------------------------------------------------------
  Sum:       -1.000000        1.999994       -1.999994        0.000000
  
  Multipole moment analysis of the density matrix
    Molecular charge:                      -1.000000
    Number of electrons:                   18.000000
      Center of electronic charge [Ang]: [  0.000000,  -0.000000,  -0.668239]
    Total nuclear charge:                  17.000000
      Center of nuclear charge [Ang]:    [ -0.000000,   0.000000,  -0.000000]
    Dipole moment [D]:                     57.774397
      Cartesian components [D]:          [ -0.000000,   0.000000,  57.774397]
    RMS size of the density [Ang]:         1.955487
      Cartesian components [Ang]:        [  1.329447,   1.079034,   0.944555]
  
  Exciton analysis of the difference density matrix
    <r_h> [Ang]:                  [ -0.000000,   0.000000,   9.400148]
    <r_e> [Ang]:                  [  0.000000,  -0.000000,  -1.291334]
    |<r_e - r_h>| [Ang]:           10.691482
    Hole size [Ang]:                1.171413
      Cartesian components [Ang]: [  0.645820,   0.645331,   0.733944]
    Electron size [Ang]:            4.748746
      Cartesian components [Ang]: [  3.035434,   2.970882,   2.123816]

  Transition density matrix analysis:
  -----------------------------------
  
  CT numbers (Mulliken)
    omega =     0.0000
    <Phe> =     0.0018
  
  Exciton analysis of the transition density matrix
    Trans. dipole moment [D]:             0.000000
      Cartesian components [D]:         [  0.000000,   0.000000,  -0.000000]
    <r_h> [Ang]:                        [ -0.000000,   0.000000,   9.370348]
    <r_e> [Ang]:                        [ -0.000000,  -0.000000,  -0.588962]
    |<r_e - r_h>| [Ang]:                  9.959310
    Hole size [Ang]:                      1.331711
      Cartesian components [Ang]:       [  0.666531,   0.657953,   0.946725]
    Electron size [Ang]:                  5.513662
      Cartesian components [Ang]:       [  3.620248,   3.601244,   2.079739]
    RMS electron-hole separation [Ang]:  11.461422
      Cartesian components [Ang]:       [  3.684630,   3.659396,  10.217461]
    Covariance(r_h, r_e) [Ang^2]:        -0.001205
    Correlation coefficient:             -0.000164
    Center-of-mass size [Ang]:            2.835997
      Cartesian components [Ang]:       [  1.838778,   1.831157,   1.143958]

  Decomposition into state-averaged NTOs
                   omega =   0.0%
  ----------------------------------------------------------------------------


  Excited state 4 (singlet, A2)                                    [converged]
  ----------------------------------------------------------------------------
  Term symbol:  4 (1) A2                                    R^2 =  7.49620e-09

  Total energy:                                            -78.6036669012 a.u.
  Excitation energy:                                               4.928309 eV

  Osc. strength:                                                      0.000000
  Trans. dip. moment [a.u.]:           [   0.000000,   -0.000000,   -0.000000]
  <i|r^2|0> [a.u.]:                    [  -0.000000,   -0.000000,    0.000000]

  Dip. moment [a.u.]:                  [   0.000000,    0.000000,   20.558414]
  Total dipole [Debye]:                                              52.254285
  <r^2> [a.u.]:                        [ 103.025399,   64.373902,  104.692707]
  Total <r^2> [a.u.]:                                               272.092008

  V1^2 = 0.0129, V2^2 = 0.9871

  Important amplitudes:
      occ i      occ j       vir a       vir b          v   
    ---------------------------------------------------------
     5 (A1) A   5 (A1) B    6 (A1) A    1 (A2) B      0.3510
     5 (A1) A               1 (A2) A                 -0.0799
    ---------------------------------------------------------

  Density matrix analysis:
  ------------------------
  NOs
    Occupation of frontier NOs:
       1.0010   1.0013
    Number of electrons: 18.000000
    Number of unpaired electrons: n_u =  2.40428, n_u,nl =  2.04858
    NO participation ratio (PR_NO):  2.878783
  
  
  Mulliken Population Analysis
  Atom      Charge (e)              h+              e-           Del q
  --------------------------------------------------------------------
   1 C       -1.140349        0.000397       -0.967024       -0.966628
   2 C       -1.140349        0.000397       -0.967024       -0.966628
   3 H        0.060254        0.000040       -0.015556       -0.015515
   4 H        0.060254        0.000040       -0.015556       -0.015515
   5 H        0.083345       -0.000008       -0.013188       -0.013196
   6 H        0.083345       -0.000008       -0.013188       -0.013196
   7 H        0.993500        1.990897       -0.000218        1.990679
  --------------------------------------------------------------------
  Sum:       -1.000000        1.991755       -1.991755        0.000000
  
  Multipole moment analysis of the density matrix
    Molecular charge:                      -1.000000
    Number of electrons:                   18.000000
      Center of electronic charge [Ang]: [ -0.000000,  -0.000000,  -0.604391]
    Total nuclear charge:                  17.000000
      Center of nuclear charge [Ang]:    [ -0.000000,   0.000000,  -0.000000]
    Dipole moment [D]:                     52.254270
      Cartesian components [D]:          [  0.000000,   0.000000,  52.254270]
    RMS size of the density [Ang]:         1.966643
      Cartesian components [Ang]:        [  1.266010,   1.000737,   1.124024]
  
  Exciton analysis of the difference density matrix
    <r_h> [Ang]:                  [ -0.000000,   0.000000,   9.407395]
    <r_e> [Ang]:                  [ -0.000000,   0.000000,  -0.751306]
    |<r_e - r_h>| [Ang]:           10.158701
    Hole size [Ang]:                1.133025
      Cartesian components [Ang]: [  0.643221,   0.642236,   0.676421]
    Electron size [Ang]:            4.805373
      Cartesian components [Ang]: [  2.785485,   2.717593,   2.819108]

  Transition density matrix analysis:
  -----------------------------------
  
  CT numbers (Mulliken)
    omega =     0.0129
    <Phe> =     0.0002
  
  Exciton analysis of the transition density matrix
    Trans. dipole moment [D]:             0.000000
      Cartesian components [D]:         [  0.000000,  -0.000000,  -0.000000]
    <r_h> [Ang]:                        [ -0.000000,   0.000000,   9.411678]
    <r_e> [Ang]:                        [ -0.000000,  -0.000000,  -0.588205]
    |<r_e - r_h>| [Ang]:                  9.999883
    Hole size [Ang]:                      1.080101
      Cartesian components [Ang]:       [  0.621940,   0.621899,   0.626939]
    Electron size [Ang]:                  5.180422
      Cartesian components [Ang]:       [  3.407537,   3.379184,   1.951046]
    RMS electron-hole separation [Ang]:  11.313752
      Cartesian components [Ang]:       [  3.463824,   3.435930,  10.207708]
    Covariance(r_h, r_e) [Ang^2]:         0.000035
    Correlation coefficient:              0.000006
    Center-of-mass size [Ang]:            2.645915
      Cartesian components [Ang]:       [  1.731918,   1.717969,   1.024650]

  Decomposition into state-averaged NTOs
    H- 0 -> L+ 0:  0.0781 (  1.2%)
                   omega =   1.3%
  ----------------------------------------------------------------------------


  Excited state 5 (singlet, A2)                                    [converged]
  ----------------------------------------------------------------------------
  Term symbol:  5 (1) A2                                    R^2 =  7.43087e-10

  Total energy:                                            -78.5975109182 a.u.
  Excitation energy:                                               5.095822 eV

  Osc. strength:                                                      0.000000
  Trans. dip. moment [a.u.]:           [   0.000000,   -0.000000,   -0.000000]
  <i|r^2|0> [a.u.]:                    [   0.000000,    0.000000,    0.000000]

  Dip. moment [a.u.]:                  [  -0.000000,   -0.000000,   17.650544]
  Total dipole [Debye]:                                              44.863216
  <r^2> [a.u.]:                        [ 108.232027,   72.446059,   94.196714]
  Total <r^2> [a.u.]:                                               274.874800

  V1^2 = 0.0000, V2^2 = 1.0000

  Important amplitudes:
      occ i      occ j       vir a       vir b          v   
    ---------------------------------------------------------
     5 (A1) A   5 (A1) B    5 (B1) A    2 (B2) B      0.3535
     5 (A1) A   5 (A1) B    6 (A1) A    1 (A2) B      0.0035
    ---------------------------------------------------------

  Density matrix analysis:
  ------------------------
  NOs
    Occupation of frontier NOs:
       1.0002   1.0005
    Number of electrons: 18.000000
    Number of unpaired electrons: n_u =  2.40738, n_u,nl =  2.04918
    NO participation ratio (PR_NO):  2.881364
  
  
  Mulliken Population Analysis
  Atom      Charge (e)              h+              e-           Del q
  --------------------------------------------------------------------
   1 C       -1.133572        0.001173       -0.961023       -0.959850
   2 C       -1.133572        0.001173       -0.961023       -0.959850
   3 H        0.072555        0.000046       -0.003261       -0.003215
   4 H        0.072555        0.000046       -0.003261       -0.003215
   5 H        0.060892        0.000051       -0.035701       -0.035650
   6 H        0.060892        0.000051       -0.035701       -0.035650
   7 H        1.000250        1.997430       -0.000001        1.997429
  --------------------------------------------------------------------
  Sum:       -1.000000        1.999970       -1.999970        0.000000
  
  Multipole moment analysis of the density matrix
    Molecular charge:                      -1.000000
    Number of electrons:                   18.000000
      Center of electronic charge [Ang]: [  0.000000,   0.000000,  -0.518904]
    Total nuclear charge:                  17.000000
      Center of nuclear charge [Ang]:    [ -0.000000,   0.000000,  -0.000000]
    Dipole moment [D]:                     44.863203
      Cartesian components [D]:          [ -0.000000,  -0.000000,  44.863203]
    RMS size of the density [Ang]:         2.001750
      Cartesian components [Ang]:        [  1.297606,   1.061628,   1.093696]
  
  Exciton analysis of the difference density matrix
    <r_h> [Ang]:                  [ -0.000000,   0.000000,   9.400160]
    <r_e> [Ang]:                  [  0.000000,   0.000000,   0.052585]
    |<r_e - r_h>| [Ang]:            9.347575
    Hole size [Ang]:                1.171349
      Cartesian components [Ang]: [  0.645816,   0.645327,   0.733847]
    Electron size [Ang]:            4.926133
      Cartesian components [Ang]: [  2.908800,   2.913912,   2.704587]

  Transition density matrix analysis:
  -----------------------------------
  
  CT numbers (Mulliken)
    omega =     0.0000
    <Phe> =     0.0005
  
  Exciton analysis of the transition density matrix
    Trans. dipole moment [D]:             0.000000
      Cartesian components [D]:         [  0.000000,  -0.000000,  -0.000000]
    <r_h> [Ang]:                        [ -0.000000,   0.000000,   9.397385]
    <r_e> [Ang]:                        [ -0.000000,  -0.000000,  -0.588092]
    |<r_e - r_h>| [Ang]:                  9.985477
    Hole size [Ang]:                      1.180873
      Cartesian components [Ang]:       [  0.645074,   0.643030,   0.751568]
    Electron size [Ang]:                  5.518607
      Cartesian components [Ang]:       [  3.623137,   3.604909,   2.081476]
    RMS electron-hole separation [Ang]:  11.471238
      Cartesian components [Ang]:       [  3.683712,   3.662002,  10.227869]
    Covariance(r_h, r_e) [Ang^2]:        -0.015038
    Correlation coefficient:             -0.002308
    Center-of-mass size [Ang]:            2.820435
      Cartesian components [Ang]:       [  1.838256,   1.830809,   1.106258]

  Decomposition into state-averaged NTOs
                   omega =   0.0%
  ----------------------------------------------------------------------------


  Excited state 6 (singlet, A2)                                    [converged]
  ----------------------------------------------------------------------------
  Term symbol:  6 (1) A2                                    R^2 =  2.36807e-09

  Total energy:                                            -78.5915760712 a.u.
  Excitation energy:                                               5.257318 eV

  Osc. strength:                                                      0.000000
  Trans. dip. moment [a.u.]:           [   0.000000,   -0.000000,   -0.000000]
  <i|r^2|0> [a.u.]:                    [  -0.000000,   -0.000000,    0.000000]

  Dip. moment [a.u.]:                  [   0.000000,    0.000000,   20.060809]
  Total dipole [Debye]:                                              50.989500
  <r^2> [a.u.]:                        [ 150.748876,   62.238122,   70.294816]
  Total <r^2> [a.u.]:                                               283.281814

  V1^2 = 0.0006, V2^2 = 0.9994

  Important amplitudes:
      occ i      occ j       vir a       vir b          v   
    ---------------------------------------------------------
     5 (A1) A   5 (A1) B    7 (A1) A    1 (A2) B      0.3533
     5 (A1) A               1 (A2) A                 -0.0179
    ---------------------------------------------------------

  Density matrix analysis:
  ------------------------
  NOs
    Occupation of frontier NOs:
       1.0003   1.0016
    Number of electrons: 18.000000
    Number of unpaired electrons: n_u =  2.40509, n_u,nl =  2.04873
    NO participation ratio (PR_NO):  2.879394
  
  
  Mulliken Population Analysis
  Atom      Charge (e)              h+              e-           Del q
  --------------------------------------------------------------------
   1 C       -1.184894        0.001127       -1.012300       -1.011173
   2 C       -1.184894        0.001127       -1.012300       -1.011173
   3 H        0.082433        0.000044        0.006619        0.006664
   4 H        0.082433        0.000044        0.006619        0.006664
   5 H        0.102480        0.000048        0.005890        0.005938
   6 H        0.102480        0.000048        0.005890        0.005938
   7 H        0.999962        1.997149       -0.000009        1.997141
  --------------------------------------------------------------------
  Sum:       -1.000000        1.999589       -1.999589        0.000000
  
  Multipole moment analysis of the density matrix
    Molecular charge:                      -1.000000
    Number of electrons:                   18.000000
      Center of electronic charge [Ang]: [ -0.000000,  -0.000000,  -0.589762]
    Total nuclear charge:                  17.000000
      Center of nuclear charge [Ang]:    [ -0.000000,   0.000000,  -0.000000]
    Dipole moment [D]:                     50.989485
      Cartesian components [D]:          [  0.000000,   0.000000,  50.989485]
    RMS size of the density [Ang]:         2.014754
      Cartesian components [Ang]:        [  1.531412,   0.983996,   0.863578]
  
  Exciton analysis of the difference density matrix
    <r_h> [Ang]:                  [ -0.000000,   0.000000,   9.400599]
    <r_e> [Ang]:                  [ -0.000000,   0.000000,  -0.586617]
    |<r_e - r_h>| [Ang]:            9.987216
    Hole size [Ang]:                1.169023
      Cartesian components [Ang]: [  0.645683,   0.645132,   0.730419]
    Electron size [Ang]:            5.009303
      Cartesian components [Ang]: [  3.796929,   2.657560,   1.901007]

  Transition density matrix analysis:
  -----------------------------------
  
  CT numbers (Mulliken)
    omega =     0.0006
    <Phe> =     0.0002
  
  Exciton analysis of the transition density matrix
    Trans. dipole moment [D]:             0.000000
      Cartesian components [D]:         [  0.000000,  -0.000000,  -0.000000]
    <r_h> [Ang]:                        [ -0.000000,   0.000000,   9.411891]
    <r_e> [Ang]:                        [ -0.000000,  -0.000000,  -0.588206]
    |<r_e - r_h>| [Ang]:                 10.000098
    Hole size [Ang]:                      1.077646
      Cartesian components [Ang]:       [  0.620348,   0.620320,   0.625853]
    Electron size [Ang]:                  5.196060
      Cartesian components [Ang]:       [  3.417583,   3.389563,   1.957045]
    RMS electron-hole separation [Ang]:  11.320877
      Cartesian components [Ang]:       [  3.473425,   3.445853,  10.208999]
    Covariance(r_h, r_e) [Ang^2]:         0.000024
    Correlation coefficient:              0.000004
    Center-of-mass size [Ang]:            2.653319
      Cartesian components [Ang]:       [  1.736716,   1.722931,   1.027341]

  Decomposition into state-averaged NTOs
                   omega =   0.1%
  ----------------------------------------------------------------------------


  Excited state 7 (singlet, A2)                                    [converged]
  ----------------------------------------------------------------------------
  Term symbol:  7 (1) A2                                    R^2 =  1.91555e-08

  Total energy:                                            -78.5503406609 a.u.
  Excitation energy:                                               6.379390 eV

  Osc. strength:                                                      0.000000
  Trans. dip. moment [a.u.]:           [   0.000000,   -0.000000,    0.000000]
  <i|r^2|0> [a.u.]:                    [  -0.000000,   -0.000000,   -0.000000]

  Dip. moment [a.u.]:                  [   0.000000,    0.000000,   19.608764]
  Total dipole [Debye]:                                              49.840517
  <r^2> [a.u.]:                        [  99.871118,   62.827627,   66.989619]
  Total <r^2> [a.u.]:                                               229.688364

  V1^2 = 0.0004, V2^2 = 0.9996

  Important amplitudes:
      occ i      occ j       vir a       vir b          v   
    ---------------------------------------------------------
     5 (A1) A   5 (A1) B    8 (A1) A    1 (A2) B      0.3535
     5 (A1) A               3 (A2) A                  0.0096
    ---------------------------------------------------------

  Density matrix analysis:
  ------------------------
  NOs
    Occupation of frontier NOs:
       1.0014   1.0027
    Number of electrons: 18.000000
    Number of unpaired electrons: n_u =  2.40058, n_u,nl =  2.04852
    NO participation ratio (PR_NO):  2.875059
  
  
  Mulliken Population Analysis
  Atom      Charge (e)              h+              e-           Del q
  --------------------------------------------------------------------
   1 C       -1.312745        0.001180       -1.140203       -1.139023
   2 C       -1.312745        0.001180       -1.140203       -1.139023
   3 H        0.155227        0.000055        0.079404        0.079458
   4 H        0.155227        0.000055        0.079404        0.079458
   5 H        0.157508        0.000034        0.060932        0.060966
   6 H        0.157508        0.000034        0.060932        0.060966
   7 H        1.000020        1.997203       -0.000005        1.997198
  --------------------------------------------------------------------
  Sum:       -1.000000        1.999740       -1.999740        0.000000
  
  Multipole moment analysis of the density matrix
    Molecular charge:                      -1.000000
    Number of electrons:                   18.000000
      Center of electronic charge [Ang]: [ -0.000000,  -0.000000,  -0.576473]
    Total nuclear charge:                  17.000000
      Center of nuclear charge [Ang]:    [ -0.000000,   0.000000,  -0.000000]
    Dipole moment [D]:                     49.840502
      Cartesian components [D]:          [  0.000000,   0.000000,  49.840502]
    RMS size of the density [Ang]:         1.800270
      Cartesian components [Ang]:        [  1.246479,   0.988645,   0.842524]
  
  Exciton analysis of the difference density matrix
    <r_h> [Ang]:                  [ -0.000000,   0.000000,   9.399846]
    <r_e> [Ang]:                  [ -0.000000,   0.000000,  -0.466995]
    |<r_e - r_h>| [Ang]:            9.866840
    Hole size [Ang]:                1.173684
      Cartesian components [Ang]: [  0.645684,   0.645218,   0.737780]
    Electron size [Ang]:            4.209031
      Cartesian components [Ang]: [  2.700198,   2.672972,   1.811102]

  Transition density matrix analysis:
  -----------------------------------
  
  CT numbers (Mulliken)
    omega =     0.0004
    <Phe> =     0.0001
  
  Exciton analysis of the transition density matrix
    Trans. dipole moment [D]:             0.000000
      Cartesian components [D]:         [  0.000000,  -0.000000,   0.000000]
    <r_h> [Ang]:                        [ -0.000000,   0.000000,   9.404862]
    <r_e> [Ang]:                        [ -0.000000,  -0.000000,  -0.588817]
    |<r_e - r_h>| [Ang]:                  9.993680
    Hole size [Ang]:                      1.128506
      Cartesian components [Ang]:       [  0.630884,   0.630556,   0.691311]
    Electron size [Ang]:                  4.950041
      Cartesian components [Ang]:       [  3.250510,   3.232999,   1.866763]
    RMS electron-hole separation [Ang]:  11.209371
      Cartesian components [Ang]:       [  3.311161,   3.293913,  10.190013]
    Covariance(r_h, r_e) [Ang^2]:         0.000027
    Correlation coefficient:              0.000005
    Center-of-mass size [Ang]:            2.538527
      Cartesian components [Ang]:       [  1.655587,   1.646960,   0.995328]

  Decomposition into state-averaged NTOs
                   omega =   0.0%
  ----------------------------------------------------------------------------


  Excited state 8 (singlet, A2)                                    [converged]
  ----------------------------------------------------------------------------
  Term symbol:  8 (1) A2                                    R^2 =  1.29659e-06

  Total energy:                                            -78.5464747416 a.u.
  Excitation energy:                                               6.484587 eV

  Osc. strength:                                                      0.000000
  Trans. dip. moment [a.u.]:           [   0.000000,    0.000000,   -0.000000]
  <i|r^2|0> [a.u.]:                    [   0.000000,    0.000000,    0.000000]

  Dip. moment [a.u.]:                  [   0.000000,    0.000000,    1.878730]
  Total dipole [Debye]:                                               4.775257
  <r^2> [a.u.]:                        [  68.670745,   31.864314,  357.058970]
  Total <r^2> [a.u.]:                                               457.594029

  V1^2 = 0.9103, V2^2 = 0.0897

  Important amplitudes:
      occ i      occ j       vir a       vir b          v   
    ---------------------------------------------------------
     5 (A1) A               3 (A2) A                 -0.6610
     5 (A1) A               2 (A2) A                 -0.1288
    ---------------------------------------------------------

  Density matrix analysis:
  ------------------------
  NOs
    Occupation of frontier NOs:
       0.9498   0.9706
    Number of electrons: 18.000000
    Number of unpaired electrons: n_u =  2.44805, n_u,nl =  2.06703
    NO participation ratio (PR_NO):  3.215461
  
  
  Mulliken Population Analysis
  Atom      Charge (e)              h+              e-           Del q
  --------------------------------------------------------------------
   1 C       -0.615083        0.099343       -0.540704       -0.441361
   2 C       -0.615083        0.099343       -0.540704       -0.441361
   3 H        0.043196        0.000625       -0.033199       -0.032573
   4 H        0.043196        0.000625       -0.033199       -0.032573
   5 H        0.052700       -0.000102       -0.043740       -0.043842
   6 H        0.052700       -0.000102       -0.043740       -0.043842
   7 H        0.038375        1.053790       -0.018237        1.035553
  --------------------------------------------------------------------
  Sum:       -1.000000        1.253523       -1.253523        0.000000
  
  Multipole moment analysis of the density matrix
    Molecular charge:                      -1.000000
    Number of electrons:                   18.000000
      Center of electronic charge [Ang]: [ -0.000000,  -0.000000,  -0.055232]
    Total nuclear charge:                  17.000000
      Center of nuclear charge [Ang]:    [ -0.000000,   0.000000,  -0.000000]
    Dipole moment [D]:                     4.775255
      Cartesian components [D]:          [  0.000000,   0.000000,   4.775255]
    RMS size of the density [Ang]:         2.667546
      Cartesian components [Ang]:        [  1.033596,   0.704072,   2.356219]
  
  Exciton analysis of the difference density matrix
    <r_h> [Ang]:                  [ -0.000000,   0.000000,   7.824006]
    <r_e> [Ang]:                  [ -0.000000,  -0.000000,  -0.431755]
    |<r_e - r_h>| [Ang]:            8.255761
    Hole size [Ang]:                3.892779
      Cartesian components [Ang]: [  0.785738,   0.724073,   3.743270]
    Electron size [Ang]:            3.542844
      Cartesian components [Ang]: [  2.147966,   2.083554,   1.896521]

  Transition density matrix analysis:
  -----------------------------------
  
  CT numbers (Mulliken)
    omega =     0.9006
    <Phe> =     0.0000
  
  Exciton analysis of the transition density matrix
    Trans. dipole moment [D]:             0.000000
      Cartesian components [D]:         [  0.000000,   0.000000,  -0.000000]
    <r_h> [Ang]:                        [ -0.000000,   0.000000,   9.398247]
    <r_e> [Ang]:                        [ -0.000000,  -0.000000,  -0.588195]
    |<r_e - r_h>| [Ang]:                  9.986442
    Hole size [Ang]:                      1.180156
      Cartesian components [Ang]:       [  0.645972,   0.645400,   0.747627]
    Electron size [Ang]:                  3.463474
      Cartesian components [Ang]:       [  2.282756,   2.255726,   1.302448]
    RMS electron-hole separation [Ang]:  10.635666
      Cartesian components [Ang]:       [  2.372386,   2.346236,  10.098730]
    Covariance(r_h, r_e) [Ang^2]:         0.000028
    Correlation coefficient:              0.000007
    Center-of-mass size [Ang]:            1.829513
      Cartesian components [Ang]:       [  1.186201,   1.173122,   0.750886]

  Decomposition into state-averaged NTOs
    H- 0 -> L+ 1:  0.5123 ( 52.5%)
    H- 0 -> L+ 2:  0.4249 ( 36.1%)
    H- 0 -> L+ 0: -0.0856 (  1.5%)
                   omega =  90.1%
  ----------------------------------------------------------------------------


  Excited state 9 (singlet, A2)                                    [converged]
  ----------------------------------------------------------------------------
  Term symbol:  9 (1) A2                                    R^2 =  2.00809e-07

  Total energy:                                            -78.5295876714 a.u.
  Excitation energy:                                               6.944108 eV

  Osc. strength:                                                      0.000000
  Trans. dip. moment [a.u.]:           [   0.000000,   -0.000000,    0.000000]
  <i|r^2|0> [a.u.]:                    [   0.000000,    0.000000,   -0.000000]

  Dip. moment [a.u.]:                  [   0.000000,    0.000000,   19.967759]
  Total dipole [Debye]:                                              50.752989
  <r^2> [a.u.]:                        [  78.816753,   39.961916,  104.970373]
  Total <r^2> [a.u.]:                                               223.749042

  V1^2 = 0.0429, V2^2 = 0.9571

  Important amplitudes:
      occ i      occ j       vir a       vir b          v   
    ---------------------------------------------------------
     5 (A1) A   5 (A1) B    6 (A1) A    2 (A2) B      0.3454
     5 (A1) A               3 (A2) A                 -0.1176
    ---------------------------------------------------------

  Density matrix analysis:
  ------------------------
  NOs
    Occupation of frontier NOs:
       0.9725   0.9946
    Number of electrons: 18.000000
    Number of unpaired electrons: n_u =  2.40977, n_u,nl =  2.04989
    NO participation ratio (PR_NO):  2.980364
  
  
  Mulliken Population Analysis
  Atom      Charge (e)              h+              e-           Del q
  --------------------------------------------------------------------
   1 C       -1.116858        0.001672       -0.944808       -0.943136
   2 C       -1.116858        0.001672       -0.944808       -0.943136
   3 H        0.056245       -0.000016       -0.019509       -0.019524
   4 H        0.056245       -0.000016       -0.019509       -0.019524
   5 H        0.079069       -0.000039       -0.017434       -0.017473
   6 H        0.079069       -0.000039       -0.017434       -0.017473
   7 H        0.963088        1.960683       -0.000417        1.960266
  --------------------------------------------------------------------
  Sum:       -1.000000        1.963919       -1.963919        0.000000
  
  Multipole moment analysis of the density matrix
    Molecular charge:                      -1.000000
    Number of electrons:                   18.000000
      Center of electronic charge [Ang]: [ -0.000000,  -0.000000,  -0.587027]
    Total nuclear charge:                  17.000000
      Center of nuclear charge [Ang]:    [ -0.000000,   0.000000,  -0.000000]
    Dipole moment [D]:                     50.752974
      Cartesian components [D]:          [  0.000000,   0.000000,  50.752974]
    RMS size of the density [Ang]:         1.770959
      Cartesian components [Ang]:        [  1.107323,   0.788475,   1.135094]
  
  Exciton analysis of the difference density matrix
    <r_h> [Ang]:                  [ -0.000000,   0.000000,   9.395217]
    <r_e> [Ang]:                  [ -0.000000,  -0.000000,  -0.748320]
    |<r_e - r_h>| [Ang]:           10.143537
    Hole size [Ang]:                1.188267
      Cartesian components [Ang]: [  0.645526,   0.643775,   0.762122]
    Electron size [Ang]:            3.894229
      Cartesian components [Ang]: [  2.100995,   2.001325,   2.597218]

  Transition density matrix analysis:
  -----------------------------------
  
  CT numbers (Mulliken)
    omega =     0.0426
    <Phe> =     0.0000
  
  Exciton analysis of the transition density matrix
    Trans. dipole moment [D]:             0.000000
      Cartesian components [D]:         [  0.000000,  -0.000000,   0.000000]
    <r_h> [Ang]:                        [ -0.000000,   0.000000,   9.402932]
    <r_e> [Ang]:                        [ -0.000000,  -0.000000,  -0.588203]
    |<r_e - r_h>| [Ang]:                  9.991135
    Hole size [Ang]:                      1.146949
      Cartesian components [Ang]:       [  0.638164,   0.637772,   0.708156]
    Electron size [Ang]:                  4.026485
      Cartesian components [Ang]:       [  2.645765,   2.628266,   1.518132]
    RMS electron-hole separation [Ang]:  10.832857
      Cartesian components [Ang]:       [  2.721634,   2.704536,  10.130597]
    Covariance(r_h, r_e) [Ang^2]:         0.000031
    Correlation coefficient:              0.000007
    Center-of-mass size [Ang]:            2.093331
      Cartesian components [Ang]:       [  1.360823,   1.352272,   0.837588]

  Decomposition into state-averaged NTOs
    H- 0 -> L+ 1:  0.1361 (  3.7%)
                   omega =   4.3%
  ----------------------------------------------------------------------------


  Excited state 10 (singlet, A2)                                    [converged]
  ----------------------------------------------------------------------------
  Term symbol:  10 (1) A2                                   R^2 =  1.83366e-08

  Total energy:                                            -78.5177145491 a.u.
  Excitation energy:                                               7.267192 eV

  Osc. strength:                                                      0.000000
  Trans. dip. moment [a.u.]:           [   0.000000,   -0.000000,    0.000000]
  <i|r^2|0> [a.u.]:                    [   0.000000,    0.000000,   -0.000000]

  Dip. moment [a.u.]:                  [   0.000000,    0.000000,   20.052463]
  Total dipole [Debye]:                                              50.968287
  <r^2> [a.u.]:                        [ 126.832214,   38.117798,   62.480518]
  Total <r^2> [a.u.]:                                               227.430530

  V1^2 = 0.0011, V2^2 = 0.9989

  Important amplitudes:
      occ i      occ j       vir a       vir b          v   
    ---------------------------------------------------------
     5 (A1) A   5 (A1) B    7 (A1) A    2 (A2) B      0.3532
     5 (A1) A               2 (A2) A                 -0.0175
    ---------------------------------------------------------

  Density matrix analysis:
  ------------------------
  NOs
    Occupation of frontier NOs:
       0.9997   1.0229
    Number of electrons: 18.000000
    Number of unpaired electrons: n_u =  2.36306, n_u,nl =  2.04246
    NO participation ratio (PR_NO):  2.841005
  
  
  Mulliken Population Analysis
  Atom      Charge (e)              h+              e-           Del q
  --------------------------------------------------------------------
   1 C       -1.176070        0.001159       -1.003508       -1.002349
   2 C       -1.176070        0.001159       -1.003508       -1.002349
   3 H        0.078068        0.000043        0.002256        0.002299
   4 H        0.078068        0.000043        0.002256        0.002299
   5 H        0.098274        0.000049        0.001684        0.001733
   6 H        0.098274        0.000049        0.001684        0.001733
   7 H        0.999455        1.996644       -0.000011        1.996634
  --------------------------------------------------------------------
  Sum:       -1.000000        1.999146       -1.999146       -0.000000
  
  Multipole moment analysis of the density matrix
    Molecular charge:                      -1.000000
    Number of electrons:                   18.000000
      Center of electronic charge [Ang]: [ -0.000000,  -0.000000,  -0.589517]
    Total nuclear charge:                  17.000000
      Center of nuclear charge [Ang]:    [ -0.000000,   0.000000,  -0.000000]
    Dipole moment [D]:                     50.968271
      Cartesian components [D]:          [  0.000000,   0.000000,  50.968271]
    RMS size of the density [Ang]:         1.786236
      Cartesian components [Ang]:        [  1.404687,   0.770067,   0.790245]
  
  Exciton analysis of the difference density matrix
    <r_h> [Ang]:                  [ -0.000000,   0.000000,   9.400288]
    <r_e> [Ang]:                  [ -0.000000,  -0.000000,  -0.586929]
    |<r_e - r_h>| [Ang]:            9.987217
    Hole size [Ang]:                1.170417
      Cartesian components [Ang]: [  0.645718,   0.645175,   0.732580]
    Electron size [Ang]:            4.153627
      Cartesian components [Ang]: [  3.327117,   1.919770,   1.580315]

  Transition density matrix analysis:
  -----------------------------------
  
  CT numbers (Mulliken)
    omega =     0.0011
    <Phe> =     0.0000
  
  Exciton analysis of the transition density matrix
    Trans. dipole moment [D]:             0.000000
      Cartesian components [D]:         [  0.000000,  -0.000000,   0.000000]
    <r_h> [Ang]:                        [ -0.000000,   0.000000,   9.405843]
    <r_e> [Ang]:                        [ -0.000000,  -0.000000,  -0.588105]
    |<r_e - r_h>| [Ang]:                  9.993948
    Hole size [Ang]:                      1.124122
      Cartesian components [Ang]:       [  0.631731,   0.631456,   0.682516]
    Electron size [Ang]:                  4.081110
      Cartesian components [Ang]:       [  2.682793,   2.662659,   1.538939]
    RMS electron-hole separation [Ang]:  10.853480
      Cartesian components [Ang]:       [  2.756161,   2.736505,  10.134749]
    Covariance(r_h, r_e) [Ang^2]:         0.000034
    Correlation coefficient:              0.000007
    Center-of-mass size [Ang]:            2.116552
      Cartesian components [Ang]:       [  1.378087,   1.368257,   0.841749]

  Decomposition into state-averaged NTOs
                   omega =   0.1%
  ----------------------------------------------------------------------------


--------------------------------------------------------------------------------
  Time of ADC calculation:  CPU 91.68 s  wall 27.42 s
================================================================================
 
 --------------------------------------------------------------
             Orbital Energies (a.u.) and Symmetries
 --------------------------------------------------------------
 
 Alpha MOs, Restricted
 -- Occupied --                  
-11.184 -11.182  -0.989  -0.729  -0.607  -0.514  -0.462  -0.324
  1 A1    1 B1    2 A1    2 B1    3 A1    4 A1    3 B1    1 B2                 
  0.021
  5 A1                                                                         
 -- Virtual --                   
  0.094   0.104   0.105   0.117   0.118   0.124   0.160   0.191
  4 B1    6 A1    2 B2    1 A2    7 A1    5 B1    8 A1    2 A2                 
  0.228   0.250   0.265   0.273   0.279   0.285   0.319   0.350
  6 B1    9 A1    7 B1    3 B2   10 A1    8 B1   11 A1    3 A2                 
  0.396   0.403   0.550   0.589   0.781   0.869   0.916   0.946
 12 A1    9 B1   10 B1   11 B1   13 A1   14 A1   15 A1   16 A1                 
  0.967   0.984   1.018   1.033   1.057   1.084   1.117   1.167
  4 B2   12 B1    4 A2   13 B1   17 A1   18 A1   14 B1    5 B2                 
  1.337   1.337   1.378   1.400   1.662   1.668   1.756   1.907
  6 B2    5 A2   15 B1   16 B1   19 A1   17 B1   20 A1    6 A2                 
  1.966   1.966   1.966   1.966   1.992   2.055   2.070   2.107
 21 A1   18 B1    7 B2   19 B1    8 B2   22 A1    9 B2   23 A1                 
  2.226   2.363   2.465   2.500   2.615   2.623   2.851   2.857
  7 A2   20 B1    8 A2   24 A1   21 B1   22 B1   25 A1   26 A1                 
  3.301   3.393
 23 B1   24 B1                                                                 
 
 Beta MOs, Restricted
 -- Occupied --                  
-11.184 -11.182  -0.989  -0.729  -0.607  -0.514  -0.462  -0.324
  1 A1    1 B1    2 A1    2 B1    3 A1    4 A1    3 B1    1 B2                 
  0.021
  5 A1                                                                         
 -- Virtual --                   
  0.094   0.104   0.105   0.117   0.118   0.124   0.160   0.191
  4 B1    6 A1    2 B2    1 A2    7 A1    5 B1    8 A1    2 A2                 
  0.228   0.250   0.265   0.273   0.279   0.285   0.319   0.350
  6 B1    9 A1    7 B1    3 B2   10 A1    8 B1   11 A1    3 A2                 
  0.396   0.403   0.550   0.589   0.781   0.869   0.916   0.946
 12 A1    9 B1   10 B1   11 B1   13 A1   14 A1   15 A1   16 A1                 
  0.967   0.984   1.018   1.033   1.057   1.084   1.117   1.167
  4 B2   12 B1    4 A2   13 B1   17 A1   18 A1   14 B1    5 B2                 
  1.337   1.337   1.378   1.400   1.662   1.668   1.756   1.907
  6 B2    5 A2   15 B1   16 B1   19 A1   17 B1   20 A1    6 A2                 
  1.966   1.966   1.966   1.966   1.992   2.055   2.070   2.107
 21 A1   18 B1    7 B2   19 B1    8 B2   22 A1    9 B2   23 A1                 
  2.226   2.363   2.465   2.500   2.615   2.623   2.851   2.857
  7 A2   20 B1    8 A2   24 A1   21 B1   22 B1   25 A1   26 A1                 
  3.301   3.393
 23 B1   24 B1                                                                 
 --------------------------------------------------------------
 
          Ground-State Mulliken Net Atomic Charges

     Atom                 Charge (a.u.)
  ----------------------------------------
      1 C                    -0.159227
      2 C                    -0.159227
      3 H                     0.068561
      4 H                     0.068561
      5 H                     0.089395
      6 H                     0.089395
      7 H                    -0.997458
  ----------------------------------------
  Sum of atomic charges =    -1.000000

 -----------------------------------------------------------------
                    Cartesian Multipole Moments
 -----------------------------------------------------------------
    Charge (ESU x 10^10)
                -4.8032
    Dipole Moment (Debye)
         X       0.0000      Y      -0.0000      Z     -44.9467
       Tot      44.9467
    Quadrupole Moments (Debye-Ang)
        XX     -16.9473     XY      -0.0000     YY     -20.1287
        XZ      -0.0000     YZ      -0.0000     ZZ    -440.6701
    Octopole Moments (Debye-Ang^2)
       XXX       0.0000    XXY      -0.0000    XYY      -0.0000
       YYY      -0.0000    XXZ     -29.2441    XYZ       0.0000
       YYZ     -27.6040    XZZ       0.0000    YZZ      -0.0000
       ZZZ   -4084.1616
    Hexadecapole Moments (Debye-Ang^3)
      XXXX     -74.8510   XXXY      -0.0000   XXYY     -17.7242
      XYYY      -0.0000   YYYY     -27.8493   XXXZ      -0.0000
      XXYZ      -0.0000   XYYZ      -0.0000   YYYZ      -0.0000
      XXZZ    -370.4702   XYZZ      -0.0000   YYZZ    -366.9503
      XZZZ      -0.0000   YZZZ      -0.0000   ZZZZ  -39753.9495
 -----------------------------------------------------------------
 Total job time:  110.07s(wall), 136.54s(cpu) 
 Sun Mar 27 18:41:13 2022

        *************************************************************
        *                                                           *
        *  Thank you very much for using Q-Chem.  Have a nice day.  *
        *                                                           *
        *************************************************************


