/src/tsommerfeld/qchem/exe/qcprog.exe .input0.75.2878.qcin.1 /src/jdavis/qchem.scratch/qchem2878/

                  Welcome to Q-Chem
     A Quantum Leap Into The Future Of Chemistry


 Q-Chem 5.4 (devel), Q-Chem, Inc., Pleasanton, CA (2021)

 E. Epifanovsky,  A. T. B. Gilbert,  Xintian Feng,  Joonho Lee,  Yuezhi Mao,  
 N. Mardirossian,  P. Pokhilko,  A. White,  M. Wormit,  M. P. Coons,  
 A. L. Dempwolff,  Zhengting Gan,  D. Hait,  P. R. Horn,  L. D. Jacobson,  
 I. Kaliman,  J. Kussmann,  A. W. Lange,  Ka Un Lao,  D. S. Levine,  Jie Liu,  
 S. C. McKenzie,  A. F. Morrison,  K. Nanda,  F. Plasser,  D. R. Rehn,  
 M. L. Vidal,  Zhi-Qiang You,  Ying Zhu,  B. Alam,  B. Albrecht,  
 A. Aldossary,  E. Alguire,  J. H. Andersen,  D. Barton,  K. Begam,  A. Behn,  
 Y. A. Bernard,  E. J. Berquist,  H. Burton,  A. Carreras,  K. Carter-Fenk,  
 R. Chakraborty,  A. D. Chien,  K. D. Closser,  V. Cofer-Shabica,  
 S. Dasgupta,  Jia Deng,  M. de Wergifosse,  M. Diedenhofen,  Hainam Do,  
 S. Ehlert,  Po-Tung Fang,  S. Fatehi,  Qingguo Feng,  T. Friedhoff,  
 J. Gayvert,  Qinghui Ge,  G. Gidofalvi,  M. Goldey,  J. Gomes,  
 C. Gonzalez-Espinoza,  S. Gulania,  A. Gunina,  M. W. D. Hanson-Heine,  
 P. H. P. Harbach,  A. W. Hauser,  M. F. Herbst,  M. Hernandez Vera,  
 M. Hodecker,  Z. C. Holden,  S. Houck,  Xunkun Huang,  Kerwin Hui,  
 B. C. Huynh,  M. Ivanov,  Hyunjun Ji,  Hanjie Jiang,  B. Kaduk,  S. Kaehler,  
 K. Khistyaev,  Jaehoon Kim,  P. Klunzinger,  Z. Koczor-Benda,  
 Joong Hoon Koh,  D. Kosenkov,  L. Koulias,  T. Kowalczyk,  C. M. Krauter,  
 K. Kue,  A. Kunitsa,  T. Kus,  A. Landau,  K. V. Lawler,  D. Lefrancois,  
 S. Lehtola,  Rain Li,  Yi-Pei Li,  Jiashu Liang,  M. Liebenthal,  
 Hung-Hsuan Lin,  You-Sheng Lin,  Fenglai Liu,  Kuan-Yu Liu,  
 M. Loipersberger,  A. Luenser,  A. Manjanath,  P. Manohar,  E. Mansoor,  
 S. F. Manzer,  Shan-Ping Mao,  A. V. Marenich,  T. Markovich,  S. Mason,  
 S. A. Maurer,  P. F. McLaughlin,  M. F. S. J. Menger,  J.-M. Mewes,  
 S. A. Mewes,  P. Morgante,  J. W. Mullinax,  K. J. Oosterbaan,  G. Paran,  
 Alexander C. Paul,  Suranjan K. Paul,  F. Pavosevic,  Zheng Pei,  S. Prager,  
 E. I. Proynov,  E. Ramos,  B. Rana,  A. E. Rask,  A. Rettig,  R. M. Richard,  
 F. Rob,  E. Rossomme,  T. Scheele,  M. Scheurer,  M. Schneider,  
 N. Sergueev,  S. M. Sharada,  W. Skomorowski,  D. W. Small,  C. J. Stein,  
 Yu-Chuan Su,  E. J. Sundstrom,  Zhen Tao,  J. Thirman,  T. Tsuchimochi,  
 N. M. Tubman,  S. P. Veccham,  O. Vydrov,  J. Wenzel,  J. Witte,  A. Yamada,  
 Kun Yao,  S. Yeganeh,  S. R. Yost,  A. Zech,  Igor Ying Zhang,  Xing Zhang,  
 Yu Zhang,  D. Zuev,  A. Aspuru-Guzik,  A. T. Bell,  N. A. Besley,  
 K. B. Bravaya,  B. R. Brooks,  D. Casanova,  Jeng-Da Chai,  S. Coriani,  
 C. J. Cramer,  A. E. DePrince, III,  R. A. DiStasio Jr.,  A. Dreuw,  
 B. D. Dunietz,  T. R. Furlani,  W. A. Goddard III,  S. Grimme,  
 S. Hammes-Schiffer,  T. Head-Gordon,  W. J. Hehre,  Chao-Ping Hsu,  
 T.-C. Jagau,  Yousung Jung,  A. Klamt,  Jing Kong,  D. S. Lambrecht,  
 WanZhen Liang,  N. J. Mayhall,  C. W. McCurdy,  J. B. Neaton,  
 C. Ochsenfeld,  J. A. Parkhill,  R. Peverati,  V. A. Rassolov,  Yihan Shao,  
 L. V. Slipchenko,  T. Stauch,  R. P. Steele,  J. E. Subotnik,  
 A. J. W. Thom,  A. Tkatchenko,  D. G. Truhlar,  T. Van Voorhis,  
 T. A. Wesolowski,  K. B. Whaley,  H. L. Woodcock III,  P. M. Zimmerman,  
 S. Faraji,  P. M. W. Gill,  M. Head-Gordon,  J. M. Herbert,  A. I. Krylov

 Additional authors for Version 5.4.1: 
 S. Kotaru,  Shaozhi Li,  Xiangyuan Li,  F. Matz,  A. Molle,  Haisheng Ren,  
 Yingli Su,  Hung-Yi Tsai,  C. Utku,  Fang Wang

 Contributors to earlier versions of Q-Chem not listed above: 
 R. D. Adamson,  B. Austin,  R. Baer,  J. Baker,  G. J. O. Beran,  
 K. Brandhorst,  S. T. Brown,  E. F. C. Byrd,  A. K. Chakraborty,  
 G. K. L. Chan,  Chun-Min Chang,  Yunqing Chen,  C.-L. Cheng,  
 Siu Hung Chien,  D. M. Chipman,  D. L. Crittenden,  H. Dachsel,  
 R. J. Doerksen,  A. D. Dutoi,  R. G. Edgar,  J. Fosso-Tande,  
 L. Fusti-Molnar,  D. Ghosh,  A. Ghysels,  A. Golubeva-Zadorozhnaya,  
 J. Gonthier,  M. S. Gordon,  S. R. Gwaltney,  G. Hawkins,  J. E. Herr,  
 A. Heyden,  S. Hirata,  E. G. Hohenstein,  G. Kedziora,  F. J. Keil,  
 C. Kelley,  Jihan Kim,  R. A. King,  R. Z. Khaliullin,  P. P. Korambath,  
 W. Kurlancheek,  A. Laurent,  A. M. Lee,  M. S. Lee,  S. V. Levchenko,  
 Ching Yeh Lin,  D. Liotard,  E. Livshits,  R. C. Lochan,  I. Lotan,  
 L. A. Martinez-Martinez,  P. E. Maslen,  N. Nair,  D. P. O'Neill,  
 D. Neuhauser,  E. Neuscamman,  C. M. Oana,  R. Olivares-Amaya,  R. Olson,  
 T. M. Perrine,  B. Peters,  P. A. Pieniazek,  A. Prociuk,  Y. M. Rhee,  
 J. Ritchie,  M. A. Rohrdanz,  E. Rosta,  N. J. Russ,  H. F. Schaefer III,  
 M. W. Schmidt,  N. E. Schultz,  S. Sharma,  N. Shenvi,  C. D. Sherrill,  
 A. C. Simmonett,  A. Sodt,  T. Stein,  D. Stuck,  K. S. Thanthiriwatte,  
 V. Vanovschi,  L. Vogt,  Tao Wang,  A. Warshel,  M. A. Watson,  
 C. F. Williams,  Q. Wu,  X. Xu,  Jun Yang,  W. Zhang,  Yan Zhao

 Please cite Q-Chem as follows:
 Y. Shao et al., Mol. Phys. 113, 184-215 (2015)
 DOI: 10.1080/00268976.2014.952696

 Q-Chem 5.4.1 for Intel X86 EM64T Linux

 Parts of Q-Chem use Armadillo 9.900.5 (Nocturnal Misbehaviour).
 http://arma.sourceforge.net/

 Q-Chem begins on Sun Mar 27 18:37:34 2022  

 Host: node01
0

     Scratch files written to /src/jdavis/qchem.scratch/qchem2878//
 Processing $rem in /src/tsommerfeld/qchem/config/preferences:
 Processing $rem in /home/jdavis/.qchemrc:

 Checking the input file for inconsistencies... 	...done.

--------------------------------------------------------------
User input:
--------------------------------------------------------------
$molecule
-1 1
C        -0.6645000000    0.0000000000   -0.1764707059
C         0.6645000000    0.0000000000   -0.1764707059
H        -1.1590800000    0.0000000000    0.7858782941
H         1.1590800000    0.0000000000    0.7858782941
H        -1.1590800000    0.0000000000   -1.1388187059
H         1.1590800000    0.0000000000   -1.1388187059
H         0.0000000000    0.0000000000  -10.1764707059
$end

$rem
   METHOD adc(2)
   BASIS gen
   PURECART 11
   EE_STATES [0,10,0,0]
   scf_convergence 8
   ADC_DAVIDSON_MAXITER 120
   ADC_DAVIDSON_MAXSUBSPACE 200
   adc_nguess_singles 100
   THRESH 14
   S2THRESH 14
   adc_davidson_conv 5
   adc_davidson_thresh 14
   THREADS 10
   MEM_TOTAL 95000
   STATE_ANALYSIS TRUE
$end
$basis
C 1
S   9   1.00
      6.665000D+03           6.920000D-04
      1.000000D+03           5.329000D-03
      2.280000D+02           2.707700D-02
      6.471000D+01           1.017180D-01
      2.106000D+01           2.747400D-01
      7.495000D+00           4.485640D-01
      2.797000D+00           2.850740D-01
      5.215000D-01           1.520400D-02
      1.596000D-01          -3.191000D-03
S   9   1.00
      6.665000D+03          -1.460000D-04
      1.000000D+03          -1.154000D-03
      2.280000D+02          -5.725000D-03
      6.471000D+01          -2.331200D-02
      2.106000D+01          -6.395500D-02
      7.495000D+00          -1.499810D-01
      2.797000D+00          -1.272620D-01
      5.215000D-01           5.445290D-01
      1.596000D-01           5.804960D-01
S   1   1.00
      1.596000D-01           1.000000D+00
S   1   1.00
      0.0469000              1.0000000
P   4   1.00
      9.439000D+00           3.810900D-02
      2.002000D+00           2.094800D-01
      5.456000D-01           5.085570D-01
      1.517000D-01           4.688420D-01
P   1   1.00
      1.517000D-01           1.000000D+00
P   1   1.00
      0.04551      1.0000000
P   1   1.00
      0.022755      1.0000000
D   1   1.00
      5.500000D-01           1.0000000
****
C 2
S   9   1.00
      6.665000D+03           6.920000D-04
      1.000000D+03           5.329000D-03
      2.280000D+02           2.707700D-02
      6.471000D+01           1.017180D-01
      2.106000D+01           2.747400D-01
      7.495000D+00           4.485640D-01
      2.797000D+00           2.850740D-01
      5.215000D-01           1.520400D-02
      1.596000D-01          -3.191000D-03
S   9   1.00
      6.665000D+03          -1.460000D-04
      1.000000D+03          -1.154000D-03
      2.280000D+02          -5.725000D-03
      6.471000D+01          -2.331200D-02
      2.106000D+01          -6.395500D-02
      7.495000D+00          -1.499810D-01
      2.797000D+00          -1.272620D-01
      5.215000D-01           5.445290D-01
      1.596000D-01           5.804960D-01
S   1   1.00
      1.596000D-01           1.000000D+00
S   1   1.00
      0.0469000              1.0000000
P   4   1.00
      9.439000D+00           3.810900D-02
      2.002000D+00           2.094800D-01
      5.456000D-01           5.085570D-01
      1.517000D-01           4.688420D-01
P   1   1.00
      1.517000D-01           1.000000D+00
P   1   1.00
      0.04551      1.0000000
P   1   1.00
      0.022755      1.0000000
D   1   1.00
      5.500000D-01           1.0000000
****
H 3
cc-pVDZ
****
H 4
cc-pVDZ
****
H 5
cc-pVDZ
****
H 6
cc-pVDZ
****
H 7
aug-cc-pVDZ
****
$end
--------------------------------------------------------------
 ----------------------------------------------------------------
             Standard Nuclear Orientation (Angstroms)
    I     Atom           X                Y                Z
 ----------------------------------------------------------------
    1      C      -0.6645000000     0.0000000000    -0.5882351765
    2      C       0.6645000000    -0.0000000000    -0.5882351765
    3      H      -1.1590800000     0.0000000000    -1.5505841765
    4      H       1.1590800000    -0.0000000000    -1.5505841765
    5      H      -1.1590800000     0.0000000000     0.3741128235
    6      H       1.1590800000    -0.0000000000     0.3741128235
    7      H       0.0000000000     0.0000000000     9.4117648235
 ----------------------------------------------------------------
 Molecular Point Group                 C2v   NOp =  4
 Largest Abelian Subgroup              C2v   NOp =  4
 Nuclear Repulsion Energy =          34.43499495 hartrees
 There are        9 alpha and        9 beta electrons
 Requested basis set is non-standard
 There are 33 shells and 67 basis functions
 Total memory of 95000 MB is distributed as follows: 
   MEM_STATIC is set to 192 MB
   QALLOC/CCMAN JOB total memory use is  94808 MB
 Warning: actual memory use might exceed 95000 MB

 Total QAlloc Memory Limit  95000 MB
 Mega-Array Size       188 MB
 MEM_STATIC part       192 MB

                       Distance Matrix (Angstroms)
             C (  1)   C (  2)   H (  3)   H (  4)   H (  5)   H (  6)
   C (  2)  1.329000
   H (  3)  1.082000  2.061931
   H (  4)  2.061931  1.082000  2.318160
   H (  5)  1.082000  2.061931  1.924697  3.013026
   H (  6)  2.061931  1.082000  3.013026  1.924697  2.318160
   H (  7) 10.022054 10.022054 11.023455 11.023455  9.111675  9.111675

 
 A cutoff of  1.0D-14 yielded    505 shell pairs
 There are      2121 function pairs (      2258 Cartesian)
 Smallest overlap matrix eigenvalue = 1.83E-04

 Scale SEOQF with 1.000000e-01/1.000000e-01/1.000000e-02

 Standard Electronic Orientation quadrupole field applied
 Nucleus-field energy     =    -0.0000000007 hartrees
 ================ Generating on-the-fly SAD Guess ================
Attempting to make child job directory: /src/jdavis/qchem.scratch/qchem2878//Frg1/
Attempting to make child job directory: /src/jdavis/qchem.scratch/qchem2878//Frg2/
Creating input file /src/jdavis/qchem.scratch/qchem2878/Frg1.input
using default PutDataFrgm: nothing
calling putenv with: QCSCRATCH=/src/jdavis/qchem.scratch/qchem2878/ 
Spawning Job For Fragment 0
Done Job For Fragment 0
calling putenv with: QCSCRATCH=/src/jdavis/qchem.scratch 
calling putenv with: QCTHREADS=1 
Creating input file /src/jdavis/qchem.scratch/qchem2878/Frg2.input
using default PutDataFrgm: nothing
calling putenv with: QCSCRATCH=/src/jdavis/qchem.scratch/qchem2878/ 
Spawning Job For Fragment 1
Done Job For Fragment 1
calling putenv with: QCSCRATCH=/src/jdavis/qchem.scratch 
calling putenv with: QCTHREADS=1 
 Time for running child jobs:  CPU 1.77 s  wall 52.94 s
 ============= Method Specific SAD Guess Constructed =============
 Guess from on-the-fly superposition of atomic densities
 Warning: Energy on first SCF cycle will be non-variational
 A restricted Hartree-Fock SCF calculation will be
 performed using Pulay DIIS extrapolation
 SCF converges when DIIS error is below 1.0E-08
 using 10 threads for integral computing
 -------------------------------------------------------
 OpenMP Integral computing Module                
 Release: version 1.0, May 2013, Q-Chem Inc. Pittsburgh 
 -------------------------------------------------------
 ---------------------------------------
  Cycle       Energy         DIIS Error
 ---------------------------------------
    1     -78.7999120424      7.36E-02
    2     -78.4466909207      6.49E-03
    3     -78.4847678542      1.48E-03
    4     -78.4867069560      4.77E-04
    5     -78.4868831371      7.35E-05
    6     -78.4868929220      1.32E-05
    7     -78.4868939534      4.55E-06
    8     -78.4868942877      1.69E-06
    9     -78.4868943803      6.82E-07
   10     -78.4868943967      1.18E-07
   11     -78.4868943969      1.34E-08
   12     -78.4868943969      1.57E-09 Convergence criterion met
 ---------------------------------------
 SCF time:  CPU 11.08 s  wall 1.11 s
 SCF   energy in the final basis set = -78.48689440
 Total energy in the final basis set = -78.48689440
================================================================================
|                                                                              |
|                                 A D C  M A N                                 |
|                                                                              |
 ------------------------------------------------------------------------------ 
|                                                                              |
| Components:                                                                  |
|                                                                              |
| - libvmm - 1.3-trunk                                                         |
|   Authors:                                                                   |
|   Evgeny Epifanovsky, Ilya Kaliman                                           |
|                                                                              |
| - libtensor - 2.5-trunk                                                      |
|   Authors:                                                                   |
|   Evgeny Epifanovsky, Michael Wormit, Dmitry Zuev, Sam Manzer,               |
|   Ilya Kaliman                                                               |
|                                                                              |
| - libwfa - 1.1-trunk                                                         |
|   Authors:                                                                   |
|   Felix Plasser, Stefanie Mewes (Baeppler), Benjamin Thomitzni,              |
|   Michael Wormit, Feng Chen, Anna I. Krylov, Pavel Pokhilko                  |
|                                                                              |
| - libadc - 1.1-trunk                                                         |
|   Authors:                                                                   |
|   Michael Wormit, Adrian L. Dempwolff, Philipp H. P. Harbach,                |
|   Caroline Krauter, Dirk Rehn, Matthias Schneider, Jan Wenzel                |
|                                                                              |
| - adcman - 2.6-trunk                                                         |
|   Authors:                                                                   |
|   Michael Wormit, Adrian L. Dempwolff, Philipp H. P. Harbach,                |
|   Caroline Krauter, Daniel Lefrancois, Jan-Michael Mewes, Dirk Rehn,         |
|   Matthias Schneider, Jan Wenzel, Andreas Dreuw                              |
|                                                                              |
| Authors of earlier versions of ADCMAN:                                       |
| Andreas Dreuw, Jan Hendrik Starcke, Dirk Rehn, Michael Wormit                |
|                                                                              |
================================================================================

 
 Alpha MOs, Restricted
 -- Occupied --                  
-11.184 -11.182  -0.989  -0.729  -0.607  -0.514  -0.462  -0.324
  1 A1    1 B1    2 A1    2 B1    3 A1    4 A1    3 B1    1 B2                 
  0.021
  5 A1                                                                         
 -- Virtual --                   
  0.092   0.103   0.103   0.115   0.117   0.122   0.158   0.189
  4 B1    6 A1    2 B2    1 A2    7 A1    5 B1    8 A1    2 A2                 
  0.215   0.244   0.259   0.266   0.273   0.299   0.319   0.342
  6 B1    9 A1    7 B1    3 B2   10 A1    8 B1   11 A1    3 A2                 
  0.395   0.403   0.543   0.578   0.772   0.859   0.915   0.948
 12 A1    9 B1   10 B1   11 B1   13 A1   14 A1   15 A1   16 A1                 
  0.957   0.985   1.009   1.029   1.057   1.083   1.114   1.167
  4 B2   12 B1    4 A2   13 B1   17 A1   18 A1   14 B1    5 B2                 
  1.337   1.337   1.384   1.399   1.662   1.668   1.755   1.906
  6 B2    5 A2   15 B1   16 B1   19 A1   17 B1   20 A1    6 A2                 
  1.965   1.966   1.966   1.966   1.992   2.051   2.070   2.104
 18 B1   19 B1    7 B2   21 A1    8 B2   22 A1    9 B2   23 A1                 
  2.225   2.357   2.465   2.498   2.612   2.623   2.851   2.856
  7 A2   20 B1    8 A2   24 A1   21 B1   22 B1   25 A1   26 A1                 
  3.306   3.393
 23 B1   24 B1                                                                 
 
 Beta MOs, Restricted
 -- Occupied --                  
-11.184 -11.182  -0.989  -0.729  -0.607  -0.514  -0.462  -0.324
  1 A1    1 B1    2 A1    2 B1    3 A1    4 A1    3 B1    1 B2                 
  0.021
  5 A1                                                                         
 -- Virtual --                   
  0.092   0.103   0.103   0.115   0.117   0.122   0.158   0.189
  4 B1    6 A1    2 B2    1 A2    7 A1    5 B1    8 A1    2 A2                 
  0.215   0.244   0.259   0.266   0.273   0.299   0.319   0.342
  6 B1    9 A1    7 B1    3 B2   10 A1    8 B1   11 A1    3 A2                 
  0.395   0.403   0.543   0.578   0.772   0.859   0.915   0.948
 12 A1    9 B1   10 B1   11 B1   13 A1   14 A1   15 A1   16 A1                 
  0.957   0.985   1.009   1.029   1.057   1.083   1.114   1.167
  4 B2   12 B1    4 A2   13 B1   17 A1   18 A1   14 B1    5 B2                 
  1.337   1.337   1.384   1.399   1.662   1.668   1.755   1.906
  6 B2    5 A2   15 B1   16 B1   19 A1   17 B1   20 A1    6 A2                 
  1.965   1.966   1.966   1.966   1.992   2.051   2.070   2.104
 18 B1   19 B1    7 B2   21 A1    8 B2   22 A1    9 B2   23 A1                 
  2.225   2.357   2.465   2.498   2.612   2.623   2.851   2.856
  7 A2   20 B1    8 A2   24 A1   21 B1   22 B1   25 A1   26 A1                 
  3.306   3.393
 23 B1   24 B1                                                                 

--------------------------------------------------------------------------------
                                   HF Summary                                   
--------------------------------------------------------------------------------
  Energy:                                                  -78.4868943969 a.u.
  Dip. moment [a.u.]:                  [  -0.000000,   -0.000000,  -17.663790]
  Total dipole [Debye]:                                              44.896884
  <r^2> [a.u.]:                        [  50.732829,   14.982893,  676.669099]
  Total <r^2> [a.u.]:                                               742.384821
--------------------------------------------------------------------------------

--------------------------------------------------------------------------------
                                 MP(2) Summary                                  
--------------------------------------------------------------------------------
  MP energy contribution:                                   -0.2978740815 a.u.
  Total energy:                                            -78.7847684784 a.u.
  Dip. moment [a.u.]:                  [  -0.000000,   -0.000000,  -17.654248]
  Total dipole [Debye]:                                              44.872631
  <r^2> [a.u.]:                        [  50.804898,   14.799002,  676.529911]
  Total <r^2> [a.u.]:                                               742.133811

  Density matrix analysis:
  ------------------------
  NOs
    Occupation of frontier NOs:
       0.0447   1.9372
    Number of electrons: 18.000000
    Number of unpaired electrons: n_u =  0.43187, n_u,nl =  0.04668
    NO participation ratio (PR_NO): 15.336726
  
  
  Mulliken Population Analysis
  Atom      Charge (e)              h+              e-           Del q
  --------------------------------------------------------------------
   1 C       -0.173900        0.088167       -0.102757       -0.014590
   2 C       -0.173900        0.088167       -0.102757       -0.014590
   3 H        0.075531        0.017793       -0.010590        0.007203
   4 H        0.075531        0.017793       -0.010590        0.007203
   5 H        0.096281        0.017469       -0.010325        0.007145
   6 H        0.096281        0.017469       -0.010325        0.007145
   7 H       -0.995826        0.022432       -0.021948        0.000484
  --------------------------------------------------------------------
  Sum:       -1.000000        0.269290       -0.269290       -0.000000
  
  Multipole moment analysis of the density matrix
    Molecular charge:                      -1.000000
    Number of electrons:                   18.000000
      Center of electronic charge [Ang]: [  0.000000,   0.000000,   0.519013]
    Total nuclear charge:                  17.000000
      Center of nuclear charge [Ang]:    [ -0.000000,   0.000000,  -0.000000]
    Dipole moment [D]:                     44.872618
      Cartesian components [D]:          [ -0.000000,  -0.000000, -44.872618]
    RMS size of the density [Ang]:         3.357991
      Cartesian components [Ang]:        [  0.889033,   0.479823,   3.202420]
  
  Exciton analysis of the difference density matrix
    <r_h> [Ang]:                  [ -0.000000,  -0.000000,   0.241289]
    <r_e> [Ang]:                  [ -0.000000,  -0.000000,   0.222539]
    |<r_e - r_h>| [Ang]:            0.018750
    Hole size [Ang]:                3.116301
      Cartesian components [Ang]: [  0.962252,   0.760181,   2.864879]
    Electron size [Ang]:            3.075550
      Cartesian components [Ang]: [  1.000435,   0.621813,   2.841036]
--------------------------------------------------------------------------------
Less singles guess vectors found than requested: 85 (found), 100 (requested).
Adjusting number of doubles guess vectors to 15.
  Starting Davidson for singlet states of irrep A2 ... 
--------------------------------------------------------------------------------
   It NVec Conv  Avg. Norm  Max. Norm  Conv. states           Remark
--------------------------------------------------------------------------------
       100    0  3.384e-02  2.999e-01  0.0583 n n n n n n n n Guess.
    1  110    1  2.673e-03  2.111e-02  0.0370 n n y n n n n n 
    2  120    5  6.003e-05  5.651e-04  0.0370 n n y y y y n n 
    3  130    9  3.967e-06  3.895e-05  0.0370 y y y y y y n y 
    4  140   10  1.408e-07  1.389e-06  0.0370 y y y y y y y y Converged.
--------------------------------------------------------------------------------
  Davidson Summary: 
 ------------------------------------------------------------
  State  0: excitation energy =   0.0370 a.u.   (converged)
  State  1: excitation energy =   0.0796 a.u.   (converged)
  State  2: excitation energy =   0.1532 a.u.   (converged)
  State  3: excitation energy =   0.1786 a.u.   (converged)
  State  4: excitation energy =   0.1837 a.u.   (converged)
  State  5: excitation energy =   0.1904 a.u.   (converged)
  State  6: excitation energy =   0.2303 a.u.   (converged)
  State  7: excitation energy =   0.2311 a.u.   (converged)
  State  8: excitation energy =   0.2524 a.u.   (converged)
  State  9: excitation energy =   0.2640 a.u.   (converged)
 ------------------------------------------------------------


--------------------------------------------------------------------------------
                   State-averaged natural transition orbitals
--------------------------------------------------------------------------------
--------------------------------------------------------------------------------

--------------------------------------------------------------------------------
                             Excited State Summary
--------------------------------------------------------------------------------
--------------------------------------------------------------------------------

  Excited state 1 (singlet, A2)                                    [converged]
  ----------------------------------------------------------------------------
  Term symbol:  1 (1) A2                                    R^2 =  2.79057e-08

  Total energy:                                            -78.7477893548 a.u.
  Excitation energy:                                               1.006253 eV

  Osc. strength:                                                      0.000000
  Trans. dip. moment [a.u.]:           [   0.000000,   -0.000000,   -0.000000]
  <i|r^2|0> [a.u.]:                    [  -0.000000,   -0.000000,    0.000000]

  Dip. moment [a.u.]:                  [  -0.000000,    0.000000,    1.319371]
  Total dipole [Debye]:                                               3.353507
  <r^2> [a.u.]:                        [  83.858083,   46.980495,  369.577646]
  Total <r^2> [a.u.]:                                               500.416224

  V1^2 = 0.9586, V2^2 = 0.0414

  Important amplitudes:
      occ i      occ j       vir a       vir b          v   
    ---------------------------------------------------------
     5 (A1) A               1 (A2) A                  0.6795
     5 (A1) A               2 (A2) A                  0.1285
    ---------------------------------------------------------

  Density matrix analysis:
  ------------------------
  NOs
    Occupation of frontier NOs:
       0.9959   1.0008
    Number of electrons: 18.000000
    Number of unpaired electrons: n_u =  2.41190, n_u,nl =  2.04635
    NO participation ratio (PR_NO):  2.905122
  
  
  Mulliken Population Analysis
  Atom      Charge (e)              h+              e-           Del q
  --------------------------------------------------------------------
   1 C       -0.653845        0.046205       -0.526150       -0.479945
   2 C       -0.653845        0.046205       -0.526150       -0.479945
   3 H        0.070603        0.001958       -0.006887       -0.004929
   4 H        0.070603        0.001958       -0.006887       -0.004929
   5 H        0.078400        0.001311       -0.019192       -0.017882
   6 H        0.078400        0.001311       -0.019192       -0.017882
   7 H        0.009685        1.028757       -0.023246        1.005511
  --------------------------------------------------------------------
  Sum:       -1.000000        1.127706       -1.127706       -0.000000
  
  Multipole moment analysis of the density matrix
    Molecular charge:                      -1.000000
    Number of electrons:                   18.000000
      Center of electronic charge [Ang]: [  0.000000,  -0.000000,  -0.038788]
    Total nuclear charge:                  17.000000
      Center of nuclear charge [Ang]:    [ -0.000000,   0.000000,  -0.000000]
    Dipole moment [D]:                     3.353506
      Cartesian components [D]:          [ -0.000000,   0.000000,   3.353506]
    RMS size of the density [Ang]:         2.789900
      Cartesian components [Ang]:        [  1.142187,   0.854916,   2.397513]
  
  Exciton analysis of the difference density matrix
    <r_h> [Ang]:                  [ -0.000000,   0.000000,   8.543469]
    <r_e> [Ang]:                  [  0.000000,  -0.000000,  -0.359922]
    |<r_e - r_h>| [Ang]:            8.903391
    Hole size [Ang]:                3.161880
      Cartesian components [Ang]: [  0.807705,   0.784990,   2.954469]
    Electron size [Ang]:            4.778726
      Cartesian components [Ang]: [  2.976584,   2.933840,   2.317055]

  Transition density matrix analysis:
  -----------------------------------
  
  CT numbers (Mulliken)
    omega =     0.9507
    <Phe> =     0.0003
  
  Exciton analysis of the transition density matrix
    Trans. dipole moment [D]:             0.000000
      Cartesian components [D]:         [  0.000000,  -0.000000,  -0.000000]
    <r_h> [Ang]:                        [  0.000000,   0.000000,   9.391711]
    <r_e> [Ang]:                        [  0.000000,  -0.000000,  -0.588212]
    |<r_e - r_h>| [Ang]:                  9.979922
    Hole size [Ang]:                      1.213438
      Cartesian components [Ang]:       [  0.648729,   0.647904,   0.794861]
    Electron size [Ang]:                  4.731054
      Cartesian components [Ang]:       [  3.118275,   3.080948,   1.779603]
    RMS electron-hole separation [Ang]:  11.110987
      Cartesian components [Ang]:       [  3.185025,   3.148332,  10.168463]
    Covariance(r_h, r_e) [Ang^2]:         0.000063
    Correlation coefficient:              0.000011
    Center-of-mass size [Ang]:            2.442101
      Cartesian components [Ang]:       [  1.592529,   1.574170,   0.974524]

  Decomposition into state-averaged NTOs
    H- 0 -> L+ 0: -0.6119 ( 74.9%)
    H- 0 -> L+ 1: -0.2589 ( 13.4%)
    H- 0 -> L+ 2:  0.1843 (  6.8%)
                   omega =  95.1%
  ----------------------------------------------------------------------------


  Excited state 2 (singlet, A2)                                    [converged]
  ----------------------------------------------------------------------------
  Term symbol:  2 (1) A2                                    R^2 =  1.18740e-07

  Total energy:                                            -78.7051524058 a.u.
  Excitation energy:                                               2.166464 eV

  Osc. strength:                                                      0.000000
  Trans. dip. moment [a.u.]:           [   0.000000,    0.000000,    0.000000]
  <i|r^2|0> [a.u.]:                    [  -0.000000,   -0.000000,   -0.000000]

  Dip. moment [a.u.]:                  [  -0.000000,   -0.000000,    1.258944]
  Total dipole [Debye]:                                               3.199917
  <r^2> [a.u.]:                        [  66.968034,   29.482185,  365.494025]
  Total <r^2> [a.u.]:                                               461.944244

  V1^2 = 0.9365, V2^2 = 0.0635

  Important amplitudes:
      occ i      occ j       vir a       vir b          v   
    ---------------------------------------------------------
     5 (A1) A               2 (A2) A                 -0.6586
     5 (A1) A               1 (A2) A                  0.1386
    ---------------------------------------------------------

  Density matrix analysis:
  ------------------------
  NOs
    Occupation of frontier NOs:
       0.9906   0.9996
    Number of electrons: 18.000000
    Number of unpaired electrons: n_u =  2.41438, n_u,nl =  2.04316
    NO participation ratio (PR_NO):  2.926682
  
  
  Mulliken Population Analysis
  Atom      Charge (e)              h+              e-           Del q
  --------------------------------------------------------------------
   1 C       -0.565694        0.159004       -0.550798       -0.391795
   2 C       -0.565694        0.159004       -0.550798       -0.391795
   3 H        0.026343        0.005997       -0.055185       -0.049188
   4 H        0.026343        0.005997       -0.055185       -0.049188
   5 H        0.036193        0.005341       -0.065429       -0.060088
   6 H        0.036193        0.005341       -0.065429       -0.060088
   7 H        0.006316        1.022409       -0.020267        1.002142
  --------------------------------------------------------------------
  Sum:       -1.000000        1.363091       -1.363091       -0.000000
  
  Multipole moment analysis of the density matrix
    Molecular charge:                      -1.000000
    Number of electrons:                   18.000000
      Center of electronic charge [Ang]: [  0.000000,   0.000000,  -0.037011]
    Total nuclear charge:                  17.000000
      Center of nuclear charge [Ang]:    [ -0.000000,   0.000000,  -0.000000]
    Dipole moment [D]:                     3.199917
      Cartesian components [D]:          [ -0.000000,  -0.000000,   3.199917]
    RMS size of the density [Ang]:         2.680515
      Cartesian components [Ang]:        [  1.020701,   0.677243,   2.384255]
  
  Exciton analysis of the difference density matrix
    <r_h> [Ang]:                  [ -0.000000,   0.000000,   6.918919]
    <r_e> [Ang]:                  [ -0.000000,   0.000000,  -0.423534]
    |<r_e - r_h>| [Ang]:            7.342453
    Hole size [Ang]:                4.542351
      Cartesian components [Ang]: [  0.828806,   0.740547,   4.404273]
    Electron size [Ang]:            3.280833
      Cartesian components [Ang]: [  2.001853,   1.888087,   1.786499]

  Transition density matrix analysis:
  -----------------------------------
  
  CT numbers (Mulliken)
    omega =     0.9190
    <Phe> =     0.0000
  
  Exciton analysis of the transition density matrix
    Trans. dipole moment [D]:             0.000000
      Cartesian components [D]:         [  0.000000,   0.000000,   0.000000]
    <r_h> [Ang]:                        [  0.000000,   0.000000,   9.391793]
    <r_e> [Ang]:                        [ -0.000000,   0.000000,  -0.588106]
    |<r_e - r_h>| [Ang]:                  9.979899
    Hole size [Ang]:                      1.212757
      Cartesian components [Ang]:       [  0.648529,   0.647707,   0.794144]
    Electron size [Ang]:                  3.296384
      Cartesian components [Ang]:       [  2.192938,   2.128140,   1.236200]
    RMS electron-hole separation [Ang]:  10.579938
      Cartesian components [Ang]:       [  2.286781,   2.224519,  10.087479]
    Covariance(r_h, r_e) [Ang^2]:         0.000112
    Correlation coefficient:              0.000028
    Center-of-mass size [Ang]:            1.756214
      Cartesian components [Ang]:       [  1.143434,   1.112264,   0.734653]

  Decomposition into state-averaged NTOs
    H- 0 -> L+ 2: -0.4651 ( 43.3%)
    H- 0 -> L+ 1:  0.3801 ( 28.9%)
    H- 0 -> L+ 0: -0.3141 ( 19.7%)
                   omega =  91.9%
  ----------------------------------------------------------------------------


  Excited state 3 (singlet, A2)                                    [converged]
  ----------------------------------------------------------------------------
  Term symbol:  3 (1) A2                                    R^2 =  3.12582e-11

  Total energy:                                            -78.6315292154 a.u.
  Excitation energy:                                               4.169852 eV

  Osc. strength:                                                      0.000000
  Trans. dip. moment [a.u.]:           [   0.000000,    0.000000,   -0.000000]
  <i|r^2|0> [a.u.]:                    [  -0.000000,   -0.000000,    0.000000]

  Dip. moment [a.u.]:                  [  -0.000000,   -0.000000,   22.861256]
  Total dipole [Debye]:                                              58.107528
  <r^2> [a.u.]:                        [ 115.594929,   77.391432,   87.979895]
  Total <r^2> [a.u.]:                                               280.966257

  V1^2 = 0.0000, V2^2 = 1.0000

  Important amplitudes:
      occ i      occ j       vir a       vir b          v   
    ---------------------------------------------------------
     5 (A1) A   5 (A1) B    4 (B1) A    2 (B2) B      0.3536
     5 (A1) A               1 (A2) A                  0.0018
    ---------------------------------------------------------

  Density matrix analysis:
  ------------------------
  NOs
    Occupation of frontier NOs:
       1.0003   1.0006
    Number of electrons: 18.000000
    Number of unpaired electrons: n_u =  2.40689, n_u,nl =  2.04929
    NO participation ratio (PR_NO):  2.880806
  
  
  Mulliken Population Analysis
  Atom      Charge (e)              h+              e-           Del q
  --------------------------------------------------------------------
   1 C       -1.154784        0.001712       -0.982597       -0.980885
   2 C       -1.154784        0.001712       -0.982597       -0.980885
   3 H        0.055237        0.000062       -0.020357       -0.020294
   4 H        0.055237        0.000062       -0.020357       -0.020294
   5 H        0.099309        0.000071        0.002957        0.003028
   6 H        0.099309        0.000071        0.002957        0.003028
   7 H        1.000476        1.996302       -0.000000        1.996302
  --------------------------------------------------------------------
  Sum:       -1.000000        1.999993       -1.999993       -0.000000
  
  Multipole moment analysis of the density matrix
    Molecular charge:                      -1.000000
    Number of electrons:                   18.000000
      Center of electronic charge [Ang]: [  0.000000,   0.000000,  -0.672092]
    Total nuclear charge:                  17.000000
      Center of nuclear charge [Ang]:    [ -0.000000,   0.000000,  -0.000000]
    Dipole moment [D]:                     58.107511
      Cartesian components [D]:          [ -0.000000,  -0.000000,  58.107511]
    RMS size of the density [Ang]:         1.979728
      Cartesian components [Ang]:        [  1.341017,   1.097264,   0.957605]
  
  Exciton analysis of the difference density matrix
    <r_h> [Ang]:                  [ -0.000000,   0.000000,   9.394934]
    <r_e> [Ang]:                  [  0.000000,   0.000000,  -1.325047]
    |<r_e - r_h>| [Ang]:           10.719981
    Hole size [Ang]:                1.198002
      Cartesian components [Ang]: [  0.647922,   0.647228,   0.772335]
    Electron size [Ang]:            4.834664
      Cartesian components [Ang]: [  3.080806,   3.030309,   2.167911]

  Transition density matrix analysis:
  -----------------------------------
  
  CT numbers (Mulliken)
    omega =     0.0000
    <Phe> =     0.0029
  
  Exciton analysis of the transition density matrix
    Trans. dipole moment [D]:             0.000000
      Cartesian components [D]:         [  0.000000,   0.000000,  -0.000000]
    <r_h> [Ang]:                        [  0.000000,   0.000000,   9.346358]
    <r_e> [Ang]:                        [  0.000000,  -0.000000,  -0.589401]
    |<r_e - r_h>| [Ang]:                  9.935759
    Hole size [Ang]:                      1.446044
      Cartesian components [Ang]:       [  0.682204,   0.668069,   1.085967]
    Electron size [Ang]:                  5.612270
      Cartesian components [Ang]:       [  3.683874,   3.666376,   2.117626]
    RMS electron-hole separation [Ang]:  11.502800
      Cartesian components [Ang]:       [  3.751826,   3.725158,  10.215743]
    Covariance(r_h, r_e) [Ang^2]:        -0.003240
    Correlation coefficient:             -0.000399
    Center-of-mass size [Ang]:            2.897505
      Cartesian components [Ang]:       [  1.870592,   1.864166,   1.192186]

  Decomposition into state-averaged NTOs
                   omega =   0.0%
  ----------------------------------------------------------------------------


  Excited state 4 (singlet, A2)                                    [converged]
  ----------------------------------------------------------------------------
  Term symbol:  4 (1) A2                                    R^2 =  1.08268e-08

  Total energy:                                            -78.6061475497 a.u.
  Excitation energy:                                               4.860523 eV

  Osc. strength:                                                      0.000000
  Trans. dip. moment [a.u.]:           [   0.000000,    0.000000,   -0.000000]
  <i|r^2|0> [a.u.]:                    [  -0.000000,   -0.000000,    0.000000]

  Dip. moment [a.u.]:                  [  -0.000000,    0.000000,   20.556284]
  Total dipole [Debye]:                                              52.248872
  <r^2> [a.u.]:                        [ 105.806510,   66.443003,  107.000941]
  Total <r^2> [a.u.]:                                               279.250454

  V1^2 = 0.0182, V2^2 = 0.9818

  Important amplitudes:
      occ i      occ j       vir a       vir b          v   
    ---------------------------------------------------------
     5 (A1) A   5 (A1) B    6 (A1) A    1 (A2) B     -0.3497
     5 (A1) A               1 (A2) A                  0.0949
    ---------------------------------------------------------

  Density matrix analysis:
  ------------------------
  NOs
    Occupation of frontier NOs:
       1.0008   1.0012
    Number of electrons: 18.000000
    Number of unpaired electrons: n_u =  2.40498, n_u,nl =  2.04867
    NO participation ratio (PR_NO):  2.879388
  
  
  Mulliken Population Analysis
  Atom      Charge (e)              h+              e-           Del q
  --------------------------------------------------------------------
   1 C       -1.140565        0.000579       -0.967245       -0.966666
   2 C       -1.140565        0.000579       -0.967245       -0.966666
   3 H        0.060551        0.000065       -0.015046       -0.014980
   4 H        0.060551        0.000065       -0.015046       -0.014980
   5 H        0.084550       -0.000011       -0.011720       -0.011731
   6 H        0.084550       -0.000011       -0.011720       -0.011731
   7 H        0.990929        1.987067       -0.000312        1.986755
  --------------------------------------------------------------------
  Sum:       -1.000000        1.988333       -1.988333       -0.000000
  
  Multipole moment analysis of the density matrix
    Molecular charge:                      -1.000000
    Number of electrons:                   18.000000
      Center of electronic charge [Ang]: [  0.000000,  -0.000000,  -0.604329]
    Total nuclear charge:                  17.000000
      Center of nuclear charge [Ang]:    [ -0.000000,   0.000000,  -0.000000]
    Dipole moment [D]:                     52.248856
      Cartesian components [D]:          [ -0.000000,   0.000000,  52.248856]
    RMS size of the density [Ang]:         1.994774
      Cartesian components [Ang]:        [  1.282984,   1.016692,   1.139919]
  
  Exciton analysis of the difference density matrix
    <r_h> [Ang]:                  [ -0.000000,   0.000000,   9.405358]
    <r_e> [Ang]:                  [  0.000000,  -0.000000,  -0.764034]
    |<r_e - r_h>| [Ang]:           10.169392
    Hole size [Ang]:                1.143510
      Cartesian components [Ang]: [  0.644649,   0.642636,   0.692143]
    Electron size [Ang]:            4.898375
      Cartesian components [Ang]: [  2.856881,   2.772419,   2.854121]

  Transition density matrix analysis:
  -----------------------------------
  
  CT numbers (Mulliken)
    omega =     0.0182
    <Phe> =     0.0003
  
  Exciton analysis of the transition density matrix
    Trans. dipole moment [D]:             0.000000
      Cartesian components [D]:         [  0.000000,   0.000000,  -0.000000]
    <r_h> [Ang]:                        [ -0.000000,   0.000000,   9.411368]
    <r_e> [Ang]:                        [  0.000000,  -0.000000,  -0.588208]
    |<r_e - r_h>| [Ang]:                  9.999576
    Hole size [Ang]:                      1.081712
      Cartesian components [Ang]:       [  0.622106,   0.622044,   0.629402]
    Electron size [Ang]:                  5.278201
      Cartesian components [Ang]:       [  3.471196,   3.443467,   1.988150]
    RMS electron-hole separation [Ang]:  11.358739
      Cartesian components [Ang]:       [  3.526495,   3.499196,  10.214716]
    Covariance(r_h, r_e) [Ang^2]:         0.000040
    Correlation coefficient:              0.000007
    Center-of-mass size [Ang]:            2.693956
      Cartesian components [Ang]:       [  1.763255,   1.749602,   1.042699]

  Decomposition into state-averaged NTOs
    H- 0 -> L+ 0: -0.0932 (  1.7%)
                   omega =   1.8%
  ----------------------------------------------------------------------------


  Excited state 5 (singlet, A2)                                    [converged]
  ----------------------------------------------------------------------------
  Term symbol:  5 (1) A2                                    R^2 =  1.32073e-09

  Total energy:                                            -78.6011058622 a.u.
  Excitation energy:                                               4.997714 eV

  Osc. strength:                                                      0.000000
  Trans. dip. moment [a.u.]:           [   0.000000,   -0.000000,   -0.000000]
  <i|r^2|0> [a.u.]:                    [  -0.000000,   -0.000000,    0.000000]

  Dip. moment [a.u.]:                  [   0.000000,   -0.000000,   17.536716]
  Total dipole [Debye]:                                              44.573894
  <r^2> [a.u.]:                        [ 110.050478,   74.481696,   95.546404]
  Total <r^2> [a.u.]:                                               280.078578

  V1^2 = 0.0001, V2^2 = 0.9999

  Important amplitudes:
      occ i      occ j       vir a       vir b          v   
    ---------------------------------------------------------
     5 (A1) A   5 (A1) B    5 (B1) A    2 (B2) B     -0.3535
     5 (A1) A   5 (A1) B    6 (A1) A    1 (A2) B     -0.0061
    ---------------------------------------------------------

  Density matrix analysis:
  ------------------------
  NOs
    Occupation of frontier NOs:
       0.9999   1.0003
    Number of electrons: 18.000000
    Number of unpaired electrons: n_u =  2.40824, n_u,nl =  2.04930
    NO participation ratio (PR_NO):  2.882381
  
  
  Mulliken Population Analysis
  Atom      Charge (e)              h+              e-           Del q
  --------------------------------------------------------------------
   1 C       -1.137921        0.001709       -0.965730       -0.964021
   2 C       -1.137921        0.001709       -0.965730       -0.964021
   3 H        0.073319        0.000062       -0.002274       -0.002212
   4 H        0.073319        0.000062       -0.002274       -0.002212
   5 H        0.064384        0.000070       -0.031967       -0.031897
   6 H        0.064384        0.000070       -0.031967       -0.031897
   7 H        1.000434        1.996261       -0.000001        1.996260
  --------------------------------------------------------------------
  Sum:       -1.000000        1.999944       -1.999944        0.000000
  
  Multipole moment analysis of the density matrix
    Molecular charge:                      -1.000000
    Number of electrons:                   18.000000
      Center of electronic charge [Ang]: [ -0.000000,   0.000000,  -0.515557]
    Total nuclear charge:                  17.000000
      Center of nuclear charge [Ang]:    [ -0.000000,   0.000000,  -0.000000]
    Dipole moment [D]:                     44.573881
      Cartesian components [D]:          [  0.000000,  -0.000000,  44.573881]
    RMS size of the density [Ang]:         2.022726
      Cartesian components [Ang]:        [  1.308461,   1.076440,   1.104821]
  
  Exciton analysis of the difference density matrix
    <r_h> [Ang]:                  [ -0.000000,   0.000000,   9.394970]
    <r_e> [Ang]:                  [ -0.000000,   0.000000,   0.083582]
    |<r_e - r_h>| [Ang]:            9.311388
    Hole size [Ang]:                1.197814
      Cartesian components [Ang]: [  0.647911,   0.647216,   0.772063]
    Electron size [Ang]:            4.999711
      Cartesian components [Ang]: [  2.952160,   2.962355,   2.739766]

  Transition density matrix analysis:
  -----------------------------------
  
  CT numbers (Mulliken)
    omega =     0.0001
    <Phe> =     0.0006
  
  Exciton analysis of the transition density matrix
    Trans. dipole moment [D]:             0.000000
      Cartesian components [D]:         [  0.000000,  -0.000000,  -0.000000]
    <r_h> [Ang]:                        [  0.000000,   0.000000,   9.394402]
    <r_e> [Ang]:                        [  0.000000,  -0.000000,  -0.588068]
    |<r_e - r_h>| [Ang]:                  9.982470
    Hole size [Ang]:                      1.193638
      Cartesian components [Ang]:       [  0.644933,   0.642548,   0.771988]
    Electron size [Ang]:                  5.582296
      Cartesian components [Ang]:       [  3.665074,   3.646402,   2.105472]
    RMS electron-hole separation [Ang]:  11.500763
      Cartesian components [Ang]:       [  3.725014,   3.702767,  10.231390]
    Covariance(r_h, r_e) [Ang^2]:        -0.015515
    Correlation coefficient:             -0.002328
    Center-of-mass size [Ang]:            2.852883
      Cartesian components [Ang]:       [  1.858877,   1.851198,   1.120975]

  Decomposition into state-averaged NTOs
                   omega =   0.0%
  ----------------------------------------------------------------------------


  Excited state 6 (singlet, A2)                                    [converged]
  ----------------------------------------------------------------------------
  Term symbol:  6 (1) A2                                    R^2 =  4.23533e-09

  Total energy:                                            -78.5943569710 a.u.
  Excitation energy:                                               5.181361 eV

  Osc. strength:                                                      0.000000
  Trans. dip. moment [a.u.]:           [   0.000000,    0.000000,   -0.000000]
  <i|r^2|0> [a.u.]:                    [  -0.000000,   -0.000000,    0.000000]

  Dip. moment [a.u.]:                  [   0.000000,    0.000000,   20.009111]
  Total dipole [Debye]:                                              50.858098
  <r^2> [a.u.]:                        [ 153.141118,   64.518674,   71.951740]
  Total <r^2> [a.u.]:                                               289.611532

  V1^2 = 0.0014, V2^2 = 0.9986

  Important amplitudes:
      occ i      occ j       vir a       vir b          v   
    ---------------------------------------------------------
     5 (A1) A   5 (A1) B    7 (A1) A    1 (A2) B     -0.3529
     5 (A1) A               1 (A2) A                  0.0258
    ---------------------------------------------------------

  Density matrix analysis:
  ------------------------
  NOs
    Occupation of frontier NOs:
       1.0003   1.0014
    Number of electrons: 18.000000
    Number of unpaired electrons: n_u =  2.40558, n_u,nl =  2.04890
    NO participation ratio (PR_NO):  2.879751
  
  
  Mulliken Population Analysis
  Atom      Charge (e)              h+              e-           Del q
  --------------------------------------------------------------------
   1 C       -1.181444        0.001613       -1.009157       -1.007544
   2 C       -1.181444        0.001613       -1.009157       -1.007544
   3 H        0.081383        0.000059        0.005792        0.005851
   4 H        0.081383        0.000059        0.005792        0.005851
   5 H        0.100151        0.000062        0.003808        0.003870
   6 H        0.100151        0.000062        0.003808        0.003870
   7 H        0.999821        1.995666       -0.000019        1.995647
  --------------------------------------------------------------------
  Sum:       -1.000000        1.999134       -1.999134       -0.000000
  
  Multipole moment analysis of the density matrix
    Molecular charge:                      -1.000000
    Number of electrons:                   18.000000
      Center of electronic charge [Ang]: [ -0.000000,  -0.000000,  -0.588243]
    Total nuclear charge:                  17.000000
      Center of nuclear charge [Ang]:    [ -0.000000,   0.000000,  -0.000000]
    Dipole moment [D]:                     50.858082
      Cartesian components [D]:          [  0.000000,   0.000000,  50.858082]
    RMS size of the density [Ang]:         2.039485
      Cartesian components [Ang]:        [  1.543515,   1.001861,   0.879394]
  
  Exciton analysis of the difference density matrix
    <r_h> [Ang]:                  [  0.000000,   0.000000,   9.395849]
    <r_e> [Ang]:                  [ -0.000000,  -0.000000,  -0.573766]
    |<r_e - r_h>| [Ang]:            9.969614
    Hole size [Ang]:                1.193486
      Cartesian components [Ang]: [  0.647861,   0.646791,   0.765732]
    Electron size [Ang]:            5.098053
      Cartesian components [Ang]: [  3.841154,   2.717134,   1.962871]

  Transition density matrix analysis:
  -----------------------------------
  
  CT numbers (Mulliken)
    omega =     0.0014
    <Phe> =     0.0003
  
  Exciton analysis of the transition density matrix
    Trans. dipole moment [D]:             0.000000
      Cartesian components [D]:         [  0.000000,   0.000000,  -0.000000]
    <r_h> [Ang]:                        [ -0.000000,   0.000000,   9.411548]
    <r_e> [Ang]:                        [  0.000000,  -0.000000,  -0.588217]
    |<r_e - r_h>| [Ang]:                  9.999765
    Hole size [Ang]:                      1.079397
      Cartesian components [Ang]:       [  0.620520,   0.620478,   0.628538]
    Electron size [Ang]:                  5.296368
      Cartesian components [Ang]:       [  3.482871,   3.455522,   1.995118]
    RMS electron-hole separation [Ang]:  11.367140
      Cartesian components [Ang]:       [  3.537713,   3.510783,  10.216206]
    Covariance(r_h, r_e) [Ang^2]:         0.000022
    Correlation coefficient:              0.000004
    Center-of-mass size [Ang]:            2.702622
      Cartesian components [Ang]:       [  1.768860,   1.755395,   1.045891]

  Decomposition into state-averaged NTOs
                   omega =   0.1%
  ----------------------------------------------------------------------------


  Excited state 7 (singlet, A2)                                    [converged]
  ----------------------------------------------------------------------------
  Term symbol:  7 (1) A2                                    R^2 =  1.38880e-06

  Total energy:                                            -78.5545068563 a.u.
  Excitation energy:                                               6.265737 eV

  Osc. strength:                                                      0.000000
  Trans. dip. moment [a.u.]:           [   0.000000,   -0.000000,    0.000000]
  <i|r^2|0> [a.u.]:                    [   0.000000,   -0.000000,   -0.000000]

  Dip. moment [a.u.]:                  [  -0.000000,   -0.000000,    1.905349]
  Total dipole [Debye]:                                               4.842914
  <r^2> [a.u.]:                        [  69.177123,   32.348735,  356.694598]
  Total <r^2> [a.u.]:                                               458.220456

  V1^2 = 0.9068, V2^2 = 0.0932

  Important amplitudes:
      occ i      occ j       vir a       vir b          v   
    ---------------------------------------------------------
     5 (A1) A               3 (A2) A                  0.6593
     5 (A1) A               2 (A2) A                  0.1308
    ---------------------------------------------------------

  Density matrix analysis:
  ------------------------
  NOs
    Occupation of frontier NOs:
       0.9510   0.9707
    Number of electrons: 18.000000
    Number of unpaired electrons: n_u =  2.44652, n_u,nl =  2.06311
    NO participation ratio (PR_NO):  3.209468
  
  
  Mulliken Population Analysis
  Atom      Charge (e)              h+              e-           Del q
  --------------------------------------------------------------------
   1 C       -0.615495        0.103323       -0.544919       -0.441595
   2 C       -0.615495        0.103323       -0.544919       -0.441595
   3 H        0.043045        0.000596       -0.033082       -0.032487
   4 H        0.043045        0.000596       -0.033082       -0.032487
   5 H        0.052558       -0.000092       -0.043631       -0.043724
   6 H        0.052558       -0.000092       -0.043631       -0.043724
   7 H        0.039785        1.054155       -0.018543        1.035611
  --------------------------------------------------------------------
  Sum:       -1.000000        1.261808       -1.261808       -0.000000
  
  Multipole moment analysis of the density matrix
    Molecular charge:                      -1.000000
    Number of electrons:                   18.000000
      Center of electronic charge [Ang]: [  0.000000,   0.000000,  -0.056015]
    Total nuclear charge:                  17.000000
      Center of nuclear charge [Ang]:    [ -0.000000,   0.000000,  -0.000000]
    Dipole moment [D]:                     4.842913
      Cartesian components [D]:          [ -0.000000,  -0.000000,   4.842913]
    RMS size of the density [Ang]:         2.669356
      Cartesian components [Ang]:        [  1.037400,   0.709404,   2.354997]
  
  Exciton analysis of the difference density matrix
    <r_h> [Ang]:                  [ -0.000000,   0.000000,   7.773667]
    <r_e> [Ang]:                  [  0.000000,   0.000000,  -0.429238]
    |<r_e - r_h>| [Ang]:            8.202905
    Hole size [Ang]:                3.950375
      Cartesian components [Ang]: [  0.800815,   0.739175,   3.797075]
    Electron size [Ang]:            3.583749
      Cartesian components [Ang]: [  2.172231,   2.107398,   1.919255]

  Transition density matrix analysis:
  -----------------------------------
  
  CT numbers (Mulliken)
    omega =     0.8969
    <Phe> =     0.0000
  
  Exciton analysis of the transition density matrix
    Trans. dipole moment [D]:             0.000000
      Cartesian components [D]:         [  0.000000,  -0.000000,   0.000000]
    <r_h> [Ang]:                        [  0.000000,   0.000000,   9.391672]
    <r_e> [Ang]:                        [  0.000000,   0.000000,  -0.588194]
    |<r_e - r_h>| [Ang]:                  9.979866
    Hole size [Ang]:                      1.213511
      Cartesian components [Ang]:       [  0.648672,   0.647847,   0.795064]
    Electron size [Ang]:                  3.493757
      Cartesian components [Ang]:       [  2.302932,   2.275260,   1.313787]
    RMS electron-hole separation [Ang]:  10.643148
      Cartesian components [Ang]:       [  2.392535,   2.365691,  10.097321]
    Covariance(r_h, r_e) [Ang^2]:         0.000034
    Correlation coefficient:              0.000008
    Center-of-mass size [Ang]:            1.849258
      Cartesian components [Ang]:       [  1.196278,   1.182849,   0.767816]

  Decomposition into state-averaged NTOs
    H- 0 -> L+ 1: -0.4995 ( 49.9%)
    H- 0 -> L+ 2: -0.4404 ( 38.8%)
    H- 0 -> L+ 0:  0.0713 (  1.0%)
                   omega =  89.7%
  ----------------------------------------------------------------------------


  Excited state 8 (singlet, A2)                                    [converged]
  ----------------------------------------------------------------------------
  Term symbol:  8 (1) A2                                    R^2 =  9.98014e-08

  Total energy:                                            -78.5536239535 a.u.
  Excitation energy:                                               6.289762 eV

  Osc. strength:                                                      0.000000
  Trans. dip. moment [a.u.]:           [   0.000000,   -0.000000,   -0.000000]
  <i|r^2|0> [a.u.]:                    [  -0.000000,   -0.000000,    0.000000]

  Dip. moment [a.u.]:                  [  -0.000000,    0.000000,   19.529763]
  Total dipole [Debye]:                                              49.639715
  <r^2> [a.u.]:                        [ 102.186230,   64.044608,   68.812242]
  Total <r^2> [a.u.]:                                               235.043080

  V1^2 = 0.0050, V2^2 = 0.9950

  Important amplitudes:
      occ i      occ j       vir a       vir b          v   
    ---------------------------------------------------------
     5 (A1) A   5 (A1) B    8 (A1) A    1 (A2) B     -0.3526
     5 (A1) A               3 (A2) A                  0.0476
    ---------------------------------------------------------

  Density matrix analysis:
  ------------------------
  NOs
    Occupation of frontier NOs:
       0.9962   0.9978
    Number of electrons: 18.000000
    Number of unpaired electrons: n_u =  2.40897, n_u,nl =  2.04894
    NO participation ratio (PR_NO):  2.900467
  
  
  Mulliken Population Analysis
  Atom      Charge (e)              h+              e-           Del q
  --------------------------------------------------------------------
   1 C       -1.307358        0.002153       -1.135611       -1.133458
   2 C       -1.307358        0.002153       -1.135611       -1.133458
   3 H        0.153729        0.000070        0.078128        0.078198
   4 H        0.153729        0.000070        0.078128        0.078198
   5 H        0.155925        0.000027        0.059616        0.059644
   6 H        0.155925        0.000027        0.059616        0.059644
   7 H        0.995407        1.991273       -0.000040        1.991233
  --------------------------------------------------------------------
  Sum:       -1.000000        1.995774       -1.995774        0.000000
  
  Multipole moment analysis of the density matrix
    Molecular charge:                      -1.000000
    Number of electrons:                   18.000000
      Center of electronic charge [Ang]: [  0.000000,  -0.000000,  -0.574150]
    Total nuclear charge:                  17.000000
      Center of nuclear charge [Ang]:    [ -0.000000,   0.000000,  -0.000000]
    Dipole moment [D]:                     49.639700
      Cartesian components [D]:          [ -0.000000,   0.000000,  49.639700]
    RMS size of the density [Ang]:         1.823993
      Cartesian components [Ang]:        [  1.260843,   0.998174,   0.860740]
  
  Exciton analysis of the difference density matrix
    <r_h> [Ang]:                  [ -0.000000,   0.000000,   9.390326]
    <r_e> [Ang]:                  [  0.000000,  -0.000000,  -0.468974]
    |<r_e - r_h>| [Ang]:            9.859300
    Hole size [Ang]:                1.219024
      Cartesian components [Ang]: [  0.648100,   0.647269,   0.804380]
    Electron size [Ang]:            4.277152
      Cartesian components [Ang]: [  2.762135,   2.707147,   1.826470]

  Transition density matrix analysis:
  -----------------------------------
  
  CT numbers (Mulliken)
    omega =     0.0049
    <Phe> =     0.0000
  
  Exciton analysis of the transition density matrix
    Trans. dipole moment [D]:             0.000000
      Cartesian components [D]:         [  0.000000,  -0.000000,  -0.000000]
    <r_h> [Ang]:                        [  0.000000,   0.000000,   9.392839]
    <r_e> [Ang]:                        [  0.000000,   0.000000,  -0.588049]
    |<r_e - r_h>| [Ang]:                  9.980888
    Hole size [Ang]:                      1.205820
      Cartesian components [Ang]:       [  0.646805,   0.646023,   0.786320]
    Electron size [Ang]:                  3.196046
      Cartesian components [Ang]:       [  2.112629,   2.076886,   1.199190]
    RMS electron-hole separation [Ang]:  10.549255
      Cartesian components [Ang]:       [  2.209414,   2.175036,  10.083376]
    Covariance(r_h, r_e) [Ang^2]:         0.000032
    Correlation coefficient:              0.000008
    Center-of-mass size [Ang]:            1.707980
      Cartesian components [Ang]:       [  1.104718,   1.087522,   0.717000]

  Decomposition into state-averaged NTOs
                   omega =   0.5%
  ----------------------------------------------------------------------------


  Excited state 9 (singlet, A2)                                    [converged]
  ----------------------------------------------------------------------------
  Term symbol:  9 (1) A2                                    R^2 =  1.66485e-07

  Total energy:                                            -78.5323798895 a.u.
  Excitation energy:                                               6.867843 eV

  Osc. strength:                                                      0.000000
  Trans. dip. moment [a.u.]:           [  -0.000000,    0.000000,   -0.000000]
  <i|r^2|0> [a.u.]:                    [   0.000000,    0.000000,    0.000000]

  Dip. moment [a.u.]:                  [  -0.000000,   -0.000000,   20.096767]
  Total dipole [Debye]:                                              51.080895
  <r^2> [a.u.]:                        [  80.358193,   40.794383,  104.997674]
  Total <r^2> [a.u.]:                                               226.150251

  V1^2 = 0.0412, V2^2 = 0.9588

  Important amplitudes:
      occ i      occ j       vir a       vir b          v   
    ---------------------------------------------------------
     5 (A1) A   5 (A1) B    6 (A1) A    2 (A2) B     -0.3454
     5 (A1) A               3 (A2) A                  0.1056
    ---------------------------------------------------------

  Density matrix analysis:
  ------------------------
  NOs
    Occupation of frontier NOs:
       0.9784   0.9995
    Number of electrons: 18.000000
    Number of unpaired electrons: n_u =  2.40955, n_u,nl =  2.04815
    NO participation ratio (PR_NO):  2.948391
  
  
  Mulliken Population Analysis
  Atom      Charge (e)              h+              e-           Del q
  --------------------------------------------------------------------
   1 C       -1.120619        0.001648       -0.948367       -0.946719
   2 C       -1.120619        0.001648       -0.948367       -0.946719
   3 H        0.056590        0.000012       -0.018953       -0.018941
   4 H        0.056590        0.000012       -0.018953       -0.018941
   5 H        0.080402       -0.000019       -0.015860       -0.015879
   6 H        0.080402       -0.000019       -0.015860       -0.015879
   7 H        0.967253        1.963487       -0.000408        1.963079
  --------------------------------------------------------------------
  Sum:       -1.000000        1.966769       -1.966769       -0.000000
  
  Multipole moment analysis of the density matrix
    Molecular charge:                      -1.000000
    Number of electrons:                   18.000000
      Center of electronic charge [Ang]: [  0.000000,   0.000000,  -0.590819]
    Total nuclear charge:                  17.000000
      Center of nuclear charge [Ang]:    [ -0.000000,   0.000000,  -0.000000]
    Dipole moment [D]:                     51.080880
      Cartesian components [D]:          [ -0.000000,  -0.000000,  51.080880]
    RMS size of the density [Ang]:         1.780220
      Cartesian components [Ang]:        [  1.118098,   0.796645,   1.133312]
  
  Exciton analysis of the difference density matrix
    <r_h> [Ang]:                  [ -0.000000,   0.000000,   9.395119]
    <r_e> [Ang]:                  [  0.000000,   0.000000,  -0.762137]
    |<r_e - r_h>| [Ang]:           10.157255
    Hole size [Ang]:                1.189623
      Cartesian components [Ang]: [  0.646773,   0.644093,   0.762911]
    Electron size [Ang]:            3.954350
      Cartesian components [Ang]: [  2.150840,   2.028812,   2.625776]

  Transition density matrix analysis:
  -----------------------------------
  
  CT numbers (Mulliken)
    omega =     0.0410
    <Phe> =     0.0000
  
  Exciton analysis of the transition density matrix
    Trans. dipole moment [D]:             0.000000
      Cartesian components [D]:         [ -0.000000,   0.000000,  -0.000000]
    <r_h> [Ang]:                        [  0.000000,   0.000000,   9.400754]
    <r_e> [Ang]:                        [  0.000000,   0.000000,  -0.588166]
    |<r_e - r_h>| [Ang]:                  9.988920
    Hole size [Ang]:                      1.155025
      Cartesian components [Ang]:       [  0.636827,   0.636344,   0.723602]
    Electron size [Ang]:                  4.106339
      Cartesian components [Ang]:       [  2.698654,   2.679943,   1.548287]
    RMS electron-hole separation [Ang]:  10.861609
      Cartesian components [Ang]:       [  2.772768,   2.754452,  10.134067]
    Covariance(r_h, r_e) [Ang^2]:         0.000036
    Correlation coefficient:              0.000008
    Center-of-mass size [Ang]:            2.132849
      Cartesian components [Ang]:       [  1.386391,   1.377230,   0.854518]

  Decomposition into state-averaged NTOs
    H- 0 -> L+ 1: -0.1360 (  3.7%)
                   omega =   4.1%
  ----------------------------------------------------------------------------


  Excited state 10 (singlet, A2)                                    [converged]
  ----------------------------------------------------------------------------
  Term symbol:  10 (1) A2                                   R^2 =  1.46231e-08

  Total energy:                                            -78.5207286762 a.u.
  Excitation energy:                                               7.184888 eV

  Osc. strength:                                                      0.000000
  Trans. dip. moment [a.u.]:           [  -0.000000,    0.000000,   -0.000000]
  <i|r^2|0> [a.u.]:                    [   0.000000,    0.000000,    0.000000]

  Dip. moment [a.u.]:                  [   0.000000,   -0.000000,   19.997897]
  Total dipole [Debye]:                                              50.829595
  <r^2> [a.u.]:                        [ 127.951600,   39.110523,   63.748385]
  Total <r^2> [a.u.]:                                               230.810508

  V1^2 = 0.0020, V2^2 = 0.9980

  Important amplitudes:
      occ i      occ j       vir a       vir b          v   
    ---------------------------------------------------------
     5 (A1) A   5 (A1) B    7 (A1) A    2 (A2) B     -0.3528
     5 (A1) A               2 (A2) A                  0.0246
    ---------------------------------------------------------

  Density matrix analysis:
  ------------------------
  NOs
    Occupation of frontier NOs:
       0.9995   1.0221
    Number of electrons: 18.000000
    Number of unpaired electrons: n_u =  2.36464, n_u,nl =  2.04275
    NO participation ratio (PR_NO):  2.843201
  
  
  Mulliken Population Analysis
  Atom      Charge (e)              h+              e-           Del q
  --------------------------------------------------------------------
   1 C       -1.172708        0.001674       -1.000482       -0.998808
   2 C       -1.172708        0.001674       -1.000482       -0.998808
   3 H        0.077093        0.000058        0.001504        0.001562
   4 H        0.077093        0.000058        0.001504        0.001562
   5 H        0.096047        0.000064       -0.000299       -0.000235
   6 H        0.096047        0.000064       -0.000299       -0.000235
   7 H        0.999136        1.994983       -0.000021        1.994962
  --------------------------------------------------------------------
  Sum:       -1.000000        1.998574       -1.998574       -0.000000
  
  Multipole moment analysis of the density matrix
    Molecular charge:                      -1.000000
    Number of electrons:                   18.000000
      Center of electronic charge [Ang]: [ -0.000000,   0.000000,  -0.587913]
    Total nuclear charge:                  17.000000
      Center of nuclear charge [Ang]:    [ -0.000000,   0.000000,  -0.000000]
    Dipole moment [D]:                     50.829580
      Cartesian components [D]:          [  0.000000,  -0.000000,  50.829580]
    RMS size of the density [Ang]:         1.801419
      Cartesian components [Ang]:        [  1.410872,   0.780031,   0.803804]
  
  Exciton analysis of the difference density matrix
    <r_h> [Ang]:                  [  0.000000,   0.000000,   9.395243]
    <r_e> [Ang]:                  [ -0.000000,   0.000000,  -0.574194]
    |<r_e - r_h>| [Ang]:            9.969437
    Hole size [Ang]:                1.196116
      Cartesian components [Ang]: [  0.647868,   0.646875,   0.769748]
    Electron size [Ang]:            4.210457
      Cartesian components [Ang]: [  3.350982,   1.955719,   1.635248]

  Transition density matrix analysis:
  -----------------------------------
  
  CT numbers (Mulliken)
    omega =     0.0020
    <Phe> =     0.0000
  
  Exciton analysis of the transition density matrix
    Trans. dipole moment [D]:             0.000000
      Cartesian components [D]:         [ -0.000000,   0.000000,  -0.000000]
    <r_h> [Ang]:                        [  0.000000,   0.000000,   9.404280]
    <r_e> [Ang]:                        [  0.000000,   0.000000,  -0.588125]
    |<r_e - r_h>| [Ang]:                  9.992405
    Hole size [Ang]:                      1.129820
      Cartesian components [Ang]:       [  0.630587,   0.630249,   0.694002]
    Electron size [Ang]:                  4.104413
      Cartesian components [Ang]:       [  2.699104,   2.677013,   1.547466]
    RMS electron-hole separation [Ang]:  10.861435
      Cartesian components [Ang]:       [  2.771780,   2.750197,  10.135306]
    Covariance(r_h, r_e) [Ang^2]:         0.000036
    Correlation coefficient:              0.000008
    Center-of-mass size [Ang]:            2.128542
      Cartesian components [Ang]:       [  1.385897,   1.375103,   0.847983]

  Decomposition into state-averaged NTOs
                   omega =   0.2%
  ----------------------------------------------------------------------------


--------------------------------------------------------------------------------
  Time of ADC calculation:  CPU 93.68 s  wall 27.78 s
================================================================================
 
 --------------------------------------------------------------
             Orbital Energies (a.u.) and Symmetries
 --------------------------------------------------------------
 
 Alpha MOs, Restricted
 -- Occupied --                  
-11.184 -11.182  -0.989  -0.729  -0.607  -0.514  -0.462  -0.324
  1 A1    1 B1    2 A1    2 B1    3 A1    4 A1    3 B1    1 B2                 
  0.021
  5 A1                                                                         
 -- Virtual --                   
  0.092   0.103   0.103   0.115   0.117   0.122   0.158   0.189
  4 B1    6 A1    2 B2    1 A2    7 A1    5 B1    8 A1    2 A2                 
  0.215   0.244   0.259   0.266   0.273   0.299   0.319   0.342
  6 B1    9 A1    7 B1    3 B2   10 A1    8 B1   11 A1    3 A2                 
  0.395   0.403   0.543   0.578   0.772   0.859   0.915   0.948
 12 A1    9 B1   10 B1   11 B1   13 A1   14 A1   15 A1   16 A1                 
  0.957   0.985   1.009   1.029   1.057   1.083   1.114   1.167
  4 B2   12 B1    4 A2   13 B1   17 A1   18 A1   14 B1    5 B2                 
  1.337   1.337   1.384   1.399   1.662   1.668   1.755   1.906
  6 B2    5 A2   15 B1   16 B1   19 A1   17 B1   20 A1    6 A2                 
  1.965   1.966   1.966   1.966   1.992   2.051   2.070   2.104
 18 B1   19 B1    7 B2   21 A1    8 B2   22 A1    9 B2   23 A1                 
  2.225   2.357   2.465   2.498   2.612   2.623   2.851   2.856
  7 A2   20 B1    8 A2   24 A1   21 B1   22 B1   25 A1   26 A1                 
  3.306   3.393
 23 B1   24 B1                                                                 
 
 Beta MOs, Restricted
 -- Occupied --                  
-11.184 -11.182  -0.989  -0.729  -0.607  -0.514  -0.462  -0.324
  1 A1    1 B1    2 A1    2 B1    3 A1    4 A1    3 B1    1 B2                 
  0.021
  5 A1                                                                         
 -- Virtual --                   
  0.092   0.103   0.103   0.115   0.117   0.122   0.158   0.189
  4 B1    6 A1    2 B2    1 A2    7 A1    5 B1    8 A1    2 A2                 
  0.215   0.244   0.259   0.266   0.273   0.299   0.319   0.342
  6 B1    9 A1    7 B1    3 B2   10 A1    8 B1   11 A1    3 A2                 
  0.395   0.403   0.543   0.578   0.772   0.859   0.915   0.948
 12 A1    9 B1   10 B1   11 B1   13 A1   14 A1   15 A1   16 A1                 
  0.957   0.985   1.009   1.029   1.057   1.083   1.114   1.167
  4 B2   12 B1    4 A2   13 B1   17 A1   18 A1   14 B1    5 B2                 
  1.337   1.337   1.384   1.399   1.662   1.668   1.755   1.906
  6 B2    5 A2   15 B1   16 B1   19 A1   17 B1   20 A1    6 A2                 
  1.965   1.966   1.966   1.966   1.992   2.051   2.070   2.104
 18 B1   19 B1    7 B2   21 A1    8 B2   22 A1    9 B2   23 A1                 
  2.225   2.357   2.465   2.498   2.612   2.623   2.851   2.856
  7 A2   20 B1    8 A2   24 A1   21 B1   22 B1   25 A1   26 A1                 
  3.306   3.393
 23 B1   24 B1                                                                 
 --------------------------------------------------------------
 
          Ground-State Mulliken Net Atomic Charges

     Atom                 Charge (a.u.)
  ----------------------------------------
      1 C                    -0.159309
      2 C                    -0.159309
      3 H                     0.068328
      4 H                     0.068328
      5 H                     0.089137
      6 H                     0.089137
      7 H                    -0.996310
  ----------------------------------------
  Sum of atomic charges =    -1.000000

 -----------------------------------------------------------------
                    Cartesian Multipole Moments
 -----------------------------------------------------------------
    Charge (ESU x 10^10)
                -4.8032
    Dipole Moment (Debye)
         X      -0.0000      Y      -0.0000      Z     -44.8969
       Tot      44.8969
    Quadrupole Moments (Debye-Ang)
        XX     -16.9748     XY      -0.0000     YY     -20.1525
        XZ       0.0000     YZ      -0.0000     ZZ    -440.2835
    Octopole Moments (Debye-Ang^2)
       XXX      -0.0000    XXY      -0.0000    XYY       0.0000
       YYY      -0.0000    XXZ     -29.1934    XYZ       0.0000
       YYZ     -27.5735    XZZ      -0.0000    YZZ      -0.0000
       ZZZ   -4079.5396
    Hexadecapole Moments (Debye-Ang^3)
      XXXX     -75.2706   XXXY      -0.0000   XXYY     -17.8435
      XYYY      -0.0000   YYYY     -28.1711   XXXZ       0.0000
      XXYZ      -0.0000   XYYZ      -0.0000   YYYZ      -0.0000
      XXZZ    -370.6549   XYZZ      -0.0000   YYZZ    -367.0872
      XZZZ       0.0000   YZZZ      -0.0000   ZZZZ  -39711.9554
 -----------------------------------------------------------------
 Total job time:  109.04s(wall), 138.72s(cpu) 
 Sun Mar 27 18:39:23 2022

        *************************************************************
        *                                                           *
        *  Thank you very much for using Q-Chem.  Have a nice day.  *
        *                                                           *
        *************************************************************


