/src/tsommerfeld/qchem/exe/qcprog.exe .input1.827778.14380.qcin.1 /src/jdavis/qchem.scratch/qchem14380/

                  Welcome to Q-Chem
     A Quantum Leap Into The Future Of Chemistry


 Q-Chem 5.4 (devel), Q-Chem, Inc., Pleasanton, CA (2021)

 E. Epifanovsky,  A. T. B. Gilbert,  Xintian Feng,  Joonho Lee,  Yuezhi Mao,  
 N. Mardirossian,  P. Pokhilko,  A. White,  M. Wormit,  M. P. Coons,  
 A. L. Dempwolff,  Zhengting Gan,  D. Hait,  P. R. Horn,  L. D. Jacobson,  
 I. Kaliman,  J. Kussmann,  A. W. Lange,  Ka Un Lao,  D. S. Levine,  Jie Liu,  
 S. C. McKenzie,  A. F. Morrison,  K. Nanda,  F. Plasser,  D. R. Rehn,  
 M. L. Vidal,  Zhi-Qiang You,  Ying Zhu,  B. Alam,  B. Albrecht,  
 A. Aldossary,  E. Alguire,  J. H. Andersen,  D. Barton,  K. Begam,  A. Behn,  
 Y. A. Bernard,  E. J. Berquist,  H. Burton,  A. Carreras,  K. Carter-Fenk,  
 R. Chakraborty,  A. D. Chien,  K. D. Closser,  V. Cofer-Shabica,  
 S. Dasgupta,  Jia Deng,  M. de Wergifosse,  M. Diedenhofen,  Hainam Do,  
 S. Ehlert,  Po-Tung Fang,  S. Fatehi,  Qingguo Feng,  T. Friedhoff,  
 J. Gayvert,  Qinghui Ge,  G. Gidofalvi,  M. Goldey,  J. Gomes,  
 C. Gonzalez-Espinoza,  S. Gulania,  A. Gunina,  M. W. D. Hanson-Heine,  
 P. H. P. Harbach,  A. W. Hauser,  M. F. Herbst,  M. Hernandez Vera,  
 M. Hodecker,  Z. C. Holden,  S. Houck,  Xunkun Huang,  Kerwin Hui,  
 B. C. Huynh,  M. Ivanov,  Hyunjun Ji,  Hanjie Jiang,  B. Kaduk,  S. Kaehler,  
 K. Khistyaev,  Jaehoon Kim,  P. Klunzinger,  Z. Koczor-Benda,  
 Joong Hoon Koh,  D. Kosenkov,  L. Koulias,  T. Kowalczyk,  C. M. Krauter,  
 K. Kue,  A. Kunitsa,  T. Kus,  A. Landau,  K. V. Lawler,  D. Lefrancois,  
 S. Lehtola,  Rain Li,  Yi-Pei Li,  Jiashu Liang,  M. Liebenthal,  
 Hung-Hsuan Lin,  You-Sheng Lin,  Fenglai Liu,  Kuan-Yu Liu,  
 M. Loipersberger,  A. Luenser,  A. Manjanath,  P. Manohar,  E. Mansoor,  
 S. F. Manzer,  Shan-Ping Mao,  A. V. Marenich,  T. Markovich,  S. Mason,  
 S. A. Maurer,  P. F. McLaughlin,  M. F. S. J. Menger,  J.-M. Mewes,  
 S. A. Mewes,  P. Morgante,  J. W. Mullinax,  K. J. Oosterbaan,  G. Paran,  
 Alexander C. Paul,  Suranjan K. Paul,  F. Pavosevic,  Zheng Pei,  S. Prager,  
 E. I. Proynov,  E. Ramos,  B. Rana,  A. E. Rask,  A. Rettig,  R. M. Richard,  
 F. Rob,  E. Rossomme,  T. Scheele,  M. Scheurer,  M. Schneider,  
 N. Sergueev,  S. M. Sharada,  W. Skomorowski,  D. W. Small,  C. J. Stein,  
 Yu-Chuan Su,  E. J. Sundstrom,  Zhen Tao,  J. Thirman,  T. Tsuchimochi,  
 N. M. Tubman,  S. P. Veccham,  O. Vydrov,  J. Wenzel,  J. Witte,  A. Yamada,  
 Kun Yao,  S. Yeganeh,  S. R. Yost,  A. Zech,  Igor Ying Zhang,  Xing Zhang,  
 Yu Zhang,  D. Zuev,  A. Aspuru-Guzik,  A. T. Bell,  N. A. Besley,  
 K. B. Bravaya,  B. R. Brooks,  D. Casanova,  Jeng-Da Chai,  S. Coriani,  
 C. J. Cramer,  A. E. DePrince, III,  R. A. DiStasio Jr.,  A. Dreuw,  
 B. D. Dunietz,  T. R. Furlani,  W. A. Goddard III,  S. Grimme,  
 S. Hammes-Schiffer,  T. Head-Gordon,  W. J. Hehre,  Chao-Ping Hsu,  
 T.-C. Jagau,  Yousung Jung,  A. Klamt,  Jing Kong,  D. S. Lambrecht,  
 WanZhen Liang,  N. J. Mayhall,  C. W. McCurdy,  J. B. Neaton,  
 C. Ochsenfeld,  J. A. Parkhill,  R. Peverati,  V. A. Rassolov,  Yihan Shao,  
 L. V. Slipchenko,  T. Stauch,  R. P. Steele,  J. E. Subotnik,  
 A. J. W. Thom,  A. Tkatchenko,  D. G. Truhlar,  T. Van Voorhis,  
 T. A. Wesolowski,  K. B. Whaley,  H. L. Woodcock III,  P. M. Zimmerman,  
 S. Faraji,  P. M. W. Gill,  M. Head-Gordon,  J. M. Herbert,  A. I. Krylov

 Additional authors for Version 5.4.1: 
 S. Kotaru,  Shaozhi Li,  Xiangyuan Li,  F. Matz,  A. Molle,  Haisheng Ren,  
 Yingli Su,  Hung-Yi Tsai,  C. Utku,  Fang Wang

 Contributors to earlier versions of Q-Chem not listed above: 
 R. D. Adamson,  B. Austin,  R. Baer,  J. Baker,  G. J. O. Beran,  
 K. Brandhorst,  S. T. Brown,  E. F. C. Byrd,  A. K. Chakraborty,  
 G. K. L. Chan,  Chun-Min Chang,  Yunqing Chen,  C.-L. Cheng,  
 Siu Hung Chien,  D. M. Chipman,  D. L. Crittenden,  H. Dachsel,  
 R. J. Doerksen,  A. D. Dutoi,  R. G. Edgar,  J. Fosso-Tande,  
 L. Fusti-Molnar,  D. Ghosh,  A. Ghysels,  A. Golubeva-Zadorozhnaya,  
 J. Gonthier,  M. S. Gordon,  S. R. Gwaltney,  G. Hawkins,  J. E. Herr,  
 A. Heyden,  S. Hirata,  E. G. Hohenstein,  G. Kedziora,  F. J. Keil,  
 C. Kelley,  Jihan Kim,  R. A. King,  R. Z. Khaliullin,  P. P. Korambath,  
 W. Kurlancheek,  A. Laurent,  A. M. Lee,  M. S. Lee,  S. V. Levchenko,  
 Ching Yeh Lin,  D. Liotard,  E. Livshits,  R. C. Lochan,  I. Lotan,  
 L. A. Martinez-Martinez,  P. E. Maslen,  N. Nair,  D. P. O'Neill,  
 D. Neuhauser,  E. Neuscamman,  C. M. Oana,  R. Olivares-Amaya,  R. Olson,  
 T. M. Perrine,  B. Peters,  P. A. Pieniazek,  A. Prociuk,  Y. M. Rhee,  
 J. Ritchie,  M. A. Rohrdanz,  E. Rosta,  N. J. Russ,  H. F. Schaefer III,  
 M. W. Schmidt,  N. E. Schultz,  S. Sharma,  N. Shenvi,  C. D. Sherrill,  
 A. C. Simmonett,  A. Sodt,  T. Stein,  D. Stuck,  K. S. Thanthiriwatte,  
 V. Vanovschi,  L. Vogt,  Tao Wang,  A. Warshel,  M. A. Watson,  
 C. F. Williams,  Q. Wu,  X. Xu,  Jun Yang,  W. Zhang,  Yan Zhao

 Please cite Q-Chem as follows:
 Y. Shao et al., Mol. Phys. 113, 184-215 (2015)
 DOI: 10.1080/00268976.2014.952696

 Q-Chem 5.4.1 for Intel X86 EM64T Linux

 Parts of Q-Chem use Armadillo 9.900.5 (Nocturnal Misbehaviour).
 http://arma.sourceforge.net/

 Q-Chem begins on Thu Feb 17 13:41:08 2022  

 Host: node01
0

     Scratch files written to /src/jdavis/qchem.scratch/qchem14380//
 Processing $rem in /src/tsommerfeld/qchem/config/preferences:
 Processing $rem in /home/jdavis/.qchemrc:

 Checking the input file for inconsistencies... 	...done.

--------------------------------------------------------------
User input:
--------------------------------------------------------------
$molecule
-1 1
C        -0.6645000000    0.0000000000   -0.2082049804
C         0.6645000000    0.0000000000   -0.2082049804
H        -1.1590800000    0.0000000000    0.7541440196
H         1.1590800000    0.0000000000    0.7541440196
H        -1.1590800000    0.0000000000   -1.1705529804
H         1.1590800000    0.0000000000   -1.1705529804
H         0.0000000000    0.0000000000    3.0139349415
$end

$rem
   METHOD adc(2)
   BASIS gen
   PURECART 11
   EE_STATES [0,10,0,0]
   scf_convergence 8
   ADC_DAVIDSON_MAXITER 120
   ADC_DAVIDSON_MAXSUBSPACE 200
   adc_nguess_singles 100
   THRESH 14
   S2THRESH 14
   adc_davidson_conv 5
   adc_davidson_thresh 14
   THREADS 10
   MEM_TOTAL 95000
   STATE_ANALYSIS TRUE
$end
$basis
C 1
S   9   1.00
      6.665000D+03           6.920000D-04
      1.000000D+03           5.329000D-03
      2.280000D+02           2.707700D-02
      6.471000D+01           1.017180D-01
      2.106000D+01           2.747400D-01
      7.495000D+00           4.485640D-01
      2.797000D+00           2.850740D-01
      5.215000D-01           1.520400D-02
      1.596000D-01          -3.191000D-03
S   9   1.00
      6.665000D+03          -1.460000D-04
      1.000000D+03          -1.154000D-03
      2.280000D+02          -5.725000D-03
      6.471000D+01          -2.331200D-02
      2.106000D+01          -6.395500D-02
      7.495000D+00          -1.499810D-01
      2.797000D+00          -1.272620D-01
      5.215000D-01           5.445290D-01
      1.596000D-01           5.804960D-01
S   1   1.00
      1.596000D-01           1.000000D+00
S   1   1.00
      0.0469000              1.0000000
P   4   1.00
      9.439000D+00           3.810900D-02
      2.002000D+00           2.094800D-01
      5.456000D-01           5.085570D-01
      1.517000D-01           4.688420D-01
P   1   1.00
      1.517000D-01           1.000000D+00
P   1   1.00
      0.0792211      1.0000000
P   1   1.00
      0.0396106      1.0000000
D   1   1.00
      5.500000D-01           1.0000000
****
C 2
S   9   1.00
      6.665000D+03           6.920000D-04
      1.000000D+03           5.329000D-03
      2.280000D+02           2.707700D-02
      6.471000D+01           1.017180D-01
      2.106000D+01           2.747400D-01
      7.495000D+00           4.485640D-01
      2.797000D+00           2.850740D-01
      5.215000D-01           1.520400D-02
      1.596000D-01          -3.191000D-03
S   9   1.00
      6.665000D+03          -1.460000D-04
      1.000000D+03          -1.154000D-03
      2.280000D+02          -5.725000D-03
      6.471000D+01          -2.331200D-02
      2.106000D+01          -6.395500D-02
      7.495000D+00          -1.499810D-01
      2.797000D+00          -1.272620D-01
      5.215000D-01           5.445290D-01
      1.596000D-01           5.804960D-01
S   1   1.00
      1.596000D-01           1.000000D+00
S   1   1.00
      0.0469000              1.0000000
P   4   1.00
      9.439000D+00           3.810900D-02
      2.002000D+00           2.094800D-01
      5.456000D-01           5.085570D-01
      1.517000D-01           4.688420D-01
P   1   1.00
      1.517000D-01           1.000000D+00
P   1   1.00
      0.0792211      1.0000000
P   1   1.00
      0.0396106      1.0000000
D   1   1.00
      5.500000D-01           1.0000000
****
H 3
cc-pVDZ
****
H 4
cc-pVDZ
****
H 5
cc-pVDZ
****
H 6
cc-pVDZ
****
H 7
aug-cc-pVDZ
****
$end
--------------------------------------------------------------
 ----------------------------------------------------------------
             Standard Nuclear Orientation (Angstroms)
    I     Atom           X                Y                Z
 ----------------------------------------------------------------
    1      C      -0.6645000000    -0.0000000000    -0.1895377601
    2      C       0.6645000000     0.0000000000    -0.1895377601
    3      H      -1.1590800000    -0.0000000000     0.7728112399
    4      H       1.1590800000     0.0000000000     0.7728112399
    5      H      -1.1590800000    -0.0000000000    -1.1518857601
    6      H       1.1590800000     0.0000000000    -1.1518857601
    7      H      -0.0000000000     0.0000000000     3.0326021618
 ----------------------------------------------------------------
 Molecular Point Group                 C2v   NOp =  4
 Largest Abelian Subgroup              C2v   NOp =  4
 Nuclear Repulsion Energy =          36.17984589 hartrees
 There are        9 alpha and        9 beta electrons
 Requested basis set is non-standard
 There are 33 shells and 67 basis functions
 Total memory of 95000 MB is distributed as follows: 
   MEM_STATIC is set to 192 MB
   QALLOC/CCMAN JOB total memory use is  94808 MB
 Warning: actual memory use might exceed 95000 MB

 Total QAlloc Memory Limit  95000 MB
 Mega-Array Size       188 MB
 MEM_STATIC part       192 MB

                       Distance Matrix (Angstroms)
             C (  1)   C (  2)   H (  3)   H (  4)   H (  5)   H (  6)
   C (  2)  1.329000
   H (  3)  1.082000  2.061931
   H (  4)  2.061931  1.082000  2.318160
   H (  5)  1.082000  2.061931  1.924697  3.013026
   H (  6)  2.061931  1.082000  3.013026  1.924697  2.318160
   H (  7)  3.289946  3.289946  2.539709  2.539709  4.342051  4.342051

 
 A cutoff of  1.0D-14 yielded    561 shell pairs
 There are      2337 function pairs (      2484 Cartesian)
 Smallest overlap matrix eigenvalue = 2.40E-04

 Scale SEOQF with 1.000000e-01/1.000000e-01/1.000000e-01

 Standard Electronic Orientation quadrupole field applied
 Nucleus-field energy     =    -0.0000000011 hartrees
 ================ Generating on-the-fly SAD Guess ================
Attempting to make child job directory: /src/jdavis/qchem.scratch/qchem14380//Frg1/
Attempting to make child job directory: /src/jdavis/qchem.scratch/qchem14380//Frg2/
Creating input file /src/jdavis/qchem.scratch/qchem14380/Frg1.input
using default PutDataFrgm: nothing
calling putenv with: QCSCRATCH=/src/jdavis/qchem.scratch/qchem14380/ 
Spawning Job For Fragment 0
Done Job For Fragment 0
calling putenv with: QCSCRATCH=/src/jdavis/qchem.scratch 
calling putenv with: QCTHREADS=1 
Creating input file /src/jdavis/qchem.scratch/qchem14380/Frg2.input
using default PutDataFrgm: nothing
calling putenv with: QCSCRATCH=/src/jdavis/qchem.scratch/qchem14380/ 
Spawning Job For Fragment 1
Done Job For Fragment 1
calling putenv with: QCSCRATCH=/src/jdavis/qchem.scratch 
calling putenv with: QCTHREADS=1 
 Time for running child jobs:  CPU 1.77 s  wall 53.12 s
 ============= Method Specific SAD Guess Constructed =============
 Guess from on-the-fly superposition of atomic densities
 Warning: Energy on first SCF cycle will be non-variational
 A restricted Hartree-Fock SCF calculation will be
 performed using Pulay DIIS extrapolation
 SCF converges when DIIS error is below 1.0E-08
 using 10 threads for integral computing
 -------------------------------------------------------
 OpenMP Integral computing Module                
 Release: version 1.0, May 2013, Q-Chem Inc. Pittsburgh 
 -------------------------------------------------------
 ---------------------------------------
  Cycle       Energy         DIIS Error
 ---------------------------------------
    1     -78.8089740712      7.36E-02
    2     -78.4598128017      6.89E-03
    3     -78.5070915900      1.66E-03
    4     -78.5096744080      5.37E-04
    5     -78.5099642654      1.15E-04
    6     -78.5099878326      2.59E-05
    7     -78.5099898046      7.28E-06
    8     -78.5099899977      9.88E-07
    9     -78.5099900022      2.38E-07
   10     -78.5099900026      4.88E-08
   11     -78.5099900026      1.04E-08
   12     -78.5099900026      1.45E-09 Convergence criterion met
 ---------------------------------------
 SCF time:  CPU 11.13 s  wall 1.12 s
 SCF   energy in the final basis set = -78.50999000
 Total energy in the final basis set = -78.50999000
================================================================================
|                                                                              |
|                                 A D C  M A N                                 |
|                                                                              |
 ------------------------------------------------------------------------------ 
|                                                                              |
| Components:                                                                  |
|                                                                              |
| - libvmm - 1.3-trunk                                                         |
|   Authors:                                                                   |
|   Evgeny Epifanovsky, Ilya Kaliman                                           |
|                                                                              |
| - libtensor - 2.5-trunk                                                      |
|   Authors:                                                                   |
|   Evgeny Epifanovsky, Michael Wormit, Dmitry Zuev, Sam Manzer,               |
|   Ilya Kaliman                                                               |
|                                                                              |
| - libwfa - 1.1-trunk                                                         |
|   Authors:                                                                   |
|   Felix Plasser, Stefanie Mewes (Baeppler), Benjamin Thomitzni,              |
|   Michael Wormit, Feng Chen, Anna I. Krylov, Pavel Pokhilko                  |
|                                                                              |
| - libadc - 1.1-trunk                                                         |
|   Authors:                                                                   |
|   Michael Wormit, Adrian L. Dempwolff, Philipp H. P. Harbach,                |
|   Caroline Krauter, Dirk Rehn, Matthias Schneider, Jan Wenzel                |
|                                                                              |
| - adcman - 2.6-trunk                                                         |
|   Authors:                                                                   |
|   Michael Wormit, Adrian L. Dempwolff, Philipp H. P. Harbach,                |
|   Caroline Krauter, Daniel Lefrancois, Jan-Michael Mewes, Dirk Rehn,         |
|   Matthias Schneider, Jan Wenzel, Andreas Dreuw                              |
|                                                                              |
| Authors of earlier versions of ADCMAN:                                       |
| Andreas Dreuw, Jan Hendrik Starcke, Dirk Rehn, Michael Wormit                |
|                                                                              |
================================================================================

 
 Alpha MOs, Restricted
 -- Occupied --                  
-11.073 -11.072  -0.879  -0.621  -0.495  -0.406  -0.350  -0.216
  1 A1    1 B1    2 A1    2 B1    3 A1    4 A1    3 B1    1 B2                 
 -0.023
  5 A1                                                                         
 -- Virtual --                   
  0.175   0.192   0.214   0.217   0.222   0.240   0.305   0.324
  4 B1    6 A1    2 B2    1 A2    7 A1    5 B1    8 A1    2 A2                 
  0.342   0.424   0.458   0.469   0.487   0.493   0.495   0.528
  6 B1    9 A1    7 B1   10 A1   11 A1    3 B2    8 B1   12 A1                 
  0.530   0.575   0.704   0.768   0.978   1.009   1.052   1.093
  9 B1    3 A2   10 B1   11 B1   13 A1   14 A1   15 A1   12 B1                 
  1.124   1.185   1.233   1.254   1.265   1.280   1.290   1.308
 16 A1   13 B1   17 A1   18 A1    4 B2    5 B2   14 B1    4 A2                 
  1.438   1.448   1.450   1.612   1.784   1.835   1.899   1.904
 15 B1    5 A2    6 B2   16 B1   19 A1   17 B1   20 A1    7 B2                 
  1.938   2.009   2.036   2.105   2.126   2.184   2.233   2.263
 18 B1   21 A1    6 A2    8 B2   19 B1    9 B2   22 A1   23 A1                 
  2.342   2.492   2.576   2.651   2.730   2.755   2.996   3.022
  7 A2   20 B1    8 A2   24 A1   21 B1   22 B1   25 A1   26 A1                 
  3.426   3.508
 23 B1   24 B1                                                                 
 
 Beta MOs, Restricted
 -- Occupied --                  
-11.073 -11.072  -0.879  -0.621  -0.495  -0.406  -0.350  -0.216
  1 A1    1 B1    2 A1    2 B1    3 A1    4 A1    3 B1    1 B2                 
 -0.023
  5 A1                                                                         
 -- Virtual --                   
  0.175   0.192   0.214   0.217   0.222   0.240   0.305   0.324
  4 B1    6 A1    2 B2    1 A2    7 A1    5 B1    8 A1    2 A2                 
  0.342   0.424   0.458   0.469   0.487   0.493   0.495   0.528
  6 B1    9 A1    7 B1   10 A1   11 A1    3 B2    8 B1   12 A1                 
  0.530   0.575   0.704   0.768   0.978   1.009   1.052   1.093
  9 B1    3 A2   10 B1   11 B1   13 A1   14 A1   15 A1   12 B1                 
  1.124   1.185   1.233   1.254   1.265   1.280   1.290   1.308
 16 A1   13 B1   17 A1   18 A1    4 B2    5 B2   14 B1    4 A2                 
  1.438   1.448   1.450   1.612   1.784   1.835   1.899   1.904
 15 B1    5 A2    6 B2   16 B1   19 A1   17 B1   20 A1    7 B2                 
  1.938   2.009   2.036   2.105   2.126   2.184   2.233   2.263
 18 B1   21 A1    6 A2    8 B2   19 B1    9 B2   22 A1   23 A1                 
  2.342   2.492   2.576   2.651   2.730   2.755   2.996   3.022
  7 A2   20 B1    8 A2   24 A1   21 B1   22 B1   25 A1   26 A1                 
  3.426   3.508
 23 B1   24 B1                                                                 

--------------------------------------------------------------------------------
                                   HF Summary                                   
--------------------------------------------------------------------------------
  Energy:                                                  -78.5099900026 a.u.
  Dip. moment [a.u.]:                  [   0.000000,   -0.000000,   -4.676158]
  Total dipole [Debye]:                                              11.885609
  <r^2> [a.u.]:                        [  52.311725,   16.340701,   89.969179]
  Total <r^2> [a.u.]:                                               158.621604
--------------------------------------------------------------------------------

--------------------------------------------------------------------------------
                                 MP(2) Summary                                  
--------------------------------------------------------------------------------
  MP energy contribution:                                   -0.3049466893 a.u.
  Total energy:                                            -78.8149366919 a.u.
  Dip. moment [a.u.]:                  [  -0.000000,    0.000000,   -4.557154]
  Total dipole [Debye]:                                              11.583133
  <r^2> [a.u.]:                        [  52.637660,   16.319312,   89.376079]
  Total <r^2> [a.u.]:                                               158.333050

  Density matrix analysis:
  ------------------------
  NOs
    Occupation of frontier NOs:
       0.0448   1.9362
    Number of electrons: 18.000000
    Number of unpaired electrons: n_u =  0.45848, n_u,nl =  0.05007
    NO participation ratio (PR_NO): 16.115802
  
  
  Mulliken Population Analysis
  Atom      Charge (e)              h+              e-           Del q
  --------------------------------------------------------------------
   1 C       -0.395372        0.087492       -0.112934       -0.025442
   2 C       -0.395372        0.087492       -0.112934       -0.025442
   3 H        0.174758        0.016978       -0.017317       -0.000339
   4 H        0.174758        0.016978       -0.017317       -0.000339
   5 H        0.046882        0.019414       -0.011520        0.007894
   6 H        0.046882        0.019414       -0.011520        0.007894
   7 H       -0.652536        0.050735       -0.014961        0.035774
  --------------------------------------------------------------------
  Sum:       -1.000000        0.298504       -0.298504       -0.000000
  
  Multipole moment analysis of the density matrix
    Molecular charge:                      -1.000000
    Number of electrons:                   18.000000
      Center of electronic charge [Ang]: [  0.000000,  -0.000000,   0.133975]
    Total nuclear charge:                  17.000000
      Center of nuclear charge [Ang]:    [ -0.000000,   0.000000,  -0.000000]
    Dipole moment [D]:                     11.583130
      Cartesian components [D]:          [ -0.000000,   0.000000, -11.583130]
    RMS size of the density [Ang]:         1.563733
      Cartesian components [Ang]:        [  0.904926,   0.503867,   1.171532]
  
  Exciton analysis of the difference density matrix
    <r_h> [Ang]:                  [  0.000000,   0.000000,   0.285775]
    <r_e> [Ang]:                  [  0.000000,  -0.000000,   0.074810]
    |<r_e - r_h>| [Ang]:            0.210965
    Hole size [Ang]:                1.874658
      Cartesian components [Ang]: [  0.960710,   0.761336,   1.418361]
    Electron size [Ang]:            1.822010
      Cartesian components [Ang]: [  1.108479,   0.748042,   1.237509]
--------------------------------------------------------------------------------
Less singles guess vectors found than requested: 85 (found), 100 (requested).
Adjusting number of doubles guess vectors to 15.
  Starting Davidson for singlet states of irrep A2 ... 
--------------------------------------------------------------------------------
   It NVec Conv  Avg. Norm  Max. Norm  Conv. states           Remark
--------------------------------------------------------------------------------
       100    0  9.699e-02  4.580e-01  0.1285 n n n n n n n n Guess.
    1  110    0  5.384e-03  2.764e-02  0.0909 n n n n n n n n 
    2  120    0  2.371e-03  2.283e-02  0.0907 n n n n n n n n 
    3  130    0  4.055e-04  4.008e-03  0.0907 n n n n n n n n 
    4  140    9  1.143e-05  1.132e-04  0.0907 y y y y y y y y 
    5  150   10  5.115e-07  5.092e-06  0.0907 y y y y y y y y Converged.
--------------------------------------------------------------------------------
  Davidson Summary: 
 ------------------------------------------------------------
  State  0: excitation energy =   0.0907 a.u.   (converged)
  State  1: excitation energy =   0.1596 a.u.   (converged)
  State  2: excitation energy =   0.2460 a.u.   (converged)
  State  3: excitation energy =   0.3142 a.u.   (converged)
  State  4: excitation energy =   0.3525 a.u.   (converged)
  State  5: excitation energy =   0.3717 a.u.   (converged)
  State  6: excitation energy =   0.3842 a.u.   (converged)
  State  7: excitation energy =   0.4073 a.u.   (converged)
  State  8: excitation energy =   0.4352 a.u.   (converged)
  State  9: excitation energy =   0.4455 a.u.   (converged)
 ------------------------------------------------------------


--------------------------------------------------------------------------------
                   State-averaged natural transition orbitals
--------------------------------------------------------------------------------
--------------------------------------------------------------------------------

--------------------------------------------------------------------------------
                             Excited State Summary
--------------------------------------------------------------------------------
--------------------------------------------------------------------------------

  Excited state 1 (singlet, A2)                                    [converged]
  ----------------------------------------------------------------------------
  Term symbol:  1 (1) A2                                    R^2 =  3.83720e-09

  Total energy:                                            -78.7241903664 a.u.
  Excitation energy:                                               2.469333 eV

  Osc. strength:                                                      0.000000
  Trans. dip. moment [a.u.]:           [   0.000000,    0.000000,   -0.000000]
  <i|r^2|0> [a.u.]:                    [  -0.000000,   -0.000000,    0.000000]

  Dip. moment [a.u.]:                  [  -0.000000,    0.000000,    0.594593]
  Total dipole [Debye]:                                               1.511306
  <r^2> [a.u.]:                        [  64.847996,   27.608725,   63.623132]
  Total <r^2> [a.u.]:                                               156.079852

  V1^2 = 0.9300, V2^2 = 0.0700

  Important amplitudes:
      occ i      occ j       vir a       vir b          v   
    ---------------------------------------------------------
     5 (A1) A               1 (A2) A                 -0.6219
     5 (A1) A               2 (A2) A                 -0.2764
    ---------------------------------------------------------

  Density matrix analysis:
  ------------------------
  NOs
    Occupation of frontier NOs:
       0.9915   0.9931
    Number of electrons: 18.000000
    Number of unpaired electrons: n_u =  2.41460, n_u,nl =  2.04448
    NO participation ratio (PR_NO):  2.943291
  
  
  Mulliken Population Analysis
  Atom      Charge (e)              h+              e-           Del q
  --------------------------------------------------------------------
   1 C       -0.681310        0.255975       -0.541913       -0.285938
   2 C       -0.681310        0.255975       -0.541913       -0.285938
   3 H        0.115872        0.018730       -0.077617       -0.058886
   4 H        0.115872        0.018730       -0.077617       -0.058886
   5 H        0.051641        0.010094       -0.005336        0.004759
   6 H        0.051641        0.010094       -0.005336        0.004759
   7 H        0.027595        0.712398       -0.032267        0.680131
  --------------------------------------------------------------------
  Sum:       -1.000000        1.281997       -1.281997       -0.000000
  
  Multipole moment analysis of the density matrix
    Molecular charge:                      -1.000000
    Number of electrons:                   18.000000
      Center of electronic charge [Ang]: [  0.000000,  -0.000000,  -0.017480]
    Total nuclear charge:                  17.000000
      Center of nuclear charge [Ang]:    [ -0.000000,   0.000000,  -0.000000]
    Dipole moment [D]:                     1.511305
      Cartesian components [D]:          [ -0.000000,   0.000000,   1.511305]
    RMS size of the density [Ang]:         1.558156
      Cartesian components [Ang]:        [  1.004415,   0.655372,   0.994730]
  
  Exciton analysis of the difference density matrix
    <r_h> [Ang]:                  [ -0.000000,  -0.000000,   2.140503]
    <r_e> [Ang]:                  [  0.000000,  -0.000000,   0.013986]
    |<r_e - r_h>| [Ang]:            2.126516
    Hole size [Ang]:                2.137009
      Cartesian components [Ang]: [  0.988733,   0.913165,   1.659923]
    Electron size [Ang]:            2.942141
      Cartesian components [Ang]: [  1.909113,   1.816544,   1.308299]

  Transition density matrix analysis:
  -----------------------------------
  
  CT numbers (Mulliken)
    omega =     0.9121
    <Phe> =     0.0005
  
  Exciton analysis of the transition density matrix
    Trans. dipole moment [D]:             0.000000
      Cartesian components [D]:         [  0.000000,   0.000000,  -0.000000]
    <r_h> [Ang]:                        [ -0.000000,   0.000000,   2.819818]
    <r_e> [Ang]:                        [ -0.000000,  -0.000000,  -0.188721]
    |<r_e - r_h>| [Ang]:                  3.008539
    Hole size [Ang]:                      1.521902
      Cartesian components [Ang]:       [  0.793344,   0.776933,   1.040753]
    Electron size [Ang]:                  3.075161
      Cartesian components [Ang]:       [  2.051917,   1.981465,   1.148933]
    RMS electron-hole separation [Ang]:   4.561283
      Cartesian components [Ang]:       [  2.196170,   2.127884,   3.384413]
    Covariance(r_h, r_e) [Ang^2]:         0.009403
    Correlation coefficient:              0.002009
    Center-of-mass size [Ang]:            1.716945
      Cartesian components [Ang]:       [  1.101857,   1.064397,   0.775159]

  Decomposition into state-averaged NTOs
    H- 1 -> L+ 0:  0.6044 ( 73.1%)
    H- 1 -> L+ 1:  0.2785 ( 15.5%)
    H- 1 -> L+ 6: -0.1140 (  2.6%)
                   omega =  91.2%
  ----------------------------------------------------------------------------


  Excited state 2 (singlet, A2)                                    [converged]
  ----------------------------------------------------------------------------
  Term symbol:  2 (1) A2                                    R^2 =  7.70542e-09

  Total energy:                                            -78.6553539929 a.u.
  Excitation energy:                                               4.342466 eV

  Osc. strength:                                                      0.000000
  Trans. dip. moment [a.u.]:           [  -0.000000,    0.000000,    0.000000]
  <i|r^2|0> [a.u.]:                    [   0.000000,    0.000000,   -0.000000]

  Dip. moment [a.u.]:                  [  -0.000000,   -0.000000,    0.609677]
  Total dipole [Debye]:                                               1.549644
  <r^2> [a.u.]:                        [  67.562697,   30.327314,   64.627753]
  Total <r^2> [a.u.]:                                               162.517763

  V1^2 = 0.9239, V2^2 = 0.0761

  Important amplitudes:
      occ i      occ j       vir a       vir b          v   
    ---------------------------------------------------------
     5 (A1) A               2 (A2) A                  0.6077
     5 (A1) A               1 (A2) A                 -0.2858
    ---------------------------------------------------------

  Density matrix analysis:
  ------------------------
  NOs
    Occupation of frontier NOs:
       0.9889   0.9906
    Number of electrons: 18.000000
    Number of unpaired electrons: n_u =  2.42399, n_u,nl =  2.04702
    NO participation ratio (PR_NO):  2.980027
  
  
  Mulliken Population Analysis
  Atom      Charge (e)              h+              e-           Del q
  --------------------------------------------------------------------
   1 C       -0.655410        0.269984       -0.530022       -0.260038
   2 C       -0.655410        0.269984       -0.530022       -0.260038
   3 H        0.103403        0.017431       -0.088786       -0.071355
   4 H        0.103403        0.017431       -0.088786       -0.071355
   5 H        0.036413        0.007201       -0.017670       -0.010469
   6 H        0.036413        0.007201       -0.017670       -0.010469
   7 H        0.031189        0.714684       -0.030959        0.683725
  --------------------------------------------------------------------
  Sum:       -1.000000        1.303916       -1.303916        0.000000
  
  Multipole moment analysis of the density matrix
    Molecular charge:                      -1.000000
    Number of electrons:                   18.000000
      Center of electronic charge [Ang]: [  0.000000,   0.000000,  -0.017924]
    Total nuclear charge:                  17.000000
      Center of nuclear charge [Ang]:    [ -0.000000,   0.000000,  -0.000000]
    Dipole moment [D]:                     1.549643
      Cartesian components [D]:          [ -0.000000,  -0.000000,   1.549643]
    RMS size of the density [Ang]:         1.589966
      Cartesian components [Ang]:        [  1.025223,   0.686882,   1.002548]
  
  Exciton analysis of the difference density matrix
    <r_h> [Ang]:                  [ -0.000000,  -0.000000,   2.104943]
    <r_e> [Ang]:                  [  0.000000,   0.000000,   0.008053]
    |<r_e - r_h>| [Ang]:            2.096890
    Hole size [Ang]:                2.124153
      Cartesian components [Ang]: [  0.974631,   0.888278,   1.665258]
    Electron size [Ang]:            3.137110
      Cartesian components [Ang]: [  2.038431,   1.948690,   1.374360]

  Transition density matrix analysis:
  -----------------------------------
  
  CT numbers (Mulliken)
    omega =     0.9054
    <Phe> =     0.0000
  
  Exciton analysis of the transition density matrix
    Trans. dipole moment [D]:             0.000000
      Cartesian components [D]:         [ -0.000000,   0.000000,   0.000000]
    <r_h> [Ang]:                        [ -0.000000,   0.000000,   2.819310]
    <r_e> [Ang]:                        [ -0.000000,   0.000000,  -0.188657]
    |<r_e - r_h>| [Ang]:                  3.007967
    Hole size [Ang]:                      1.522162
      Cartesian components [Ang]:       [  0.793065,   0.776668,   1.041543]
    Electron size [Ang]:                  3.357434
      Cartesian components [Ang]:       [  2.226693,   2.173916,   1.260274]
    RMS electron-hole separation [Ang]:   4.756400
      Cartesian components [Ang]:       [  2.361494,   2.307864,   3.423515]
    Covariance(r_h, r_e) [Ang^2]:         0.006933
    Correlation coefficient:              0.001357
    Center-of-mass size [Ang]:            1.844126
      Cartesian components [Ang]:       [  1.182960,   1.154558,   0.817560]

  Decomposition into state-averaged NTOs
    H- 1 -> L+ 1:  0.5965 ( 71.2%)
    H- 1 -> L+ 0: -0.2832 ( 16.0%)
    H- 1 -> L+ 6: -0.1282 (  3.3%)
                   omega =  90.5%
  ----------------------------------------------------------------------------


  Excited state 3 (singlet, A2)                                    [converged]
  ----------------------------------------------------------------------------
  Term symbol:  3 (1) A2                                    R^2 =  1.30246e-08

  Total energy:                                            -78.5689398444 a.u.
  Excitation energy:                                               6.693915 eV

  Osc. strength:                                                      0.000000
  Trans. dip. moment [a.u.]:           [  -0.000000,   -0.000000,    0.000000]
  <i|r^2|0> [a.u.]:                    [  -0.000000,   -0.000000,   -0.000000]

  Dip. moment [a.u.]:                  [   0.000000,    0.000000,   -2.844287]
  Total dipole [Debye]:                                               7.229458
  <r^2> [a.u.]:                        [  84.873558,   21.364474,   97.627816]
  Total <r^2> [a.u.]:                                               203.865848

  V1^2 = 0.9432, V2^2 = 0.0568

  Important amplitudes:
      occ i      occ j       vir a       vir b          v   
    ---------------------------------------------------------
     1 (B2) A               4 (B1) A                  0.6721
     1 (B2) A               6 (B1) A                  0.1132
    ---------------------------------------------------------

  Density matrix analysis:
  ------------------------
  NOs
    Occupation of frontier NOs:
       0.9823   0.9935
    Number of electrons: 18.000000
    Number of unpaired electrons: n_u =  2.34295, n_u,nl =  2.02835
    NO participation ratio (PR_NO):  2.801762
  
  
  Mulliken Population Analysis
  Atom      Charge (e)              h+              e-           Del q
  --------------------------------------------------------------------
   1 C       -0.512836        0.544700       -0.662164       -0.117464
   2 C       -0.512836        0.544700       -0.662164       -0.117464
   3 H        0.237187        0.070956       -0.008527        0.062429
   4 H        0.237187        0.070956       -0.008527        0.062429
   5 H        0.095290        0.115605       -0.067197        0.048408
   6 H        0.095290        0.115605       -0.067197        0.048408
   7 H       -0.639280        0.035359       -0.022104        0.013255
  --------------------------------------------------------------------
  Sum:       -1.000000        1.497880       -1.497880       -0.000000
  
  Multipole moment analysis of the density matrix
    Molecular charge:                      -1.000000
    Number of electrons:                   18.000000
      Center of electronic charge [Ang]: [ -0.000000,  -0.000000,   0.083618]
    Total nuclear charge:                  17.000000
      Center of nuclear charge [Ang]:    [ -0.000000,   0.000000,  -0.000000]
    Dipole moment [D]:                     7.229455
      Cartesian components [D]:          [  0.000000,   0.000000,  -7.229455]
    RMS size of the density [Ang]:         1.778926
      Cartesian components [Ang]:        [  1.149082,   0.576515,   1.229560]
  
  Exciton analysis of the difference density matrix
    <r_h> [Ang]:                  [  0.000000,   0.000000,  -0.145623]
    <r_e> [Ang]:                  [ -0.000000,  -0.000000,  -0.750752]
    |<r_e - r_h>| [Ang]:            0.605129
    Hole size [Ang]:                1.752585
      Cartesian components [Ang]: [  1.079289,   0.896465,   1.050257]
    Electron size [Ang]:            3.322873
      Cartesian components [Ang]: [  2.681672,   1.321682,   1.450268]

  Transition density matrix analysis:
  -----------------------------------
  
  CT numbers (Mulliken)
    omega =     0.9125
    <Phe> =    -0.0024
  
  Exciton analysis of the transition density matrix
    Trans. dipole moment [D]:             0.000000
      Cartesian components [D]:         [ -0.000000,  -0.000000,   0.000000]
    <r_h> [Ang]:                        [ -0.000000,  -0.000000,  -0.196584]
    <r_e> [Ang]:                        [ -0.000000,  -0.000000,  -1.116941]
    |<r_e - r_h>| [Ang]:                  0.920357
    Hole size [Ang]:                      1.276208
      Cartesian components [Ang]:       [  0.763832,   0.880464,   0.519665]
    Electron size [Ang]:                  3.854936
      Cartesian components [Ang]:       [  3.200566,   1.554474,   1.483416]
    RMS electron-hole separation [Ang]:   4.155856
      Cartesian components [Ang]:       [  3.283916,   1.780723,   1.821005]
    Covariance(r_h, r_e) [Ang^2]:         0.032579
    Correlation coefficient:              0.006622
    Center-of-mass size [Ang]:            2.034355
      Cartesian components [Ang]:       [  1.648485,   0.896136,   0.786153]

  Decomposition into state-averaged NTOs
    H- 0 -> L+ 5: -0.4738 ( 44.9%)
    H- 0 -> L+ 3:  0.3406 ( 23.2%)
    H- 0 -> L+ 4: -0.3398 ( 23.1%)
                   omega =  91.3%
  ----------------------------------------------------------------------------


  Excited state 4 (singlet, A2)                                    [converged]
  ----------------------------------------------------------------------------
  Term symbol:  4 (1) A2                                    R^2 =  2.13624e-08

  Total energy:                                            -78.5006969045 a.u.
  Excitation energy:                                               8.550899 eV

  Osc. strength:                                                      0.000000
  Trans. dip. moment [a.u.]:           [  -0.000000,    0.000000,   -0.000000]
  <i|r^2|0> [a.u.]:                    [   0.000000,    0.000000,    0.000000]

  Dip. moment [a.u.]:                  [  -0.000000,   -0.000000,   -5.420747]
  Total dipole [Debye]:                                              13.778167
  <r^2> [a.u.]:                        [  77.047904,   20.552652,  106.803872]
  Total <r^2> [a.u.]:                                               204.404427

  V1^2 = 0.9432, V2^2 = 0.0568

  Important amplitudes:
      occ i      occ j       vir a       vir b          v   
    ---------------------------------------------------------
     1 (B2) A               5 (B1) A                  0.6777
     1 (B2) A               8 (B1) A                 -0.0815
    ---------------------------------------------------------

  Density matrix analysis:
  ------------------------
  NOs
    Occupation of frontier NOs:
       0.9831   0.9956
    Number of electrons: 18.000000
    Number of unpaired electrons: n_u =  2.34025, n_u,nl =  2.02766
    NO participation ratio (PR_NO):  2.787203
  
  
  Mulliken Population Analysis
  Atom      Charge (e)              h+              e-           Del q
  --------------------------------------------------------------------
   1 C       -0.486558        0.537600       -0.628786       -0.091186
   2 C       -0.486558        0.537600       -0.628786       -0.091186
   3 H        0.195644        0.084008       -0.063122        0.020886
   4 H        0.195644        0.084008       -0.063122        0.020886
   5 H        0.095675        0.102350       -0.053557        0.048793
   6 H        0.095675        0.102350       -0.053557        0.048793
   7 H       -0.609521        0.052269       -0.009254        0.043015
  --------------------------------------------------------------------
  Sum:       -1.000000        1.500184       -1.500184       -0.000000
  
  Multipole moment analysis of the density matrix
    Molecular charge:                      -1.000000
    Number of electrons:                   18.000000
      Center of electronic charge [Ang]: [  0.000000,   0.000000,   0.159363]
    Total nuclear charge:                  17.000000
      Center of nuclear charge [Ang]:    [ -0.000000,   0.000000,  -0.000000]
    Dipole moment [D]:                     13.778163
      Cartesian components [D]:          [ -0.000000,  -0.000000, -13.778163]
    RMS size of the density [Ang]:         1.776106
      Cartesian components [Ang]:        [  1.094826,   0.565456,   1.279127]
  
  Exciton analysis of the difference density matrix
    <r_h> [Ang]:                  [  0.000000,   0.000000,  -0.080973]
    <r_e> [Ang]:                  [  0.000000,   0.000000,   0.223652]
    |<r_e - r_h>| [Ang]:            0.304625
    Hole size [Ang]:                1.737207
      Cartesian components [Ang]: [  1.059454,   0.881716,   1.057366]
    Electron size [Ang]:            3.402093
      Cartesian components [Ang]: [  2.383050,   1.252050,   2.080308]

  Transition density matrix analysis:
  -----------------------------------
  
  CT numbers (Mulliken)
    omega =     0.9123
    <Phe> =    -0.0007
  
  Exciton analysis of the transition density matrix
    Trans. dipole moment [D]:             0.000000
      Cartesian components [D]:         [ -0.000000,   0.000000,  -0.000000]
    <r_h> [Ang]:                        [  0.000000,  -0.000000,  -0.196118]
    <r_e> [Ang]:                        [  0.000000,   0.000000,   0.334990]
    |<r_e - r_h>| [Ang]:                  0.531109
    Hole size [Ang]:                      1.276074
      Cartesian components [Ang]:       [  0.763575,   0.880678,   0.519350]
    Electron size [Ang]:                  4.016073
      Cartesian components [Ang]:       [  2.827553,   1.465341,   2.446744]
    RMS electron-hole separation [Ang]:   4.243050
      Cartesian components [Ang]:       [  2.923271,   1.709298,   2.556610]
    Covariance(r_h, r_e) [Ang^2]:         0.017907
    Correlation coefficient:              0.003494
    Center-of-mass size [Ang]:            2.109089
      Cartesian components [Ang]:       [  1.467199,   0.854977,   1.250838]

  Decomposition into state-averaged NTOs
    H- 0 -> L+ 4: -0.5779 ( 66.8%)
    H- 0 -> L+ 3: -0.2713 ( 14.7%)
    H- 0 -> L+ 5:  0.2202 (  9.7%)
                   omega =  91.2%
  ----------------------------------------------------------------------------


  Excited state 5 (singlet, A2)                                    [converged]
  ----------------------------------------------------------------------------
  Term symbol:  5 (1) A2                                    R^2 =  2.19856e-07

  Total energy:                                            -78.4624837934 a.u.
  Excitation energy:                                               9.590731 eV

  Osc. strength:                                                      0.000000
  Trans. dip. moment [a.u.]:           [   0.000000,    0.000000,    0.000000]
  <i|r^2|0> [a.u.]:                    [   0.000000,   -0.000000,    0.000000]

  Dip. moment [a.u.]:                  [   0.000000,    0.000000,   -4.498313]
  Total dipole [Debye]:                                              11.433573
  <r^2> [a.u.]:                        [  53.822147,   19.954710,   89.105464]
  Total <r^2> [a.u.]:                                               162.882322

  V1^2 = 0.9540, V2^2 = 0.0460

  Important amplitudes:
      occ i      occ j       vir a       vir b          v   
    ---------------------------------------------------------
     4 (A1) A               2 (A2) A                  0.5190
     4 (A1) A               1 (A2) A                  0.4233
    ---------------------------------------------------------

  Density matrix analysis:
  ------------------------
  NOs
    Occupation of frontier NOs:
       0.9890   1.0060
    Number of electrons: 18.000000
    Number of unpaired electrons: n_u =  2.39895, n_u,nl =  2.03920
    NO participation ratio (PR_NO):  2.911701
  
  
  Mulliken Population Analysis
  Atom      Charge (e)              h+              e-           Del q
  --------------------------------------------------------------------
   1 C       -0.524643        0.440833       -0.570105       -0.129271
   2 C       -0.524643        0.440833       -0.570105       -0.129271
   3 H        0.236097        0.070695       -0.009356        0.061339
   4 H        0.236097        0.070695       -0.009356        0.061339
   5 H        0.113671        0.073753       -0.006964        0.066789
   6 H        0.113671        0.073753       -0.006964        0.066789
   7 H       -0.650250        0.006985       -0.004699        0.002286
  --------------------------------------------------------------------
  Sum:       -1.000000        1.177548       -1.177548        0.000000
  
  Multipole moment analysis of the density matrix
    Molecular charge:                      -1.000000
    Number of electrons:                   18.000000
      Center of electronic charge [Ang]: [ -0.000000,  -0.000000,   0.132245]
    Total nuclear charge:                  17.000000
      Center of nuclear charge [Ang]:    [ -0.000000,   0.000000,  -0.000000]
    Dipole moment [D]:                     11.433570
      Cartesian components [D]:          [  0.000000,   0.000000, -11.433570]
    RMS size of the density [Ang]:         1.586346
      Cartesian components [Ang]:        [  0.915051,   0.557170,   1.169931]
  
  Exciton analysis of the difference density matrix
    <r_h> [Ang]:                  [  0.000000,   0.000000,  -0.156579]
    <r_e> [Ang]:                  [  0.000000,  -0.000000,  -0.183022]
    |<r_e - r_h>| [Ang]:            0.026443
    Hole size [Ang]:                1.464295
      Cartesian components [Ang]: [  1.120524,   0.559149,   0.758905]
    Electron size [Ang]:            1.793607
      Cartesian components [Ang]: [  1.239860,   1.084974,   0.708945]

  Transition density matrix analysis:
  -----------------------------------
  
  CT numbers (Mulliken)
    omega =     0.9220
    <Phe> =    -0.0155
  
  Exciton analysis of the transition density matrix
    Trans. dipole moment [D]:             0.000000
      Cartesian components [D]:         [  0.000000,   0.000000,   0.000000]
    <r_h> [Ang]:                        [ -0.000000,   0.000000,  -0.159904]
    <r_e> [Ang]:                        [ -0.000000,  -0.000000,  -0.197843]
    |<r_e - r_h>| [Ang]:                  0.037939
    Hole size [Ang]:                      1.295646
      Cartesian components [Ang]:       [  1.072702,   0.411743,   0.598731]
    Electron size [Ang]:                  1.862321
      Cartesian components [Ang]:       [  1.297657,   1.146220,   0.685934]
    RMS electron-hole separation [Ang]:   2.252145
      Cartesian components [Ang]:       [  1.661115,   1.217463,   0.911394]
    Covariance(r_h, r_e) [Ang^2]:         0.038111
    Correlation coefficient:              0.015795
    Center-of-mass size [Ang]:            1.142712
      Cartesian components [Ang]:       [  0.852922,   0.609198,   0.455183]

  Decomposition into state-averaged NTOs
    H- 2 -> L+ 0:  0.6723 ( 90.4%)
                   omega =  92.2%
  ----------------------------------------------------------------------------


  Excited state 6 (singlet, A2)                                    [converged]
  ----------------------------------------------------------------------------
  Term symbol:  6 (1) A2                                    R^2 =  2.13680e-07

  Total energy:                                            -78.4432571814 a.u.
  Excitation energy:                                              10.113914 eV

  Osc. strength:                                                      0.000000
  Trans. dip. moment [a.u.]:           [   0.000000,    0.000000,    0.000000]
  <i|r^2|0> [a.u.]:                    [   0.000000,    0.000000,    0.000000]

  Dip. moment [a.u.]:                  [  -0.000000,    0.000000,   -4.429963]
  Total dipole [Debye]:                                              11.259845
  <r^2> [a.u.]:                        [  56.980823,   42.439238,   93.311433]
  Total <r^2> [a.u.]:                                               192.731494

  V1^2 = 0.9358, V2^2 = 0.0642

  Important amplitudes:
      occ i      occ j       vir a       vir b          v   
    ---------------------------------------------------------
     3 (B1) A               2 (B2) A                  0.6744
     3 (B1) A               3 (B2) A                  0.1076
    ---------------------------------------------------------

  Density matrix analysis:
  ------------------------
  NOs
    Occupation of frontier NOs:
       0.9941   1.0207
    Number of electrons: 18.000000
    Number of unpaired electrons: n_u =  2.48315, n_u,nl =  2.07616
    NO participation ratio (PR_NO):  3.133637
  
  
  Mulliken Population Analysis
  Atom      Charge (e)              h+              e-           Del q
  --------------------------------------------------------------------
   1 C       -0.710389        0.313970       -0.628987       -0.315016
   2 C       -0.710389        0.313970       -0.628987       -0.315016
   3 H        0.314282        0.159278       -0.019754        0.139524
   4 H        0.314282        0.159278       -0.019754        0.139524
   5 H        0.213747        0.176974       -0.010109        0.166865
   6 H        0.213747        0.176974       -0.010109        0.166865
   7 H       -0.635281        0.034374       -0.017119        0.017255
  --------------------------------------------------------------------
  Sum:       -1.000000        1.334819       -1.334819        0.000000
  
  Multipole moment analysis of the density matrix
    Molecular charge:                      -1.000000
    Number of electrons:                   18.000000
      Center of electronic charge [Ang]: [  0.000000,  -0.000000,   0.130235]
    Total nuclear charge:                  17.000000
      Center of nuclear charge [Ang]:    [ -0.000000,   0.000000,  -0.000000]
    Dipole moment [D]:                     11.259841
      Cartesian components [D]:          [ -0.000000,   0.000000, -11.259841]
    RMS size of the density [Ang]:         1.726670
      Cartesian components [Ang]:        [  0.941519,   0.812547,   1.197789]
  
  Exciton analysis of the difference density matrix
    <r_h> [Ang]:                  [  0.000000,   0.000000,  -0.077063]
    <r_e> [Ang]:                  [  0.000000,  -0.000000,  -0.127487]
    |<r_e - r_h>| [Ang]:            0.050424
    Hole size [Ang]:                1.821011
      Cartesian components [Ang]: [  1.202856,   0.664452,   1.194874]
    Electron size [Ang]:            3.243785
      Cartesian components [Ang]: [  1.535580,   2.433338,   1.497664]

  Transition density matrix analysis:
  -----------------------------------
  
  CT numbers (Mulliken)
    omega =     0.9197
    <Phe> =    -0.0006
  
  Exciton analysis of the transition density matrix
    Trans. dipole moment [D]:             0.000000
      Cartesian components [D]:         [  0.000000,   0.000000,   0.000000]
    <r_h> [Ang]:                        [  0.000000,   0.000000,  -0.143066]
    <r_e> [Ang]:                        [  0.000000,  -0.000000,  -0.189553]
    |<r_e - r_h>| [Ang]:                  0.046487
    Hole size [Ang]:                      1.521102
      Cartesian components [Ang]:       [  1.125358,   0.416143,   0.934958]
    Electron size [Ang]:                  3.613411
      Cartesian components [Ang]:       [  1.660826,   2.779138,   1.604615]
    RMS electron-hole separation [Ang]:   3.886640
      Cartesian components [Ang]:       [  1.939547,   2.809557,   1.857557]
    Covariance(r_h, r_e) [Ang^2]:         0.133343
    Correlation coefficient:              0.024260
    Center-of-mass size [Ang]:            1.977194
      Cartesian components [Ang]:       [  1.035339,   1.405343,   0.928643]

  Decomposition into state-averaged NTOs
    H- 3 -> L+ 2:  0.6773 ( 91.7%)
                   omega =  92.0%
  ----------------------------------------------------------------------------


  Excited state 7 (singlet, A2)                                    [converged]
  ----------------------------------------------------------------------------
  Term symbol:  7 (1) A2                                    R^2 =  3.23216e-07

  Total energy:                                            -78.4307546518 a.u.
  Excitation energy:                                              10.454125 eV

  Osc. strength:                                                      0.000000
  Trans. dip. moment [a.u.]:           [  -0.000000,   -0.000000,    0.000000]
  <i|r^2|0> [a.u.]:                    [   0.000000,   -0.000000,   -0.000000]

  Dip. moment [a.u.]:                  [  -0.000000,   -0.000000,   -4.047093]
  Total dipole [Debye]:                                              10.286687
  <r^2> [a.u.]:                        [  77.476391,   22.748297,   96.949623]
  Total <r^2> [a.u.]:                                               197.174311

  V1^2 = 0.9453, V2^2 = 0.0547

  Important amplitudes:
      occ i      occ j       vir a       vir b          v   
    ---------------------------------------------------------
     1 (B2) A               6 (B1) A                  0.6579
     1 (B2) A               4 (B1) A                 -0.1232
    ---------------------------------------------------------

  Density matrix analysis:
  ------------------------
  NOs
    Occupation of frontier NOs:
       0.9839   0.9853
    Number of electrons: 18.000000
    Number of unpaired electrons: n_u =  2.34908, n_u,nl =  2.03007
    NO participation ratio (PR_NO):  2.834394
  
  
  Mulliken Population Analysis
  Atom      Charge (e)              h+              e-           Del q
  --------------------------------------------------------------------
   1 C       -0.569623        0.532535       -0.706785       -0.174251
   2 C       -0.569623        0.532535       -0.706785       -0.174251
   3 H        0.167570        0.065595       -0.072783       -0.007188
   4 H        0.167570        0.065595       -0.072783       -0.007188
   5 H        0.215147        0.102421        0.065844        0.168265
   6 H        0.215147        0.102421        0.065844        0.168265
   7 H       -0.626189        0.037182       -0.010835        0.026347
  --------------------------------------------------------------------
  Sum:       -1.000000        1.438284       -1.438284       -0.000000
  
  Multipole moment analysis of the density matrix
    Molecular charge:                      -1.000000
    Number of electrons:                   18.000000
      Center of electronic charge [Ang]: [  0.000000,   0.000000,   0.118979]
    Total nuclear charge:                  17.000000
      Center of nuclear charge [Ang]:    [ -0.000000,   0.000000,  -0.000000]
    Dipole moment [D]:                     10.286684
      Cartesian components [D]:          [ -0.000000,  -0.000000, -10.286684]
    RMS size of the density [Ang]:         1.747373
      Cartesian components [Ang]:        [  1.097867,   0.594894,   1.222335]
  
  Exciton analysis of the difference density matrix
    <r_h> [Ang]:                  [  0.000000,  -0.000000,  -0.129679]
    <r_e> [Ang]:                  [  0.000000,   0.000000,  -0.317342]
    |<r_e - r_h>| [Ang]:            0.187663
    Hole size [Ang]:                1.708737
      Cartesian components [Ang]: [  1.061832,   0.886178,   1.003485]
    Electron size [Ang]:            3.224615
      Cartesian components [Ang]: [  2.442027,   1.427239,   1.548430]

  Transition density matrix analysis:
  -----------------------------------
  
  CT numbers (Mulliken)
    omega =     0.9140
    <Phe> =    -0.0036
  
  Exciton analysis of the transition density matrix
    Trans. dipole moment [D]:             0.000000
      Cartesian components [D]:         [ -0.000000,  -0.000000,   0.000000]
    <r_h> [Ang]:                        [ -0.000000,  -0.000000,  -0.194847]
    <r_e> [Ang]:                        [  0.000000,   0.000000,  -0.440715]
    |<r_e - r_h>| [Ang]:                  0.245869
    Hole size [Ang]:                      1.276041
      Cartesian components [Ang]:       [  0.763484,   0.878285,   0.523439]
    Electron size [Ang]:                  3.720846
      Cartesian components [Ang]:       [  2.843092,   1.661832,   1.732004]
    RMS electron-hole separation [Ang]:   3.932169
      Cartesian components [Ang]:       [  2.938372,   1.870198,   1.824906]
    Covariance(r_h, r_e) [Ang^2]:         0.035737
    Correlation coefficient:              0.007527
    Center-of-mass size [Ang]:            1.971323
      Cartesian components [Ang]:       [  1.474630,   0.944523,   0.905238]

  Decomposition into state-averaged NTOs
    H- 0 -> L+ 3:  0.5166 ( 53.4%)
    H- 0 -> L+ 5:  0.4263 ( 36.3%)
    H- 0 -> L+ 4: -0.0796 (  1.3%)
                   omega =  91.4%
  ----------------------------------------------------------------------------


  Excited state 8 (singlet, A2)                                    [converged]
  ----------------------------------------------------------------------------
  Term symbol:  8 (1) A2                                    R^2 =  2.03774e-07

  Total energy:                                            -78.4076694977 a.u.
  Excitation energy:                                              11.082304 eV

  Osc. strength:                                                      0.000000
  Trans. dip. moment [a.u.]:           [   0.000000,    0.000000,   -0.000000]
  <i|r^2|0> [a.u.]:                    [   0.000000,   -0.000000,    0.000000]

  Dip. moment [a.u.]:                  [  -0.000000,    0.000000,    0.612803]
  Total dipole [Debye]:                                               1.557589
  <r^2> [a.u.]:                        [  63.692376,   27.088361,   63.405783]
  Total <r^2> [a.u.]:                                               154.186520

  V1^2 = 0.9164, V2^2 = 0.0836

  Important amplitudes:
      occ i      occ j       vir a       vir b          v   
    ---------------------------------------------------------
     5 (A1) A               3 (A2) A                  0.6631
     5 (A1) A               2 (A2) A                 -0.1227
    ---------------------------------------------------------

  Density matrix analysis:
  ------------------------
  NOs
    Occupation of frontier NOs:
       0.9689   0.9897
    Number of electrons: 18.000000
    Number of unpaired electrons: n_u =  2.46813, n_u,nl =  2.06531
    NO participation ratio (PR_NO):  3.146331
  
  
  Mulliken Population Analysis
  Atom      Charge (e)              h+              e-           Del q
  --------------------------------------------------------------------
   1 C       -0.671132        0.254206       -0.529965       -0.275759
   2 C       -0.671132        0.254206       -0.529965       -0.275759
   3 H        0.110692        0.013349       -0.077415       -0.064066
   4 H        0.110692        0.013349       -0.077415       -0.064066
   5 H        0.044032        0.005538       -0.008388       -0.002850
   6 H        0.044032        0.005538       -0.008388       -0.002850
   7 H        0.032815        0.715376       -0.030025        0.685351
  --------------------------------------------------------------------
  Sum:       -1.000000        1.261562       -1.261562        0.000000
  
  Multipole moment analysis of the density matrix
    Molecular charge:                      -1.000000
    Number of electrons:                   18.000000
      Center of electronic charge [Ang]: [  0.000000,  -0.000000,  -0.018016]
    Total nuclear charge:                  17.000000
      Center of nuclear charge [Ang]:    [ -0.000000,   0.000000,  -0.000000]
    Dipole moment [D]:                     1.557589
      Cartesian components [D]:          [ -0.000000,   0.000000,   1.557589]
    RMS size of the density [Ang]:         1.548669
      Cartesian components [Ang]:        [  0.995425,   0.649167,   0.993020]
  
  Exciton analysis of the difference density matrix
    <r_h> [Ang]:                  [ -0.000000,  -0.000000,   2.175716]
    <r_e> [Ang]:                  [  0.000000,  -0.000000,   0.007115]
    |<r_e - r_h>| [Ang]:            2.168601
    Hole size [Ang]:                2.103958
      Cartesian components [Ang]: [  0.973147,   0.895891,   1.636155]
    Electron size [Ang]:            2.870526
      Cartesian components [Ang]: [  1.844133,   1.786904,   1.282993]

  Transition density matrix analysis:
  -----------------------------------
  
  CT numbers (Mulliken)
    omega =     0.9037
    <Phe> =     0.0001
  
  Exciton analysis of the transition density matrix
    Trans. dipole moment [D]:             0.000000
      Cartesian components [D]:         [  0.000000,   0.000000,  -0.000000]
    <r_h> [Ang]:                        [ -0.000000,   0.000000,   2.812936]
    <r_e> [Ang]:                        [  0.000000,  -0.000000,  -0.189576]
    |<r_e - r_h>| [Ang]:                  3.002512
    Hole size [Ang]:                      1.528131
      Cartesian components [Ang]:       [  0.793082,   0.775973,   1.050748]
    Electron size [Ang]:                  2.990680
      Cartesian components [Ang]:       [  1.969269,   1.948753,   1.126281]
    RMS electron-hole separation [Ang]:   4.504680
      Cartesian components [Ang]:       [  2.121734,   2.098658,   3.374318]
    Covariance(r_h, r_e) [Ang^2]:         0.001143
    Correlation coefficient:              0.000250
    Center-of-mass size [Ang]:            1.679408
      Cartesian components [Ang]:       [  1.062102,   1.048234,   0.770424]

  Decomposition into state-averaged NTOs
    H- 1 -> L+ 6: -0.6486 ( 84.1%)
    H- 1 -> L+ 1: -0.1707 (  5.8%)
                   omega =  90.4%
  ----------------------------------------------------------------------------


  Excited state 9 (singlet, A2)                                    [converged]
  ----------------------------------------------------------------------------
  Term symbol:  9 (1) A2                                    R^2 =  2.33088e-08

  Total energy:                                            -78.3797616185 a.u.
  Excitation energy:                                              11.841716 eV

  Osc. strength:                                                      0.000000
  Trans. dip. moment [a.u.]:           [  -0.000000,    0.000000,   -0.000000]
  <i|r^2|0> [a.u.]:                    [   0.000000,    0.000000,    0.000000]

  Dip. moment [a.u.]:                  [   0.000000,    0.000000,    8.803042]
  Total dipole [Debye]:                                              22.375106
  <r^2> [a.u.]:                        [ 102.950446,   52.905918,   47.850687]
  Total <r^2> [a.u.]:                                               203.707051

  V1^2 = 0.0003, V2^2 = 0.9997

  Important amplitudes:
      occ i      occ j       vir a       vir b          v   
    ---------------------------------------------------------
     5 (A1) A   5 (A1) B    4 (B1) A    2 (B2) B     -0.3535
     5 (A1) A               3 (A2) A                  0.0119
    ---------------------------------------------------------

  Density matrix analysis:
  ------------------------
  NOs
    Occupation of frontier NOs:
       1.0003   1.0017
    Number of electrons: 18.000000
    Number of unpaired electrons: n_u =  2.40960, n_u,nl =  2.06100
    NO participation ratio (PR_NO):  2.886174
  
  
  Mulliken Population Analysis
  Atom      Charge (e)              h+              e-           Del q
  --------------------------------------------------------------------
   1 C       -1.203790        0.139134       -0.947551       -0.808418
   2 C       -1.203790        0.139134       -0.947551       -0.808418
   3 H        0.194443        0.017607        0.002078        0.019685
   4 H        0.194443        0.017607        0.002078        0.019685
   5 H       -0.006907        0.000597       -0.054386       -0.053789
   6 H       -0.006907        0.000597       -0.054386       -0.053789
   7 H        1.032508        1.685036        0.000008        1.685043
  --------------------------------------------------------------------
  Sum:       -1.000000        1.999710       -1.999710        0.000000
  
  Multipole moment analysis of the density matrix
    Molecular charge:                      -1.000000
    Number of electrons:                   18.000000
      Center of electronic charge [Ang]: [ -0.000000,  -0.000000,  -0.258798]
    Total nuclear charge:                  17.000000
      Center of nuclear charge [Ang]:    [ -0.000000,   0.000000,  -0.000000]
    Dipole moment [D]:                     22.375099
      Cartesian components [D]:          [  0.000000,   0.000000,  22.375099]
    RMS size of the density [Ang]:         1.761284
      Cartesian components [Ang]:        [  1.265549,   0.907229,   0.823069]
  
  Exciton analysis of the difference density matrix
    <r_h> [Ang]:                  [ -0.000000,   0.000000,   2.868863]
    <r_e> [Ang]:                  [ -0.000000,  -0.000000,  -0.666604]
    |<r_e - r_h>| [Ang]:            3.535468
    Hole size [Ang]:                1.443456
      Cartesian components [Ang]: [  0.765707,   0.755105,   0.962847]
    Electron size [Ang]:            4.027842
      Cartesian components [Ang]: [  2.762578,   2.386121,   1.702381]

  Transition density matrix analysis:
  -----------------------------------
  
  CT numbers (Mulliken)
    omega =     0.0004
    <Phe> =     0.0160
  
  Exciton analysis of the transition density matrix
    Trans. dipole moment [D]:             0.000000
      Cartesian components [D]:         [ -0.000000,   0.000000,  -0.000000]
    <r_h> [Ang]:                        [  0.000000,  -0.000000,   2.506589]
    <r_e> [Ang]:                        [ -0.000000,   0.000000,  -0.278795]
    |<r_e - r_h>| [Ang]:                  2.785383
    Hole size [Ang]:                      1.950019
      Cartesian components [Ang]:       [  0.895862,   1.014059,   1.404169]
    Electron size [Ang]:                  2.770529
      Cartesian components [Ang]:       [  1.944784,   1.657436,   1.070771]
    RMS electron-hole separation [Ang]:   4.380948
      Cartesian components [Ang]:       [  2.175293,   1.971085,   3.252019]
    Covariance(r_h, r_e) [Ang^2]:         0.022031
    Correlation coefficient:              0.004078
    Center-of-mass size [Ang]:            1.697238
      Cartesian components [Ang]:       [  1.053282,   0.957294,   0.924556]

  Decomposition into state-averaged NTOs
                   omega =   0.0%
  ----------------------------------------------------------------------------


  Excited state 10 (singlet, A2)                                    [converged]
  ----------------------------------------------------------------------------
  Term symbol:  10 (1) A2                                   R^2 =  5.09182e-06

  Total energy:                                            -78.3693920601 a.u.
  Excitation energy:                                              12.123886 eV

  Osc. strength:                                                      0.000000
  Trans. dip. moment [a.u.]:           [   0.000000,   -0.000000,   -0.000000]
  <i|r^2|0> [a.u.]:                    [   0.000000,   -0.000000,    0.000000]

  Dip. moment [a.u.]:                  [   0.000000,    0.000000,   -4.521581]
  Total dipole [Debye]:                                              11.492714
  <r^2> [a.u.]:                        [  55.898687,   20.878369,   87.928668]
  Total <r^2> [a.u.]:                                               164.705724

  V1^2 = 0.9343, V2^2 = 0.0657

  Important amplitudes:
      occ i      occ j       vir a       vir b          v   
    ---------------------------------------------------------
     3 (A1) A               2 (A2) A                  0.5007
     3 (A1) A               1 (A2) A                  0.4377
    ---------------------------------------------------------

  Density matrix analysis:
  ------------------------
  NOs
    Occupation of frontier NOs:
       0.9918   1.0434
    Number of electrons: 18.000000
    Number of unpaired electrons: n_u =  2.46571, n_u,nl =  2.06531
    NO participation ratio (PR_NO):  3.171733
  
  
  Mulliken Population Analysis
  Atom      Charge (e)              h+              e-           Del q
  --------------------------------------------------------------------
   1 C       -0.582980        0.336595       -0.524204       -0.187608
   2 C       -0.582980        0.336595       -0.524204       -0.187608
   3 H        0.251470        0.086054       -0.009343        0.076712
   4 H        0.251470        0.086054       -0.009343        0.076712
   5 H        0.154299        0.118264       -0.010848        0.107417
   6 H        0.154299        0.118264       -0.010848        0.107417
   7 H       -0.645576        0.012580       -0.005620        0.006960
  --------------------------------------------------------------------
  Sum:       -1.000000        1.094408       -1.094408        0.000000
  
  Multipole moment analysis of the density matrix
    Molecular charge:                      -1.000000
    Number of electrons:                   18.000000
      Center of electronic charge [Ang]: [ -0.000000,  -0.000000,   0.132929]
    Total nuclear charge:                  17.000000
      Center of nuclear charge [Ang]:    [ -0.000000,   0.000000,  -0.000000]
    Dipole moment [D]:                     11.492711
      Cartesian components [D]:          [  0.000000,   0.000000, -11.492711]
    RMS size of the density [Ang]:         1.595205
      Cartesian components [Ang]:        [  0.932536,   0.569919,   1.162002]
  
  Exciton analysis of the difference density matrix
    <r_h> [Ang]:                  [  0.000000,   0.000000,  -0.164953]
    <r_e> [Ang]:                  [  0.000000,  -0.000000,  -0.182154]
    |<r_e - r_h>| [Ang]:            0.017201
    Hole size [Ang]:                1.520718
      Cartesian components [Ang]: [  1.002078,   0.548251,   1.003914]
    Electron size [Ang]:            1.984239
      Cartesian components [Ang]: [  1.355937,   1.211245,   0.794683]

  Transition density matrix analysis:
  -----------------------------------
  
  CT numbers (Mulliken)
    omega =     0.9057
    <Phe> =    -0.0122
  
  Exciton analysis of the transition density matrix
    Trans. dipole moment [D]:             0.000000
      Cartesian components [D]:         [  0.000000,  -0.000000,  -0.000000]
    <r_h> [Ang]:                        [  0.000000,  -0.000000,  -0.209360]
    <r_e> [Ang]:                        [ -0.000000,  -0.000000,  -0.197956]
    |<r_e - r_h>| [Ang]:                  0.011404
    Hole size [Ang]:                      1.373763
      Cartesian components [Ang]:       [  0.943376,   0.429670,   0.901470]
    Electron size [Ang]:                  1.986335
      Cartesian components [Ang]:       [  1.371067,   1.233965,   0.736908]
    RMS electron-hole separation [Ang]:   2.415371
      Cartesian components [Ang]:       [  1.668395,   1.304928,   1.160878]
    Covariance(r_h, r_e) [Ang^2]:        -0.000568
    Correlation coefficient:             -0.000208
    Center-of-mass size [Ang]:            1.207437
      Cartesian components [Ang]:       [  0.830064,   0.654166,   0.583922]

  Decomposition into state-averaged NTOs
    H- 4 -> L+ 0: -0.6637 ( 88.1%)
                   omega =  90.6%
  ----------------------------------------------------------------------------


--------------------------------------------------------------------------------
  Time of ADC calculation:  CPU 111.57 s  wall 33.00 s
================================================================================
 
 --------------------------------------------------------------
             Orbital Energies (a.u.) and Symmetries
 --------------------------------------------------------------
 
 Alpha MOs, Restricted
 -- Occupied --                  
-11.073 -11.072  -0.879  -0.621  -0.495  -0.406  -0.350  -0.216
  1 A1    1 B1    2 A1    2 B1    3 A1    4 A1    3 B1    1 B2                 
 -0.023
  5 A1                                                                         
 -- Virtual --                   
  0.175   0.192   0.214   0.217   0.222   0.240   0.305   0.324
  4 B1    6 A1    2 B2    1 A2    7 A1    5 B1    8 A1    2 A2                 
  0.342   0.424   0.458   0.469   0.487   0.493   0.495   0.528
  6 B1    9 A1    7 B1   10 A1   11 A1    3 B2    8 B1   12 A1                 
  0.530   0.575   0.704   0.768   0.978   1.009   1.052   1.093
  9 B1    3 A2   10 B1   11 B1   13 A1   14 A1   15 A1   12 B1                 
  1.124   1.185   1.233   1.254   1.265   1.280   1.290   1.308
 16 A1   13 B1   17 A1   18 A1    4 B2    5 B2   14 B1    4 A2                 
  1.438   1.448   1.450   1.612   1.784   1.835   1.899   1.904
 15 B1    5 A2    6 B2   16 B1   19 A1   17 B1   20 A1    7 B2                 
  1.938   2.009   2.036   2.105   2.126   2.184   2.233   2.263
 18 B1   21 A1    6 A2    8 B2   19 B1    9 B2   22 A1   23 A1                 
  2.342   2.492   2.576   2.651   2.730   2.755   2.996   3.022
  7 A2   20 B1    8 A2   24 A1   21 B1   22 B1   25 A1   26 A1                 
  3.426   3.508
 23 B1   24 B1                                                                 
 
 Beta MOs, Restricted
 -- Occupied --                  
-11.073 -11.072  -0.879  -0.621  -0.495  -0.406  -0.350  -0.216
  1 A1    1 B1    2 A1    2 B1    3 A1    4 A1    3 B1    1 B2                 
 -0.023
  5 A1                                                                         
 -- Virtual --                   
  0.175   0.192   0.214   0.217   0.222   0.240   0.305   0.324
  4 B1    6 A1    2 B2    1 A2    7 A1    5 B1    8 A1    2 A2                 
  0.342   0.424   0.458   0.469   0.487   0.493   0.495   0.528
  6 B1    9 A1    7 B1   10 A1   11 A1    3 B2    8 B1   12 A1                 
  0.530   0.575   0.704   0.768   0.978   1.009   1.052   1.093
  9 B1    3 A2   10 B1   11 B1   13 A1   14 A1   15 A1   12 B1                 
  1.124   1.185   1.233   1.254   1.265   1.280   1.290   1.308
 16 A1   13 B1   17 A1   18 A1    4 B2    5 B2   14 B1    4 A2                 
  1.438   1.448   1.450   1.612   1.784   1.835   1.899   1.904
 15 B1    5 A2    6 B2   16 B1   19 A1   17 B1   20 A1    7 B2                 
  1.938   2.009   2.036   2.105   2.126   2.184   2.233   2.263
 18 B1   21 A1    6 A2    8 B2   19 B1    9 B2   22 A1   23 A1                 
  2.342   2.492   2.576   2.651   2.730   2.755   2.996   3.022
  7 A2   20 B1    8 A2   24 A1   21 B1   22 B1   25 A1   26 A1                 
  3.426   3.508
 23 B1   24 B1                                                                 
 --------------------------------------------------------------
 
          Ground-State Mulliken Net Atomic Charges

     Atom                 Charge (a.u.)
  ----------------------------------------
      1 C                    -0.369930
      2 C                    -0.369930
      3 H                     0.175097
      4 H                     0.175097
      5 H                     0.038988
      6 H                     0.038988
      7 H                    -0.688310
  ----------------------------------------
  Sum of atomic charges =    -1.000000

 -----------------------------------------------------------------
                    Cartesian Multipole Moments
 -----------------------------------------------------------------
    Charge (ESU x 10^10)
                -4.8032
    Dipole Moment (Debye)
         X       0.0000      Y      -0.0000      Z     -11.8856
       Tot      11.8856
    Quadrupole Moments (Debye-Ang)
        XX     -19.0984     XY       0.0000     YY     -21.9788
        XZ       0.0000     YZ       0.0000     ZZ     -56.2840
    Octopole Moments (Debye-Ang^2)
       XXX      -0.0000    XXY      -0.0000    XYY       0.0000
       YYY       0.0000    XXZ      -9.4276    XYZ       0.0000
       YYZ      -9.9902    XZZ       0.0000    YZZ      -0.0000
       ZZZ    -136.1748
    Hexadecapole Moments (Debye-Ang^3)
      XXXX     -89.3993   XXXY       0.0000   XXYY     -22.1629
      XYYY      -0.0000   YYYY     -40.3598   XXXZ      -0.0000
      XXYZ       0.0000   XYYZ       0.0000   YYYZ       0.0000
      XXZZ     -61.6443   XYZZ      -0.0000   YYZZ     -56.0331
      XZZZ       0.0000   YZZZ      -0.0000   ZZZZ    -598.1945
 -----------------------------------------------------------------
 Total job time:  114.00s(wall), 156.23s(cpu) 
 Thu Feb 17 13:43:02 2022

        *************************************************************
        *                                                           *
        *  Thank you very much for using Q-Chem.  Have a nice day.  *
        *                                                           *
        *************************************************************


