/src/tsommerfeld/qchem/exe/qcprog.exe .input0.777778.12348.qcin.1 /src/jdavis/qchem.scratch/qchem12348/

                  Welcome to Q-Chem
     A Quantum Leap Into The Future Of Chemistry


 Q-Chem 5.4 (devel), Q-Chem, Inc., Pleasanton, CA (2021)

 E. Epifanovsky,  A. T. B. Gilbert,  Xintian Feng,  Joonho Lee,  Yuezhi Mao,  
 N. Mardirossian,  P. Pokhilko,  A. White,  M. Wormit,  M. P. Coons,  
 A. L. Dempwolff,  Zhengting Gan,  D. Hait,  P. R. Horn,  L. D. Jacobson,  
 I. Kaliman,  J. Kussmann,  A. W. Lange,  Ka Un Lao,  D. S. Levine,  Jie Liu,  
 S. C. McKenzie,  A. F. Morrison,  K. Nanda,  F. Plasser,  D. R. Rehn,  
 M. L. Vidal,  Zhi-Qiang You,  Ying Zhu,  B. Alam,  B. Albrecht,  
 A. Aldossary,  E. Alguire,  J. H. Andersen,  D. Barton,  K. Begam,  A. Behn,  
 Y. A. Bernard,  E. J. Berquist,  H. Burton,  A. Carreras,  K. Carter-Fenk,  
 R. Chakraborty,  A. D. Chien,  K. D. Closser,  V. Cofer-Shabica,  
 S. Dasgupta,  Jia Deng,  M. de Wergifosse,  M. Diedenhofen,  Hainam Do,  
 S. Ehlert,  Po-Tung Fang,  S. Fatehi,  Qingguo Feng,  T. Friedhoff,  
 J. Gayvert,  Qinghui Ge,  G. Gidofalvi,  M. Goldey,  J. Gomes,  
 C. Gonzalez-Espinoza,  S. Gulania,  A. Gunina,  M. W. D. Hanson-Heine,  
 P. H. P. Harbach,  A. W. Hauser,  M. F. Herbst,  M. Hernandez Vera,  
 M. Hodecker,  Z. C. Holden,  S. Houck,  Xunkun Huang,  Kerwin Hui,  
 B. C. Huynh,  M. Ivanov,  Hyunjun Ji,  Hanjie Jiang,  B. Kaduk,  S. Kaehler,  
 K. Khistyaev,  Jaehoon Kim,  P. Klunzinger,  Z. Koczor-Benda,  
 Joong Hoon Koh,  D. Kosenkov,  L. Koulias,  T. Kowalczyk,  C. M. Krauter,  
 K. Kue,  A. Kunitsa,  T. Kus,  A. Landau,  K. V. Lawler,  D. Lefrancois,  
 S. Lehtola,  Rain Li,  Yi-Pei Li,  Jiashu Liang,  M. Liebenthal,  
 Hung-Hsuan Lin,  You-Sheng Lin,  Fenglai Liu,  Kuan-Yu Liu,  
 M. Loipersberger,  A. Luenser,  A. Manjanath,  P. Manohar,  E. Mansoor,  
 S. F. Manzer,  Shan-Ping Mao,  A. V. Marenich,  T. Markovich,  S. Mason,  
 S. A. Maurer,  P. F. McLaughlin,  M. F. S. J. Menger,  J.-M. Mewes,  
 S. A. Mewes,  P. Morgante,  J. W. Mullinax,  K. J. Oosterbaan,  G. Paran,  
 Alexander C. Paul,  Suranjan K. Paul,  F. Pavosevic,  Zheng Pei,  S. Prager,  
 E. I. Proynov,  E. Ramos,  B. Rana,  A. E. Rask,  A. Rettig,  R. M. Richard,  
 F. Rob,  E. Rossomme,  T. Scheele,  M. Scheurer,  M. Schneider,  
 N. Sergueev,  S. M. Sharada,  W. Skomorowski,  D. W. Small,  C. J. Stein,  
 Yu-Chuan Su,  E. J. Sundstrom,  Zhen Tao,  J. Thirman,  T. Tsuchimochi,  
 N. M. Tubman,  S. P. Veccham,  O. Vydrov,  J. Wenzel,  J. Witte,  A. Yamada,  
 Kun Yao,  S. Yeganeh,  S. R. Yost,  A. Zech,  Igor Ying Zhang,  Xing Zhang,  
 Yu Zhang,  D. Zuev,  A. Aspuru-Guzik,  A. T. Bell,  N. A. Besley,  
 K. B. Bravaya,  B. R. Brooks,  D. Casanova,  Jeng-Da Chai,  S. Coriani,  
 C. J. Cramer,  A. E. DePrince, III,  R. A. DiStasio Jr.,  A. Dreuw,  
 B. D. Dunietz,  T. R. Furlani,  W. A. Goddard III,  S. Grimme,  
 S. Hammes-Schiffer,  T. Head-Gordon,  W. J. Hehre,  Chao-Ping Hsu,  
 T.-C. Jagau,  Yousung Jung,  A. Klamt,  Jing Kong,  D. S. Lambrecht,  
 WanZhen Liang,  N. J. Mayhall,  C. W. McCurdy,  J. B. Neaton,  
 C. Ochsenfeld,  J. A. Parkhill,  R. Peverati,  V. A. Rassolov,  Yihan Shao,  
 L. V. Slipchenko,  T. Stauch,  R. P. Steele,  J. E. Subotnik,  
 A. J. W. Thom,  A. Tkatchenko,  D. G. Truhlar,  T. Van Voorhis,  
 T. A. Wesolowski,  K. B. Whaley,  H. L. Woodcock III,  P. M. Zimmerman,  
 S. Faraji,  P. M. W. Gill,  M. Head-Gordon,  J. M. Herbert,  A. I. Krylov

 Additional authors for Version 5.4.1: 
 S. Kotaru,  Shaozhi Li,  Xiangyuan Li,  F. Matz,  A. Molle,  Haisheng Ren,  
 Yingli Su,  Hung-Yi Tsai,  C. Utku,  Fang Wang

 Contributors to earlier versions of Q-Chem not listed above: 
 R. D. Adamson,  B. Austin,  R. Baer,  J. Baker,  G. J. O. Beran,  
 K. Brandhorst,  S. T. Brown,  E. F. C. Byrd,  A. K. Chakraborty,  
 G. K. L. Chan,  Chun-Min Chang,  Yunqing Chen,  C.-L. Cheng,  
 Siu Hung Chien,  D. M. Chipman,  D. L. Crittenden,  H. Dachsel,  
 R. J. Doerksen,  A. D. Dutoi,  R. G. Edgar,  J. Fosso-Tande,  
 L. Fusti-Molnar,  D. Ghosh,  A. Ghysels,  A. Golubeva-Zadorozhnaya,  
 J. Gonthier,  M. S. Gordon,  S. R. Gwaltney,  G. Hawkins,  J. E. Herr,  
 A. Heyden,  S. Hirata,  E. G. Hohenstein,  G. Kedziora,  F. J. Keil,  
 C. Kelley,  Jihan Kim,  R. A. King,  R. Z. Khaliullin,  P. P. Korambath,  
 W. Kurlancheek,  A. Laurent,  A. M. Lee,  M. S. Lee,  S. V. Levchenko,  
 Ching Yeh Lin,  D. Liotard,  E. Livshits,  R. C. Lochan,  I. Lotan,  
 L. A. Martinez-Martinez,  P. E. Maslen,  N. Nair,  D. P. O'Neill,  
 D. Neuhauser,  E. Neuscamman,  C. M. Oana,  R. Olivares-Amaya,  R. Olson,  
 T. M. Perrine,  B. Peters,  P. A. Pieniazek,  A. Prociuk,  Y. M. Rhee,  
 J. Ritchie,  M. A. Rohrdanz,  E. Rosta,  N. J. Russ,  H. F. Schaefer III,  
 M. W. Schmidt,  N. E. Schultz,  S. Sharma,  N. Shenvi,  C. D. Sherrill,  
 A. C. Simmonett,  A. Sodt,  T. Stein,  D. Stuck,  K. S. Thanthiriwatte,  
 V. Vanovschi,  L. Vogt,  Tao Wang,  A. Warshel,  M. A. Watson,  
 C. F. Williams,  Q. Wu,  X. Xu,  Jun Yang,  W. Zhang,  Yan Zhao

 Please cite Q-Chem as follows:
 Y. Shao et al., Mol. Phys. 113, 184-215 (2015)
 DOI: 10.1080/00268976.2014.952696

 Q-Chem 5.4.1 for Intel X86 EM64T Linux

 Parts of Q-Chem use Armadillo 9.900.5 (Nocturnal Misbehaviour).
 http://arma.sourceforge.net/

 Q-Chem begins on Thu Feb 17 12:48:16 2022  

 Host: node01
0

     Scratch files written to /src/jdavis/qchem.scratch/qchem12348//
 Processing $rem in /src/tsommerfeld/qchem/config/preferences:
 Processing $rem in /home/jdavis/.qchemrc:

 Checking the input file for inconsistencies... 	...done.

--------------------------------------------------------------
User input:
--------------------------------------------------------------
$molecule
-1 1
C        -0.6645000000    0.0000000000   -0.2082049804
C         0.6645000000    0.0000000000   -0.2082049804
H        -1.1590800000    0.0000000000    0.7541440196
H         1.1590800000    0.0000000000    0.7541440196
H        -1.1590800000    0.0000000000   -1.1705529804
H         1.1590800000    0.0000000000   -1.1705529804
H         0.0000000000    0.0000000000    3.0139349415
$end

$rem
   METHOD adc(2)
   BASIS gen
   PURECART 11
   EE_STATES [0,10,0,0]
   scf_convergence 8
   ADC_DAVIDSON_MAXITER 120
   ADC_DAVIDSON_MAXSUBSPACE 200
   adc_nguess_singles 100
   THRESH 14
   S2THRESH 14
   adc_davidson_conv 5
   adc_davidson_thresh 14
   THREADS 10
   MEM_TOTAL 95000
   STATE_ANALYSIS TRUE
$end
$basis
C 1
S   9   1.00
      6.665000D+03           6.920000D-04
      1.000000D+03           5.329000D-03
      2.280000D+02           2.707700D-02
      6.471000D+01           1.017180D-01
      2.106000D+01           2.747400D-01
      7.495000D+00           4.485640D-01
      2.797000D+00           2.850740D-01
      5.215000D-01           1.520400D-02
      1.596000D-01          -3.191000D-03
S   9   1.00
      6.665000D+03          -1.460000D-04
      1.000000D+03          -1.154000D-03
      2.280000D+02          -5.725000D-03
      6.471000D+01          -2.331200D-02
      2.106000D+01          -6.395500D-02
      7.495000D+00          -1.499810D-01
      2.797000D+00          -1.272620D-01
      5.215000D-01           5.445290D-01
      1.596000D-01           5.804960D-01
S   1   1.00
      1.596000D-01           1.000000D+00
S   1   1.00
      0.0469000              1.0000000
P   4   1.00
      9.439000D+00           3.810900D-02
      2.002000D+00           2.094800D-01
      5.456000D-01           5.085570D-01
      1.517000D-01           4.688420D-01
P   1   1.00
      1.517000D-01           1.000000D+00
P   1   1.00
      0.0337111      1.0000000
P   1   1.00
      0.0168556      1.0000000
D   1   1.00
      5.500000D-01           1.0000000
****
C 2
S   9   1.00
      6.665000D+03           6.920000D-04
      1.000000D+03           5.329000D-03
      2.280000D+02           2.707700D-02
      6.471000D+01           1.017180D-01
      2.106000D+01           2.747400D-01
      7.495000D+00           4.485640D-01
      2.797000D+00           2.850740D-01
      5.215000D-01           1.520400D-02
      1.596000D-01          -3.191000D-03
S   9   1.00
      6.665000D+03          -1.460000D-04
      1.000000D+03          -1.154000D-03
      2.280000D+02          -5.725000D-03
      6.471000D+01          -2.331200D-02
      2.106000D+01          -6.395500D-02
      7.495000D+00          -1.499810D-01
      2.797000D+00          -1.272620D-01
      5.215000D-01           5.445290D-01
      1.596000D-01           5.804960D-01
S   1   1.00
      1.596000D-01           1.000000D+00
S   1   1.00
      0.0469000              1.0000000
P   4   1.00
      9.439000D+00           3.810900D-02
      2.002000D+00           2.094800D-01
      5.456000D-01           5.085570D-01
      1.517000D-01           4.688420D-01
P   1   1.00
      1.517000D-01           1.000000D+00
P   1   1.00
      0.0337111      1.0000000
P   1   1.00
      0.0168556      1.0000000
D   1   1.00
      5.500000D-01           1.0000000
****
H 3
cc-pVDZ
****
H 4
cc-pVDZ
****
H 5
cc-pVDZ
****
H 6
cc-pVDZ
****
H 7
aug-cc-pVDZ
****
$end
--------------------------------------------------------------
 ----------------------------------------------------------------
             Standard Nuclear Orientation (Angstroms)
    I     Atom           X                Y                Z
 ----------------------------------------------------------------
    1      C      -0.6645000000    -0.0000000000    -0.1895377601
    2      C       0.6645000000     0.0000000000    -0.1895377601
    3      H      -1.1590800000    -0.0000000000     0.7728112399
    4      H       1.1590800000     0.0000000000     0.7728112399
    5      H      -1.1590800000    -0.0000000000    -1.1518857601
    6      H       1.1590800000     0.0000000000    -1.1518857601
    7      H      -0.0000000000     0.0000000000     3.0326021618
 ----------------------------------------------------------------
 Molecular Point Group                 C2v   NOp =  4
 Largest Abelian Subgroup              C2v   NOp =  4
 Nuclear Repulsion Energy =          36.17984589 hartrees
 There are        9 alpha and        9 beta electrons
 Requested basis set is non-standard
 There are 33 shells and 67 basis functions
 Total memory of 95000 MB is distributed as follows: 
   MEM_STATIC is set to 192 MB
   QALLOC/CCMAN JOB total memory use is  94808 MB
 Warning: actual memory use might exceed 95000 MB

 Total QAlloc Memory Limit  95000 MB
 Mega-Array Size       188 MB
 MEM_STATIC part       192 MB

                       Distance Matrix (Angstroms)
             C (  1)   C (  2)   H (  3)   H (  4)   H (  5)   H (  6)
   C (  2)  1.329000
   H (  3)  1.082000  2.061931
   H (  4)  2.061931  1.082000  2.318160
   H (  5)  1.082000  2.061931  1.924697  3.013026
   H (  6)  2.061931  1.082000  3.013026  1.924697  2.318160
   H (  7)  3.289946  3.289946  2.539709  2.539709  4.342051  4.342051

 
 A cutoff of  1.0D-14 yielded    561 shell pairs
 There are      2337 function pairs (      2484 Cartesian)
 Smallest overlap matrix eigenvalue = 6.74E-04

 Scale SEOQF with 1.000000e-01/1.000000e-01/1.000000e-01

 Standard Electronic Orientation quadrupole field applied
 Nucleus-field energy     =    -0.0000000011 hartrees
 ================ Generating on-the-fly SAD Guess ================
Attempting to make child job directory: /src/jdavis/qchem.scratch/qchem12348//Frg1/
Attempting to make child job directory: /src/jdavis/qchem.scratch/qchem12348//Frg2/
Creating input file /src/jdavis/qchem.scratch/qchem12348/Frg1.input
using default PutDataFrgm: nothing
calling putenv with: QCSCRATCH=/src/jdavis/qchem.scratch/qchem12348/ 
Spawning Job For Fragment 0
Done Job For Fragment 0
calling putenv with: QCSCRATCH=/src/jdavis/qchem.scratch 
calling putenv with: QCTHREADS=1 
Creating input file /src/jdavis/qchem.scratch/qchem12348/Frg2.input
using default PutDataFrgm: nothing
calling putenv with: QCSCRATCH=/src/jdavis/qchem.scratch/qchem12348/ 
Spawning Job For Fragment 1
Done Job For Fragment 1
calling putenv with: QCSCRATCH=/src/jdavis/qchem.scratch 
calling putenv with: QCTHREADS=1 
 Time for running child jobs:  CPU 1.77 s  wall 53.21 s
 ============= Method Specific SAD Guess Constructed =============
 Guess from on-the-fly superposition of atomic densities
 Warning: Energy on first SCF cycle will be non-variational
 A restricted Hartree-Fock SCF calculation will be
 performed using Pulay DIIS extrapolation
 SCF converges when DIIS error is below 1.0E-08
 using 10 threads for integral computing
 -------------------------------------------------------
 OpenMP Integral computing Module                
 Release: version 1.0, May 2013, Q-Chem Inc. Pittsburgh 
 -------------------------------------------------------
 ---------------------------------------
  Cycle       Energy         DIIS Error
 ---------------------------------------
    1     -78.8077609491      7.36E-02
    2     -78.4619236694      6.89E-03
    3     -78.5135379094      1.66E-03
    4     -78.5159846615      5.25E-04
    5     -78.5162535889      1.14E-04
    6     -78.5162737367      2.43E-05
    7     -78.5162752344      6.90E-06
    8     -78.5162753912      9.68E-07
    9     -78.5162753951      2.22E-07
   10     -78.5162753954      4.49E-08
   11     -78.5162753954      8.73E-09 Convergence criterion met
 ---------------------------------------
 SCF time:  CPU 9.74 s  wall 0.98 s
 SCF   energy in the final basis set = -78.51627540
 Total energy in the final basis set = -78.51627540
================================================================================
|                                                                              |
|                                 A D C  M A N                                 |
|                                                                              |
 ------------------------------------------------------------------------------ 
|                                                                              |
| Components:                                                                  |
|                                                                              |
| - libvmm - 1.3-trunk                                                         |
|   Authors:                                                                   |
|   Evgeny Epifanovsky, Ilya Kaliman                                           |
|                                                                              |
| - libtensor - 2.5-trunk                                                      |
|   Authors:                                                                   |
|   Evgeny Epifanovsky, Michael Wormit, Dmitry Zuev, Sam Manzer,               |
|   Ilya Kaliman                                                               |
|                                                                              |
| - libwfa - 1.1-trunk                                                         |
|   Authors:                                                                   |
|   Felix Plasser, Stefanie Mewes (Baeppler), Benjamin Thomitzni,              |
|   Michael Wormit, Feng Chen, Anna I. Krylov, Pavel Pokhilko                  |
|                                                                              |
| - libadc - 1.1-trunk                                                         |
|   Authors:                                                                   |
|   Michael Wormit, Adrian L. Dempwolff, Philipp H. P. Harbach,                |
|   Caroline Krauter, Dirk Rehn, Matthias Schneider, Jan Wenzel                |
|                                                                              |
| - adcman - 2.6-trunk                                                         |
|   Authors:                                                                   |
|   Michael Wormit, Adrian L. Dempwolff, Philipp H. P. Harbach,                |
|   Caroline Krauter, Daniel Lefrancois, Jan-Michael Mewes, Dirk Rehn,         |
|   Matthias Schneider, Jan Wenzel, Andreas Dreuw                              |
|                                                                              |
| Authors of earlier versions of ADCMAN:                                       |
| Andreas Dreuw, Jan Hendrik Starcke, Dirk Rehn, Michael Wormit                |
|                                                                              |
================================================================================

 
 Alpha MOs, Restricted
 -- Occupied --                  
-11.081 -11.080  -0.887  -0.629  -0.504  -0.414  -0.358  -0.224
  1 A1    1 B1    2 A1    2 B1    3 A1    4 A1    3 B1    1 B2                 
 -0.039
  5 A1                                                                         
 -- Virtual --                   
  0.110   0.131   0.133   0.135   0.147   0.160   0.212   0.214
  4 B1    2 B2    6 A1    1 A2    5 B1    7 A1    6 B1    8 A1                 
  0.245   0.270   0.281   0.282   0.332   0.374   0.410   0.438
  2 A2    9 A1    7 B1    3 B2   10 A1    3 A2    8 B1   11 A1                 
  0.484   0.493   0.583   0.654   0.795   0.887   0.978   1.013
 12 A1    9 B1   10 B1   11 B1   13 A1   14 A1    4 B2   15 A1                 
  1.023   1.041   1.080   1.098   1.148   1.178   1.212   1.269
 16 A1    4 A2   12 B1   17 A1   13 B1   14 B1   18 A1    5 B2                 
  1.436   1.440   1.444   1.504   1.759   1.771   1.849   1.873
  6 B2    5 A2   15 B1   16 B1   19 A1   17 B1   20 A1    7 B2                 
  1.902   1.941   1.998   2.076   2.090   2.120   2.175   2.194
 18 B1   21 A1    6 A2   19 B1    8 B2   22 A1    9 B2   23 A1                 
  2.322   2.423   2.568   2.602   2.688   2.735   2.952   2.975
  7 A2   20 B1    8 A2   24 A1   21 B1   22 B1   25 A1   26 A1                 
  3.411   3.497
 23 B1   24 B1                                                                 
 
 Beta MOs, Restricted
 -- Occupied --                  
-11.081 -11.080  -0.887  -0.629  -0.504  -0.414  -0.358  -0.224
  1 A1    1 B1    2 A1    2 B1    3 A1    4 A1    3 B1    1 B2                 
 -0.039
  5 A1                                                                         
 -- Virtual --                   
  0.110   0.131   0.133   0.135   0.147   0.160   0.212   0.214
  4 B1    2 B2    6 A1    1 A2    5 B1    7 A1    6 B1    8 A1                 
  0.245   0.270   0.281   0.282   0.332   0.374   0.410   0.438
  2 A2    9 A1    7 B1    3 B2   10 A1    3 A2    8 B1   11 A1                 
  0.484   0.493   0.583   0.654   0.795   0.887   0.978   1.013
 12 A1    9 B1   10 B1   11 B1   13 A1   14 A1    4 B2   15 A1                 
  1.023   1.041   1.080   1.098   1.148   1.178   1.212   1.269
 16 A1    4 A2   12 B1   17 A1   13 B1   14 B1   18 A1    5 B2                 
  1.436   1.440   1.444   1.504   1.759   1.771   1.849   1.873
  6 B2    5 A2   15 B1   16 B1   19 A1   17 B1   20 A1    7 B2                 
  1.902   1.941   1.998   2.076   2.090   2.120   2.175   2.194
 18 B1   21 A1    6 A2   19 B1    8 B2   22 A1    9 B2   23 A1                 
  2.322   2.423   2.568   2.602   2.688   2.735   2.952   2.975
  7 A2   20 B1    8 A2   24 A1   21 B1   22 B1   25 A1   26 A1                 
  3.411   3.497
 23 B1   24 B1                                                                 

--------------------------------------------------------------------------------
                                   HF Summary                                   
--------------------------------------------------------------------------------
  Energy:                                                  -78.5162753954 a.u.
  Dip. moment [a.u.]:                  [  -0.000000,    0.000000,   -4.557255]
  Total dipole [Debye]:                                              11.583390
  <r^2> [a.u.]:                        [  55.093454,   18.202821,   93.879666]
  Total <r^2> [a.u.]:                                               167.175940
--------------------------------------------------------------------------------

--------------------------------------------------------------------------------
                                 MP(2) Summary                                  
--------------------------------------------------------------------------------
  MP energy contribution:                                   -0.3042873265 a.u.
  Total energy:                                            -78.8205627219 a.u.
  Dip. moment [a.u.]:                  [   0.000000,    0.000000,   -4.330813]
  Total dipole [Debye]:                                              11.007832
  <r^2> [a.u.]:                        [  56.259216,   18.809607,   94.331838]
  Total <r^2> [a.u.]:                                               169.400661

  Density matrix analysis:
  ------------------------
  NOs
    Occupation of frontier NOs:
       0.0447   1.9365
    Number of electrons: 18.000000
    Number of unpaired electrons: n_u =  0.47321, n_u,nl =  0.05257
    NO participation ratio (PR_NO): 16.362090
  
  
  Mulliken Population Analysis
  Atom      Charge (e)              h+              e-           Del q
  --------------------------------------------------------------------
   1 C       -0.388109        0.091032       -0.127174       -0.036142
   2 C       -0.388109        0.091032       -0.127174       -0.036142
   3 H        0.136288        0.014891       -0.015566       -0.000675
   4 H        0.136288        0.014891       -0.015566       -0.000675
   5 H        0.027740        0.018697       -0.011490        0.007207
   6 H        0.027740        0.018697       -0.011490        0.007207
   7 H       -0.551837        0.074026       -0.014804        0.059221
  --------------------------------------------------------------------
  Sum:       -1.000000        0.323265       -0.323265        0.000000
  
  Multipole moment analysis of the density matrix
    Molecular charge:                      -1.000000
    Number of electrons:                   18.000000
      Center of electronic charge [Ang]: [ -0.000000,  -0.000000,   0.127320]
    Total nuclear charge:                  17.000000
      Center of nuclear charge [Ang]:    [ -0.000000,   0.000000,  -0.000000]
    Dipole moment [D]:                     11.007829
      Cartesian components [D]:          [  0.000000,   0.000000, -11.007829]
    RMS size of the density [Ang]:         1.618388
      Cartesian components [Ang]:        [  0.935539,   0.540947,   1.204709]
  
  Exciton analysis of the difference density matrix
    <r_h> [Ang]:                  [ -0.000000,   0.000000,   0.444510]
    <r_e> [Ang]:                  [ -0.000000,  -0.000000,   0.073830]
    |<r_e - r_h>| [Ang]:            0.370680
    Hole size [Ang]:                2.105159
      Cartesian components [Ang]: [  1.016769,   0.837209,   1.642242]
    Electron size [Ang]:            2.559492
      Cartesian components [Ang]: [  1.429567,   1.107496,   1.811295]
--------------------------------------------------------------------------------
Less singles guess vectors found than requested: 85 (found), 100 (requested).
Adjusting number of doubles guess vectors to 15.
  Starting Davidson for singlet states of irrep A2 ... 
--------------------------------------------------------------------------------
   It NVec Conv  Avg. Norm  Max. Norm  Conv. states           Remark
--------------------------------------------------------------------------------
       100    0  7.481e-02  4.028e-01  0.0808 n n n n n n n n Guess.
    1  110    0  1.086e-02  9.545e-02  0.0614 n n n n n n n n 
    2  120    0  1.161e-03  1.130e-02  0.0613 n n n n n n n n 
    3  130    2  1.808e-04  1.323e-03  0.0613 y n n n n n y n 
    4  140    7  2.474e-04  2.473e-03  0.0613 y y y y y y y n 
    5  150    9  2.629e-05  2.629e-04  0.0613 y y y y y y y y 
    6  160   10  7.491e-07  7.490e-06  0.0613 y y y y y y y y Converged.
--------------------------------------------------------------------------------
  Davidson Summary: 
 ------------------------------------------------------------
  State  0: excitation energy =   0.0613 a.u.   (converged)
  State  1: excitation energy =   0.1133 a.u.   (converged)
  State  2: excitation energy =   0.2214 a.u.   (converged)
  State  3: excitation energy =   0.2285 a.u.   (converged)
  State  4: excitation energy =   0.2727 a.u.   (converged)
  State  5: excitation energy =   0.2950 a.u.   (converged)
  State  6: excitation energy =   0.3188 a.u.   (converged)
  State  7: excitation energy =   0.3397 a.u.   (converged)
  State  8: excitation energy =   0.3475 a.u.   (converged)
  State  9: excitation energy =   0.3535 a.u.   (converged)
 ------------------------------------------------------------


--------------------------------------------------------------------------------
                   State-averaged natural transition orbitals
--------------------------------------------------------------------------------
--------------------------------------------------------------------------------

--------------------------------------------------------------------------------
                             Excited State Summary
--------------------------------------------------------------------------------
--------------------------------------------------------------------------------

  Excited state 1 (singlet, A2)                                    [converged]
  ----------------------------------------------------------------------------
  Term symbol:  1 (1) A2                                    R^2 =  1.76254e-11

  Total energy:                                            -78.7592201670 a.u.
  Excitation energy:                                               1.669216 eV

  Osc. strength:                                                      0.000000
  Trans. dip. moment [a.u.]:           [   0.000000,   -0.000000,    0.000000]
  <i|r^2|0> [a.u.]:                    [  -0.000000,    0.000000,    0.000000]

  Dip. moment [a.u.]:                  [  -0.000000,    0.000000,    0.656434]
  Total dipole [Debye]:                                               1.668489
  <r^2> [a.u.]:                        [ 103.536310,   66.627590,   76.189211]
  Total <r^2> [a.u.]:                                               246.353111

  V1^2 = 0.8979, V2^2 = 0.1021

  Important amplitudes:
      occ i      occ j       vir a       vir b          v   
    ---------------------------------------------------------
     5 (A1) A               1 (A2) A                  0.6609
     5 (A1) A               2 (A2) A                 -0.1099
    ---------------------------------------------------------

  Density matrix analysis:
  ------------------------
  NOs
    Occupation of frontier NOs:
       0.9808   0.9985
    Number of electrons: 18.000000
    Number of unpaired electrons: n_u =  2.41486, n_u,nl =  2.04784
    NO participation ratio (PR_NO):  2.957789
  
  
  Mulliken Population Analysis
  Atom      Charge (e)              h+              e-           Del q
  --------------------------------------------------------------------
   1 C       -0.681844        0.275178       -0.568914       -0.293736
   2 C       -0.681844        0.275178       -0.568914       -0.293736
   3 H        0.107480        0.017277       -0.046085       -0.028808
   4 H        0.107480        0.017277       -0.046085       -0.028808
   5 H        0.056639        0.029902       -0.001003        0.028899
   6 H        0.056639        0.029902       -0.001003        0.028899
   7 H        0.035452        0.657894       -0.070604        0.587290
  --------------------------------------------------------------------
  Sum:       -1.000000        1.302608       -1.302608       -0.000000
  
  Multipole moment analysis of the density matrix
    Molecular charge:                      -1.000000
    Number of electrons:                   18.000000
      Center of electronic charge [Ang]: [  0.000000,  -0.000000,  -0.019298]
    Total nuclear charge:                  17.000000
      Center of nuclear charge [Ang]:    [ -0.000000,   0.000000,  -0.000000]
    Dipole moment [D]:                     1.668489
      Cartesian components [D]:          [ -0.000000,   0.000000,   1.668489]
    RMS size of the density [Ang]:         1.957595
      Cartesian components [Ang]:        [  1.269145,   1.018103,   1.088537]
  
  Exciton analysis of the difference density matrix
    <r_h> [Ang]:                  [ -0.000000,   0.000000,   2.065905]
    <r_e> [Ang]:                  [  0.000000,  -0.000000,   0.039864]
    |<r_e - r_h>| [Ang]:            2.026041
    Hole size [Ang]:                2.992134
      Cartesian components [Ang]: [  1.481022,   1.287152,   2.258912]
    Electron size [Ang]:            5.455467
      Cartesian components [Ang]: [  3.515229,   3.454916,   2.338555]

  Transition density matrix analysis:
  -----------------------------------
  
  CT numbers (Mulliken)
    omega =     0.8861
    <Phe> =     0.0012
  
  Exciton analysis of the transition density matrix
    Trans. dipole moment [D]:             0.000000
      Cartesian components [D]:         [  0.000000,  -0.000000,   0.000000]
    <r_h> [Ang]:                        [ -0.000000,   0.000000,   2.737751]
    <r_e> [Ang]:                        [  0.000000,  -0.000000,  -0.189503]
    |<r_e - r_h>| [Ang]:                  2.927254
    Hole size [Ang]:                      2.141224
      Cartesian components [Ang]:       [  1.106787,   1.011305,   1.528765]
    Electron size [Ang]:                  5.901088
      Cartesian components [Ang]:       [  3.878281,   3.851759,   2.223900]
    RMS electron-hole separation [Ang]:   6.926022
      Cartesian components [Ang]:       [  4.032491,   3.982101,   3.981416]
    Covariance(r_h, r_e) [Ang^2]:         0.003356
    Correlation coefficient:              0.000266
    Center-of-mass size [Ang]:            3.139044
      Cartesian components [Ang]:       [  2.016872,   1.991259,   1.349338]

  Decomposition into state-averaged NTOs
    H- 1 -> L+ 6: -0.4960 ( 49.2%)
    H- 1 -> L+ 5: -0.3655 ( 26.7%)
    H- 1 -> L+ 0: -0.2516 ( 12.7%)
                   omega =  88.6%
  ----------------------------------------------------------------------------


  Excited state 2 (singlet, A2)                                    [converged]
  ----------------------------------------------------------------------------
  Term symbol:  2 (1) A2                                    R^2 =  2.16894e-10

  Total energy:                                            -78.7072498687 a.u.
  Excitation energy:                                               3.083400 eV

  Osc. strength:                                                      0.000000
  Trans. dip. moment [a.u.]:           [  -0.000000,   -0.000000,    0.000000]
  <i|r^2|0> [a.u.]:                    [  -0.000000,   -0.000000,    0.000000]

  Dip. moment [a.u.]:                  [   0.000000,    0.000000,    0.630739]
  Total dipole [Debye]:                                               1.603180
  <r^2> [a.u.]:                        [  66.925530,   29.399307,   65.083827]
  Total <r^2> [a.u.]:                                               161.408664

  V1^2 = 0.9071, V2^2 = 0.0929

  Important amplitudes:
      occ i      occ j       vir a       vir b          v   
    ---------------------------------------------------------
     5 (A1) A               2 (A2) A                  0.6262
     5 (A1) A               3 (A2) A                 -0.2233
    ---------------------------------------------------------

  Density matrix analysis:
  ------------------------
  NOs
    Occupation of frontier NOs:
       0.9822   0.9927
    Number of electrons: 18.000000
    Number of unpaired electrons: n_u =  2.40997, n_u,nl =  2.04289
    NO participation ratio (PR_NO):  2.961058
  
  
  Mulliken Population Analysis
  Atom      Charge (e)              h+              e-           Del q
  --------------------------------------------------------------------
   1 C       -0.615251        0.323822       -0.550964       -0.227143
   2 C       -0.615251        0.323822       -0.550964       -0.227143
   3 H        0.076452        0.023823       -0.083659       -0.059835
   4 H        0.076452        0.023823       -0.083659       -0.059835
   5 H        0.013301        0.008003       -0.022442       -0.014439
   6 H        0.013301        0.008003       -0.022442       -0.014439
   7 H        0.050997        0.648257       -0.045423        0.602834
  --------------------------------------------------------------------
  Sum:       -1.000000        1.359552       -1.359552       -0.000000
  
  Multipole moment analysis of the density matrix
    Molecular charge:                      -1.000000
    Number of electrons:                   18.000000
      Center of electronic charge [Ang]: [ -0.000000,  -0.000000,  -0.018543]
    Total nuclear charge:                  17.000000
      Center of nuclear charge [Ang]:    [ -0.000000,   0.000000,  -0.000000]
    Dipole moment [D]:                     1.603179
      Cartesian components [D]:          [  0.000000,   0.000000,   1.603179]
    RMS size of the density [Ang]:         1.584523
      Cartesian components [Ang]:        [  1.020377,   0.676291,   1.006069]
  
  Exciton analysis of the difference density matrix
    <r_h> [Ang]:                  [ -0.000000,   0.000000,   1.947570]
    <r_e> [Ang]:                  [ -0.000000,  -0.000000,   0.016389]
    |<r_e - r_h>| [Ang]:            1.931181
    Hole size [Ang]:                2.777309
      Cartesian components [Ang]: [  1.357438,   1.186184,   2.112765]
    Electron size [Ang]:            3.140077
      Cartesian components [Ang]: [  2.009873,   1.894256,   1.494085]

  Transition density matrix analysis:
  -----------------------------------
  
  CT numbers (Mulliken)
    omega =     0.8841
    <Phe> =    -0.0001
  
  Exciton analysis of the transition density matrix
    Trans. dipole moment [D]:             0.000000
      Cartesian components [D]:         [ -0.000000,  -0.000000,   0.000000]
    <r_h> [Ang]:                        [ -0.000000,   0.000000,   2.734482]
    <r_e> [Ang]:                        [ -0.000000,  -0.000000,  -0.188536]
    |<r_e - r_h>| [Ang]:                  2.923017
    Hole size [Ang]:                      2.122004
      Cartesian components [Ang]:       [  1.094024,   0.999710,   1.518747]
    Electron size [Ang]:                  3.197260
      Cartesian components [Ang]:       [  2.129623,   2.062104,   1.197875]
    RMS electron-hole separation [Ang]:   4.821526
      Cartesian components [Ang]:       [  2.390038,   2.291310,   3.504958]
    Covariance(r_h, r_e) [Ang^2]:         0.011144
    Correlation coefficient:              0.001643
    Center-of-mass size [Ang]:            1.920134
      Cartesian components [Ang]:       [  1.199175,   1.146002,   0.967251]

  Decomposition into state-averaged NTOs
    H- 1 -> L+ 0:  0.5845 ( 68.3%)
    H- 1 -> L+ 6: -0.3150 ( 19.8%)
                   omega =  88.4%
  ----------------------------------------------------------------------------


  Excited state 3 (singlet, A2)                                    [converged]
  ----------------------------------------------------------------------------
  Term symbol:  3 (1) A2                                    R^2 =  1.70399e-09

  Total energy:                                            -78.5991397557 a.u.
  Excitation energy:                                               6.025225 eV

  Osc. strength:                                                      0.000000
  Trans. dip. moment [a.u.]:           [   0.000000,   -0.000000,    0.000000]
  <i|r^2|0> [a.u.]:                    [  -0.000000,    0.000000,   -0.000000]

  Dip. moment [a.u.]:                  [   0.000000,   -0.000000,    0.646780]
  Total dipole [Debye]:                                               1.643951
  <r^2> [a.u.]:                        [  70.978342,   33.768703,   66.327804]
  Total <r^2> [a.u.]:                                               171.074848

  V1^2 = 0.9007, V2^2 = 0.0993

  Important amplitudes:
      occ i      occ j       vir a       vir b          v   
    ---------------------------------------------------------
     5 (A1) A               3 (A2) A                  0.6292
     5 (A1) A               2 (A2) A                  0.2259
    ---------------------------------------------------------

  Density matrix analysis:
  ------------------------
  NOs
    Occupation of frontier NOs:
       0.9804   0.9829
    Number of electrons: 18.000000
    Number of unpaired electrons: n_u =  2.43468, n_u,nl =  2.05176
    NO participation ratio (PR_NO):  3.053640
  
  
  Mulliken Population Analysis
  Atom      Charge (e)              h+              e-           Del q
  --------------------------------------------------------------------
   1 C       -0.617036        0.309030       -0.537958       -0.228927
   2 C       -0.617036        0.309030       -0.537958       -0.228927
   3 H        0.076376        0.019337       -0.079248       -0.059911
   4 H        0.076376        0.019337       -0.079248       -0.059911
   5 H        0.015154        0.005454       -0.018039       -0.012586
   6 H        0.015154        0.005454       -0.018039       -0.012586
   7 H        0.051012        0.651022       -0.048173        0.602849
  --------------------------------------------------------------------
  Sum:       -1.000000        1.318663       -1.318663       -0.000000
  
  Multipole moment analysis of the density matrix
    Molecular charge:                      -1.000000
    Number of electrons:                   18.000000
      Center of electronic charge [Ang]: [ -0.000000,   0.000000,  -0.019015]
    Total nuclear charge:                  17.000000
      Center of nuclear charge [Ang]:    [ -0.000000,   0.000000,  -0.000000]
    Dipole moment [D]:                     1.643951
      Cartesian components [D]:          [  0.000000,  -0.000000,   1.643951]
    RMS size of the density [Ang]:         1.631280
      Cartesian components [Ang]:        [  1.050819,   0.724806,   1.015632]
  
  Exciton analysis of the difference density matrix
    <r_h> [Ang]:                  [ -0.000000,   0.000000,   2.027613]
    <r_e> [Ang]:                  [ -0.000000,   0.000000,   0.030113]
    |<r_e - r_h>| [Ang]:            1.997500
    Hole size [Ang]:                2.784136
      Cartesian components [Ang]: [  1.369157,   1.191339,   2.111287]
    Electron size [Ang]:            3.495318
      Cartesian components [Ang]: [  2.236138,   2.143822,   1.618939]

  Transition density matrix analysis:
  -----------------------------------
  
  CT numbers (Mulliken)
    omega =     0.8818
    <Phe> =    -0.0002
  
  Exciton analysis of the transition density matrix
    Trans. dipole moment [D]:             0.000000
      Cartesian components [D]:         [  0.000000,  -0.000000,   0.000000]
    <r_h> [Ang]:                        [ -0.000000,   0.000000,   2.732870]
    <r_e> [Ang]:                        [  0.000000,   0.000000,  -0.190188]
    |<r_e - r_h>| [Ang]:                  2.923058
    Hole size [Ang]:                      2.125427
      Cartesian components [Ang]:       [  1.095395,   1.001204,   1.521559]
    Electron size [Ang]:                  3.624803
      Cartesian components [Ang]:       [  2.393632,   2.356232,   1.363046]
    RMS electron-hole separation [Ang]:   5.116846
      Cartesian components [Ang]:       [  2.630995,   2.559375,   3.565050]
    Covariance(r_h, r_e) [Ang^2]:         0.009395
    Correlation coefficient:              0.001219
    Center-of-mass size [Ang]:            2.102108
      Cartesian components [Ang]:       [  1.316871,   1.280437,   1.022345]

  Decomposition into state-averaged NTOs
    H- 1 -> L+ 5:  0.5571 ( 62.1%)
    H- 1 -> L+ 6: -0.3103 ( 19.3%)
    H- 1 -> L+ 0: -0.1833 (  6.7%)
                   omega =  88.2%
  ----------------------------------------------------------------------------


  Excited state 4 (singlet, A2)                                    [converged]
  ----------------------------------------------------------------------------
  Term symbol:  4 (1) A2                                    R^2 =  9.66381e-10

  Total energy:                                            -78.5920758846 a.u.
  Excitation energy:                                               6.217443 eV

  Osc. strength:                                                      0.000000
  Trans. dip. moment [a.u.]:           [   0.000000,    0.000000,    0.000000]
  <i|r^2|0> [a.u.]:                    [  -0.000000,   -0.000000,    0.000000]

  Dip. moment [a.u.]:                  [  -0.000000,   -0.000000,   -1.095535]
  Total dipole [Debye]:                                               2.784572
  <r^2> [a.u.]:                        [ 109.703202,   34.005105,  116.298269]
  Total <r^2> [a.u.]:                                               260.006577

  V1^2 = 0.9375, V2^2 = 0.0625

  Important amplitudes:
      occ i      occ j       vir a       vir b          v   
    ---------------------------------------------------------
     1 (B2) A               4 (B1) A                 -0.6419
     1 (B2) A               6 (B1) A                 -0.2251
    ---------------------------------------------------------

  Density matrix analysis:
  ------------------------
  NOs
    Occupation of frontier NOs:
       0.9837   0.9960
    Number of electrons: 18.000000
    Number of unpaired electrons: n_u =  2.36952, n_u,nl =  2.03284
    NO participation ratio (PR_NO):  2.852624
  
  
  Mulliken Population Analysis
  Atom      Charge (e)              h+              e-           Del q
  --------------------------------------------------------------------
   1 C       -0.551873        0.571361       -0.735125       -0.163764
   2 C       -0.551873        0.571361       -0.735125       -0.163764
   3 H        0.201048        0.075785       -0.011025        0.064760
   4 H        0.201048        0.075785       -0.011025        0.064760
   5 H        0.132885        0.117608       -0.012463        0.105146
   6 H        0.132885        0.117608       -0.012463        0.105146
   7 H       -0.564121        0.041425       -0.053709       -0.012283
  --------------------------------------------------------------------
  Sum:       -1.000000        1.570933       -1.570933        0.000000
  
  Multipole moment analysis of the density matrix
    Molecular charge:                      -1.000000
    Number of electrons:                   18.000000
      Center of electronic charge [Ang]: [  0.000000,   0.000000,   0.032207]
    Total nuclear charge:                  17.000000
      Center of nuclear charge [Ang]:    [ -0.000000,   0.000000,  -0.000000]
    Dipole moment [D]:                     2.784572
      Cartesian components [D]:          [ -0.000000,  -0.000000,  -2.784572]
    RMS size of the density [Ang]:         2.010950
      Cartesian components [Ang]:        [  1.306395,   0.727339,   1.344705]
  
  Exciton analysis of the difference density matrix
    <r_h> [Ang]:                  [ -0.000000,   0.000000,  -0.104864]
    <r_e> [Ang]:                  [  0.000000,   0.000000,  -1.194684]
    |<r_e - r_h>| [Ang]:            1.089821
    Hole size [Ang]:                2.072245
      Cartesian components [Ang]: [  1.220733,   1.013901,   1.332672]
    Electron size [Ang]:            4.362222
      Cartesian components [Ang]: [  3.319173,   1.933051,   2.067702]

  Transition density matrix analysis:
  -----------------------------------
  
  CT numbers (Mulliken)
    omega =     0.9075
    <Phe> =    -0.0009
  
  Exciton analysis of the transition density matrix
    Trans. dipole moment [D]:             0.000000
      Cartesian components [D]:         [  0.000000,   0.000000,   0.000000]
    <r_h> [Ang]:                        [ -0.000000,   0.000000,  -0.193524]
    <r_e> [Ang]:                        [  0.000000,   0.000000,  -1.952298]
    |<r_e - r_h>| [Ang]:                  1.758774
    Hole size [Ang]:                      1.278121
      Cartesian components [Ang]:       [  0.763218,   0.879081,   0.527549]
    Electron size [Ang]:                  5.079523
      Cartesian components [Ang]:       [  4.057004,   2.337549,   1.969299]
    RMS electron-hole separation [Ang]:   5.520246
      Cartesian components [Ang]:       [  4.125107,   2.493370,   2.690672]
    Covariance(r_h, r_e) [Ang^2]:         0.027656
    Correlation coefficient:              0.004260
    Center-of-mass size [Ang]:            2.621567
      Cartesian components [Ang]:       [  2.065614,   1.250694,   1.020596]

  Decomposition into state-averaged NTOs
    H- 0 -> L+ 4:  0.5116 ( 52.3%)
    H- 0 -> L+ 1:  0.4339 ( 37.6%)
                   omega =  90.8%
  ----------------------------------------------------------------------------


  Excited state 5 (singlet, A2)                                    [converged]
  ----------------------------------------------------------------------------
  Term symbol:  5 (1) A2                                    R^2 =  8.64750e-10

  Total energy:                                            -78.5478681686 a.u.
  Excitation energy:                                               7.420396 eV

  Osc. strength:                                                      0.000000
  Trans. dip. moment [a.u.]:           [   0.000000,    0.000000,    0.000000]
  <i|r^2|0> [a.u.]:                    [  -0.000000,   -0.000000,   -0.000000]

  Dip. moment [a.u.]:                  [  -0.000000,   -0.000000,   -6.865234]
  Total dipole [Debye]:                                              17.449687
  <r^2> [a.u.]:                        [ 107.558488,   33.155857,  137.532429]
  Total <r^2> [a.u.]:                                               278.246774

  V1^2 = 0.9375, V2^2 = 0.0625

  Important amplitudes:
      occ i      occ j       vir a       vir b          v   
    ---------------------------------------------------------
     1 (B2) A               5 (B1) A                  0.6505
     1 (B2) A               6 (B1) A                 -0.1437
    ---------------------------------------------------------

  Density matrix analysis:
  ------------------------
  NOs
    Occupation of frontier NOs:
       0.9834   0.9975
    Number of electrons: 18.000000
    Number of unpaired electrons: n_u =  2.36363, n_u,nl =  2.03169
    NO participation ratio (PR_NO):  2.835416
  
  
  Mulliken Population Analysis
  Atom      Charge (e)              h+              e-           Del q
  --------------------------------------------------------------------
   1 C       -0.557877        0.561671       -0.731439       -0.169768
   2 C       -0.557877        0.561671       -0.731439       -0.169768
   3 H        0.192635        0.091066       -0.034719        0.056347
   4 H        0.192635        0.091066       -0.034719        0.056347
   5 H        0.130351        0.104642       -0.002031        0.102612
   6 H        0.130351        0.104642       -0.002031        0.102612
   7 H       -0.530218        0.054272       -0.032653        0.021619
  --------------------------------------------------------------------
  Sum:       -1.000000        1.569031       -1.569031        0.000000
  
  Multipole moment analysis of the density matrix
    Molecular charge:                      -1.000000
    Number of electrons:                   18.000000
      Center of electronic charge [Ang]: [  0.000000,   0.000000,   0.201829]
    Total nuclear charge:                  17.000000
      Center of nuclear charge [Ang]:    [ -0.000000,   0.000000,  -0.000000]
    Dipole moment [D]:                     17.449681
      Cartesian components [D]:          [ -0.000000,  -0.000000, -17.449681]
    RMS size of the density [Ang]:         2.070746
      Cartesian components [Ang]:        [  1.293562,   0.718199,   1.448750]
  
  Exciton analysis of the difference density matrix
    <r_h> [Ang]:                  [ -0.000000,   0.000000,  -0.051743]
    <r_e> [Ang]:                  [  0.000000,   0.000000,   0.803024]
    |<r_e - r_h>| [Ang]:            0.854768
    Hole size [Ang]:                1.992543
      Cartesian components [Ang]: [  1.192646,   0.972633,   1.265626]
    Electron size [Ang]:            4.770122
      Cartesian components [Ang]: [  3.252368,   1.872544,   2.944443]

  Transition density matrix analysis:
  -----------------------------------
  
  CT numbers (Mulliken)
    omega =     0.9076
    <Phe> =    -0.0004
  
  Exciton analysis of the transition density matrix
    Trans. dipole moment [D]:             0.000000
      Cartesian components [D]:         [  0.000000,   0.000000,   0.000000]
    <r_h> [Ang]:                        [ -0.000000,   0.000000,  -0.195606]
    <r_e> [Ang]:                        [  0.000000,   0.000000,   1.207370]
    |<r_e - r_h>| [Ang]:                  1.402976
    Hole size [Ang]:                      1.274405
      Cartesian components [Ang]:       [  0.762931,   0.879231,   0.518648]
    Electron size [Ang]:                  5.755540
      Cartesian components [Ang]:       [  3.974275,   2.270260,   3.489598]
    RMS electron-hole separation [Ang]:   6.057266
      Cartesian components [Ang]:       [  4.044097,   2.433454,   3.796584]
    Covariance(r_h, r_e) [Ang^2]:         0.014111
    Correlation coefficient:              0.001924
    Center-of-mass size [Ang]:            2.948668
      Cartesian components [Ang]:       [  2.024793,   1.217842,   1.764006]

  Decomposition into state-averaged NTOs
    H- 0 -> L+ 3: -0.6127 ( 75.1%)
    H- 0 -> L+ 4: -0.2171 (  9.4%)
    H- 0 -> L+ 1:  0.1768 (  6.3%)
                   omega =  90.8%
  ----------------------------------------------------------------------------


  Excited state 6 (singlet, A2)                                    [converged]
  ----------------------------------------------------------------------------
  Term symbol:  6 (1) A2                                    R^2 =  1.38830e-08

  Total energy:                                            -78.5255885416 a.u.
  Excitation energy:                                               8.026656 eV

  Osc. strength:                                                      0.000000
  Trans. dip. moment [a.u.]:           [  -0.000000,    0.000000,   -0.000000]
  <i|r^2|0> [a.u.]:                    [  -0.000000,    0.000000,   -0.000000]

  Dip. moment [a.u.]:                  [  -0.000000,   -0.000000,   -3.272589]
  Total dipole [Debye]:                                               8.318092
  <r^2> [a.u.]:                        [ 112.302791,   34.092659,  111.543798]
  Total <r^2> [a.u.]:                                               257.939248

  V1^2 = 0.9396, V2^2 = 0.0604

  Important amplitudes:
      occ i      occ j       vir a       vir b          v   
    ---------------------------------------------------------
     1 (B2) A               6 (B1) A                 -0.6103
     1 (B2) A               4 (B1) A                  0.2129
    ---------------------------------------------------------

  Density matrix analysis:
  ------------------------
  NOs
    Occupation of frontier NOs:
       0.9832   0.9922
    Number of electrons: 18.000000
    Number of unpaired electrons: n_u =  2.36979, n_u,nl =  2.03324
    NO participation ratio (PR_NO):  2.865686
  
  
  Mulliken Population Analysis
  Atom      Charge (e)              h+              e-           Del q
  --------------------------------------------------------------------
   1 C       -0.483643        0.565915       -0.661449       -0.095534
   2 C       -0.483643        0.565915       -0.661449       -0.095534
   3 H        0.169224        0.071698       -0.038762        0.032936
   4 H        0.169224        0.071698       -0.038762        0.032936
   5 H        0.094448        0.108073       -0.041365        0.066708
   6 H        0.094448        0.108073       -0.041365        0.066708
   7 H       -0.560058        0.037903       -0.046124       -0.008221
  --------------------------------------------------------------------
  Sum:       -1.000000        1.529276       -1.529276        0.000000
  
  Multipole moment analysis of the density matrix
    Molecular charge:                      -1.000000
    Number of electrons:                   18.000000
      Center of electronic charge [Ang]: [  0.000000,   0.000000,   0.096210]
    Total nuclear charge:                  17.000000
      Center of nuclear charge [Ang]:    [ -0.000000,   0.000000,  -0.000000]
    Dipole moment [D]:                     8.318090
      Cartesian components [D]:          [ -0.000000,  -0.000000,  -8.318090]
    RMS size of the density [Ang]:         2.000885
      Cartesian components [Ang]:        [  1.321783,   0.728275,   1.313791]
  
  Exciton analysis of the difference density matrix
    <r_h> [Ang]:                  [ -0.000000,   0.000000,  -0.105926]
    <r_e> [Ang]:                  [  0.000000,   0.000000,  -0.472105]
    |<r_e - r_h>| [Ang]:            0.366179
    Hole size [Ang]:                2.038314
      Cartesian components [Ang]: [  1.221150,   1.006356,   1.284820]
    Electron size [Ang]:            4.489490
      Cartesian components [Ang]: [  3.428330,   1.952245,   2.142618]

  Transition density matrix analysis:
  -----------------------------------
  
  CT numbers (Mulliken)
    omega =     0.9091
    <Phe> =    -0.0024
  
  Exciton analysis of the transition density matrix
    Trans. dipole moment [D]:             0.000000
      Cartesian components [D]:         [ -0.000000,   0.000000,  -0.000000]
    <r_h> [Ang]:                        [ -0.000000,   0.000000,  -0.196126]
    <r_e> [Ang]:                        [  0.000000,   0.000000,  -0.797356]
    |<r_e - r_h>| [Ang]:                  0.601229
    Hole size [Ang]:                      1.273581
      Cartesian components [Ang]:       [  0.763315,   0.877772,   0.518531]
    Electron size [Ang]:                  5.303532
      Cartesian components [Ang]:       [  4.134928,   2.329177,   2.367437]
    RMS electron-hole separation [Ang]:   5.482337
      Cartesian components [Ang]:       [  4.200973,   2.484846,   2.496674]
    Covariance(r_h, r_e) [Ang^2]:         0.027462
    Correlation coefficient:              0.004066
    Center-of-mass size [Ang]:            2.729670
      Cartesian components [Ang]:       [  2.104304,   1.246659,   1.211958]

  Decomposition into state-averaged NTOs
    H- 0 -> L+ 1:  0.4856 ( 47.2%)
    H- 0 -> L+ 4: -0.3780 ( 28.6%)
    H- 0 -> L+ 3:  0.2741 ( 15.0%)
                   omega =  90.9%
  ----------------------------------------------------------------------------


  Excited state 7 (singlet, A2)                                    [converged]
  ----------------------------------------------------------------------------
  Term symbol:  7 (1) A2                                    R^2 =  2.13702e-11

  Total energy:                                            -78.5017543047 a.u.
  Excitation energy:                                               8.675218 eV

  Osc. strength:                                                      0.000000
  Trans. dip. moment [a.u.]:           [   0.000000,    0.000000,    0.000000]
  <i|r^2|0> [a.u.]:                    [  -0.000000,   -0.000000,    0.000000]

  Dip. moment [a.u.]:                  [   0.000000,   -0.000000,   11.399752]
  Total dipole [Debye]:                                              28.975285
  <r^2> [a.u.]:                        [ 147.476630,  105.108546,   85.187734]
  Total <r^2> [a.u.]:                                               337.772909

  V1^2 = 0.0000, V2^2 = 1.0000

  Important amplitudes:
      occ i      occ j       vir a       vir b          v   
    ---------------------------------------------------------
     5 (A1) A   5 (A1) B    4 (B1) A    2 (B2) B      0.3535
     5 (A1) A               1 (A2) A                  0.0026
    ---------------------------------------------------------

  Density matrix analysis:
  ------------------------
  NOs
    Occupation of frontier NOs:
       1.0000   1.0002
    Number of electrons: 18.000000
    Number of unpaired electrons: n_u =  2.41173, n_u,nl =  2.08240
    NO participation ratio (PR_NO):  2.878888
  
  
  Mulliken Population Analysis
  Atom      Charge (e)              h+              e-           Del q
  --------------------------------------------------------------------
   1 C       -1.213422        0.176449       -1.001762       -0.825313
   2 C       -1.213422        0.176449       -1.001762       -0.825313
   3 H        0.158875        0.018636        0.003952        0.022588
   4 H        0.158875        0.018636        0.003952        0.022588
   5 H        0.026414        0.000847       -0.002173       -0.001326
   6 H        0.026414        0.000847       -0.002173       -0.001326
   7 H        1.056264        1.608118       -0.000016        1.608102
  --------------------------------------------------------------------
  Sum:       -1.000000        1.999982       -1.999982        0.000000
  
  Multipole moment analysis of the density matrix
    Molecular charge:                      -1.000000
    Number of electrons:                   18.000000
      Center of electronic charge [Ang]: [ -0.000000,   0.000000,  -0.335138]
    Total nuclear charge:                  17.000000
      Center of nuclear charge [Ang]:    [ -0.000000,   0.000000,  -0.000000]
    Dipole moment [D]:                     28.975276
      Cartesian components [D]:          [  0.000000,  -0.000000,  28.975276]
    RMS size of the density [Ang]:         2.267700
      Cartesian components [Ang]:        [  1.514699,   1.278745,   1.101345]
  
  Exciton analysis of the difference density matrix
    <r_h> [Ang]:                  [  0.000000,  -0.000000,   2.825787]
    <r_e> [Ang]:                  [ -0.000000,   0.000000,  -1.336379]
    |<r_e - r_h>| [Ang]:            4.162166
    Hole size [Ang]:                1.883014
      Cartesian components [Ang]: [  0.990932,   0.915987,   1.313303]
    Electron size [Ang]:            5.772317
      Cartesian components [Ang]: [  3.708612,   3.594750,   2.577520]

  Transition density matrix analysis:
  -----------------------------------
  
  CT numbers (Mulliken)
    omega =     0.0000
    <Phe> =     0.3071
  
  Exciton analysis of the transition density matrix
    Trans. dipole moment [D]:             0.000000
      Cartesian components [D]:         [  0.000000,   0.000000,   0.000000]
    <r_h> [Ang]:                        [ -0.000000,   0.000000,   0.477320]
    <r_e> [Ang]:                        [  0.000000,  -0.000000,  -1.195801]
    |<r_e - r_h>| [Ang]:                  1.673121
    Hole size [Ang]:                      3.929467
      Cartesian components [Ang]:       [  2.135864,   2.120495,   2.526321]
    Electron size [Ang]:                  6.082103
      Cartesian components [Ang]:       [  4.159153,   3.605533,   2.587191]
    RMS electron-hole separation [Ang]:   7.415896
      Cartesian components [Ang]:       [  4.865432,   3.994978,   3.919595]
    Covariance(r_h, r_e) [Ang^2]:         0.118255
    Correlation coefficient:              0.004948
    Center-of-mass size [Ang]:            3.628677
      Cartesian components [Ang]:       [  2.238777,   2.181334,   1.843083]

  Decomposition into state-averaged NTOs
                   omega =   0.0%
  ----------------------------------------------------------------------------


  Excited state 8 (singlet, A2)                                    [converged]
  ----------------------------------------------------------------------------
  Term symbol:  8 (1) A2                                    R^2 =  5.59502e-08

  Total energy:                                            -78.4808635330 a.u.
  Excitation energy:                                               9.243685 eV

  Osc. strength:                                                      0.000000
  Trans. dip. moment [a.u.]:           [   0.000000,   -0.000000,   -0.000000]
  <i|r^2|0> [a.u.]:                    [  -0.000000,   -0.000000,   -0.000000]

  Dip. moment [a.u.]:                  [   0.000000,   -0.000000,   -4.258257]
  Total dipole [Debye]:                                              10.823412
  <r^2> [a.u.]:                        [  69.236624,   73.057179,  106.541835]
  Total <r^2> [a.u.]:                                               248.835639

  V1^2 = 0.9271, V2^2 = 0.0729

  Important amplitudes:
      occ i      occ j       vir a       vir b          v   
    ---------------------------------------------------------
     3 (B1) A               2 (B2) A                 -0.6625
     3 (B1) A               3 (B2) A                 -0.1543
    ---------------------------------------------------------

  Density matrix analysis:
  ------------------------
  NOs
    Occupation of frontier NOs:
       0.9975   1.0218
    Number of electrons: 18.000000
    Number of unpaired electrons: n_u =  2.51153, n_u,nl =  2.08181
    NO participation ratio (PR_NO):  3.195694
  
  
  Mulliken Population Analysis
  Atom      Charge (e)              h+              e-           Del q
  --------------------------------------------------------------------
   1 C       -0.733646        0.313685       -0.659222       -0.345537
   2 C       -0.733646        0.313685       -0.659222       -0.345537
   3 H        0.296128        0.183639       -0.023799        0.159840
   4 H        0.296128        0.183639       -0.023799        0.159840
   5 H        0.215067        0.197562       -0.010235        0.187327
   6 H        0.215067        0.197562       -0.010235        0.187327
   7 H       -0.555097        0.039395       -0.042655       -0.003260
  --------------------------------------------------------------------
  Sum:       -1.000000        1.429168       -1.429168        0.000000
  
  Multipole moment analysis of the density matrix
    Molecular charge:                      -1.000000
    Number of electrons:                   18.000000
      Center of electronic charge [Ang]: [ -0.000000,   0.000000,   0.125187]
    Total nuclear charge:                  17.000000
      Center of nuclear charge [Ang]:    [ -0.000000,   0.000000,  -0.000000]
    Dipole moment [D]:                     10.823409
      Cartesian components [D]:          [  0.000000,  -0.000000, -10.823409]
    RMS size of the density [Ang]:         1.963542
      Cartesian components [Ang]:        [  1.037846,   1.066096,   1.281333]
  
  Exciton analysis of the difference density matrix
    <r_h> [Ang]:                  [ -0.000000,  -0.000000,  -0.043464]
    <r_e> [Ang]:                  [ -0.000000,   0.000000,  -0.070330]
    |<r_e - r_h>| [Ang]:            0.026865
    Hole size [Ang]:                2.132676
      Cartesian components [Ang]: [  1.327727,   0.886518,   1.414048]
    Electron size [Ang]:            4.484372
      Cartesian components [Ang]: [  2.075001,   3.378622,   2.094966]

  Transition density matrix analysis:
  -----------------------------------
  
  CT numbers (Mulliken)
    omega =     0.9122
    <Phe> =    -0.0001
  
  Exciton analysis of the transition density matrix
    Trans. dipole moment [D]:             0.000000
      Cartesian components [D]:         [  0.000000,  -0.000000,  -0.000000]
    <r_h> [Ang]:                        [  0.000000,  -0.000000,  -0.142290]
    <r_e> [Ang]:                        [ -0.000000,   0.000000,  -0.189342]
    |<r_e - r_h>| [Ang]:                  0.047053
    Hole size [Ang]:                      1.522078
      Cartesian components [Ang]:       [  1.126629,   0.413235,   0.936304]
    Electron size [Ang]:                  5.148318
      Cartesian components [Ang]:       [  2.337128,   3.972584,   2.293814]
    RMS electron-hole separation [Ang]:   5.348933
      Cartesian components [Ang]:       [  2.553421,   3.993849,   2.477962]
    Covariance(r_h, r_e) [Ang^2]:         0.106514
    Correlation coefficient:              0.013593
    Center-of-mass size [Ang]:            2.694203
      Cartesian components [Ang]:       [  1.317475,   1.997095,   1.238791]

  Decomposition into state-averaged NTOs
    H- 2 -> L+ 2: -0.6750 ( 91.1%)
                   omega =  91.2%
  ----------------------------------------------------------------------------


  Excited state 9 (singlet, A2)                                    [converged]
  ----------------------------------------------------------------------------
  Term symbol:  9 (1) A2                                    R^2 =  1.11356e-07

  Total energy:                                            -78.4731016270 a.u.
  Excitation energy:                                               9.454897 eV

  Osc. strength:                                                      0.000000
  Trans. dip. moment [a.u.]:           [  -0.000000,   -0.000000,   -0.000000]
  <i|r^2|0> [a.u.]:                    [  -0.000000,   -0.000000,    0.000000]

  Dip. moment [a.u.]:                  [  -0.000000,    0.000000,    8.520623]
  Total dipole [Debye]:                                              21.657266
  <r^2> [a.u.]:                        [ 169.615962,   93.282125,   82.232723]
  Total <r^2> [a.u.]:                                               345.130811

  V1^2 = 0.0043, V2^2 = 0.9957

  Important amplitudes:
      occ i      occ j       vir a       vir b          v   
    ---------------------------------------------------------
     5 (A1) A   5 (A1) B    6 (A1) A    1 (A2) B     -0.3469
     5 (A1) A   5 (A1) B    7 (A1) A    1 (A2) B     -0.0618
    ---------------------------------------------------------

  Density matrix analysis:
  ------------------------
  NOs
    Occupation of frontier NOs:
       0.9987   1.0012
    Number of electrons: 18.000000
    Number of unpaired electrons: n_u =  2.41131, n_u,nl =  2.07992
    NO participation ratio (PR_NO):  2.885220
  
  
  Mulliken Population Analysis
  Atom      Charge (e)              h+              e-           Del q
  --------------------------------------------------------------------
   1 C       -1.200768        0.176174       -0.988834       -0.812659
   2 C       -1.200768        0.176174       -0.988834       -0.812659
   3 H        0.154418        0.018633       -0.000502        0.018130
   4 H        0.154418        0.018633       -0.000502        0.018130
   5 H        0.019210        0.001432       -0.009961       -0.008529
   6 H        0.019210        0.001432       -0.009961       -0.008529
   7 H        1.054280        1.605952        0.000165        1.606117
  --------------------------------------------------------------------
  Sum:       -1.000000        1.998429       -1.998429       -0.000000
  
  Multipole moment analysis of the density matrix
    Molecular charge:                      -1.000000
    Number of electrons:                   18.000000
      Center of electronic charge [Ang]: [  0.000000,  -0.000000,  -0.250496]
    Total nuclear charge:                  17.000000
      Center of nuclear charge [Ang]:    [ -0.000000,   0.000000,  -0.000000]
    Dipole moment [D]:                     21.657260
      Cartesian components [D]:          [ -0.000000,   0.000000,  21.657260]
    RMS size of the density [Ang]:         2.303584
      Cartesian components [Ang]:        [  1.624420,   1.204659,   1.102977]
  
  Exciton analysis of the difference density matrix
    <r_h> [Ang]:                  [  0.000000,  -0.000000,   2.828739]
    <r_e> [Ang]:                  [  0.000000,  -0.000000,  -0.574277]
    |<r_e - r_h>| [Ang]:            3.403016
    Hole size [Ang]:                1.872338
      Cartesian components [Ang]: [  1.013681,   0.914683,   1.281194]
    Electron size [Ang]:            5.983451
      Cartesian components [Ang]: [  4.112369,   3.357388,   2.760081]

  Transition density matrix analysis:
  -----------------------------------
  
  CT numbers (Mulliken)
    omega =     0.0044
    <Phe> =     0.0004
  
  Exciton analysis of the transition density matrix
    Trans. dipole moment [D]:             0.000000
      Cartesian components [D]:         [ -0.000000,  -0.000000,  -0.000000]
    <r_h> [Ang]:                        [  0.000000,  -0.000000,   2.444487]
    <r_e> [Ang]:                        [  0.000000,  -0.000000,  -0.190848]
    |<r_e - r_h>| [Ang]:                  2.635335
    Hole size [Ang]:                      1.638365
      Cartesian components [Ang]:       [  0.729503,   0.587237,   1.344328]
    Electron size [Ang]:                  5.943682
      Cartesian components [Ang]:       [  3.905236,   3.879689,   2.241541]
    RMS electron-hole separation [Ang]:   6.703713
      Cartesian components [Ang]:       [  3.971812,   3.923595,   3.710779]
    Covariance(r_h, r_e) [Ang^2]:         0.008413
    Correlation coefficient:              0.000864
    Center-of-mass size [Ang]:            3.083360
      Cartesian components [Ang]:       [  1.986882,   1.962082,   1.307532]

  Decomposition into state-averaged NTOs
                   omega =   0.4%
  ----------------------------------------------------------------------------


  Excited state 10 (singlet, A2)                                    [converged]
  ----------------------------------------------------------------------------
  Term symbol:  10 (1) A2                                   R^2 =  7.48988e-06

  Total energy:                                            -78.4670174237 a.u.
  Excitation energy:                                               9.620457 eV

  Osc. strength:                                                      0.000000
  Trans. dip. moment [a.u.]:           [  -0.000000,   -0.000000,    0.000000]
  <i|r^2|0> [a.u.]:                    [   0.000000,    0.000000,    0.000000]

  Dip. moment [a.u.]:                  [  -0.000000,    0.000000,   -4.269047]
  Total dipole [Debye]:                                              10.850837
  <r^2> [a.u.]:                        [  58.219874,   23.077383,   94.361012]
  Total <r^2> [a.u.]:                                               175.658269

  V1^2 = 0.9527, V2^2 = 0.0473

  Important amplitudes:
      occ i      occ j       vir a       vir b          v   
    ---------------------------------------------------------
     4 (A1) A               2 (A2) A                 -0.5285
     4 (A1) A               3 (A2) A                  0.3956
    ---------------------------------------------------------

  Density matrix analysis:
  ------------------------
  NOs
    Occupation of frontier NOs:
       0.9819   1.0130
    Number of electrons: 18.000000
    Number of unpaired electrons: n_u =  2.41787, n_u,nl =  2.04519
    NO participation ratio (PR_NO):  2.997481
  
  
  Mulliken Population Analysis
  Atom      Charge (e)              h+              e-           Del q
  --------------------------------------------------------------------
   1 C       -0.521373        0.438706       -0.571970       -0.133264
   2 C       -0.521373        0.438706       -0.571970       -0.133264
   3 H        0.200335        0.072934       -0.008887        0.064047
   4 H        0.200335        0.072934       -0.008887        0.064047
   5 H        0.096650        0.075329       -0.006419        0.068910
   6 H        0.096650        0.075329       -0.006419        0.068910
   7 H       -0.551224        0.007445       -0.006832        0.000613
  --------------------------------------------------------------------
  Sum:       -1.000000        1.181384       -1.181384        0.000000
  
  Multipole moment analysis of the density matrix
    Molecular charge:                      -1.000000
    Number of electrons:                   18.000000
      Center of electronic charge [Ang]: [  0.000000,  -0.000000,   0.125505]
    Total nuclear charge:                  17.000000
      Center of nuclear charge [Ang]:    [ -0.000000,   0.000000,  -0.000000]
    Dipole moment [D]:                     10.850833
      Cartesian components [D]:          [ -0.000000,   0.000000, -10.850833]
    RMS size of the density [Ang]:         1.648329
      Cartesian components [Ang]:        [  0.951701,   0.599181,   1.205088]
  
  Exciton analysis of the difference density matrix
    <r_h> [Ang]:                  [ -0.000000,  -0.000000,  -0.152857]
    <r_e> [Ang]:                  [  0.000000,  -0.000000,  -0.180524]
    |<r_e - r_h>| [Ang]:            0.027667
    Hole size [Ang]:                1.520864
      Cartesian components [Ang]: [  1.137625,   0.590833,   0.818385]
    Electron size [Ang]:            1.946040
      Cartesian components [Ang]: [  1.326248,   1.166487,   0.816974]

  Transition density matrix analysis:
  -----------------------------------
  
  CT numbers (Mulliken)
    omega =     0.9209
    <Phe> =    -0.0150
  
  Exciton analysis of the transition density matrix
    Trans. dipole moment [D]:             0.000000
      Cartesian components [D]:         [ -0.000000,  -0.000000,   0.000000]
    <r_h> [Ang]:                        [ -0.000000,  -0.000000,  -0.161323]
    <r_e> [Ang]:                        [  0.000000,  -0.000000,  -0.198831]
    |<r_e - r_h>| [Ang]:                  0.037508
    Hole size [Ang]:                      1.293159
      Cartesian components [Ang]:       [  1.068888,   0.415661,   0.597465]
    Electron size [Ang]:                  1.998616
      Cartesian components [Ang]:       [  1.376905,   1.223091,   0.776302]
    RMS electron-hole separation [Ang]:   2.365856
      Cartesian components [Ang]:       [  1.722527,   1.291947,   0.980332]
    Covariance(r_h, r_e) [Ang^2]:         0.035428
    Correlation coefficient:              0.013708
    Center-of-mass size [Ang]:            1.197662
      Cartesian components [Ang]:       [  0.881714,   0.645818,   0.489789]

  Decomposition into state-averaged NTOs
    H- 3 -> L+ 0:  0.6730 ( 90.6%)
    H- 0 -> L+ 7: -0.0742 (  1.1%)
                   omega =  92.1%
  ----------------------------------------------------------------------------


--------------------------------------------------------------------------------
  Time of ADC calculation:  CPU 130.25 s  wall 38.34 s
================================================================================
 
 --------------------------------------------------------------
             Orbital Energies (a.u.) and Symmetries
 --------------------------------------------------------------
 
 Alpha MOs, Restricted
 -- Occupied --                  
-11.081 -11.080  -0.887  -0.629  -0.504  -0.414  -0.358  -0.224
  1 A1    1 B1    2 A1    2 B1    3 A1    4 A1    3 B1    1 B2                 
 -0.039
  5 A1                                                                         
 -- Virtual --                   
  0.110   0.131   0.133   0.135   0.147   0.160   0.212   0.214
  4 B1    2 B2    6 A1    1 A2    5 B1    7 A1    6 B1    8 A1                 
  0.245   0.270   0.281   0.282   0.332   0.374   0.410   0.438
  2 A2    9 A1    7 B1    3 B2   10 A1    3 A2    8 B1   11 A1                 
  0.484   0.493   0.583   0.654   0.795   0.887   0.978   1.013
 12 A1    9 B1   10 B1   11 B1   13 A1   14 A1    4 B2   15 A1                 
  1.023   1.041   1.080   1.098   1.148   1.178   1.212   1.269
 16 A1    4 A2   12 B1   17 A1   13 B1   14 B1   18 A1    5 B2                 
  1.436   1.440   1.444   1.504   1.759   1.771   1.849   1.873
  6 B2    5 A2   15 B1   16 B1   19 A1   17 B1   20 A1    7 B2                 
  1.902   1.941   1.998   2.076   2.090   2.120   2.175   2.194
 18 B1   21 A1    6 A2   19 B1    8 B2   22 A1    9 B2   23 A1                 
  2.322   2.423   2.568   2.602   2.688   2.735   2.952   2.975
  7 A2   20 B1    8 A2   24 A1   21 B1   22 B1   25 A1   26 A1                 
  3.411   3.497
 23 B1   24 B1                                                                 
 
 Beta MOs, Restricted
 -- Occupied --                  
-11.081 -11.080  -0.887  -0.629  -0.504  -0.414  -0.358  -0.224
  1 A1    1 B1    2 A1    2 B1    3 A1    4 A1    3 B1    1 B2                 
 -0.039
  5 A1                                                                         
 -- Virtual --                   
  0.110   0.131   0.133   0.135   0.147   0.160   0.212   0.214
  4 B1    2 B2    6 A1    1 A2    5 B1    7 A1    6 B1    8 A1                 
  0.245   0.270   0.281   0.282   0.332   0.374   0.410   0.438
  2 A2    9 A1    7 B1    3 B2   10 A1    3 A2    8 B1   11 A1                 
  0.484   0.493   0.583   0.654   0.795   0.887   0.978   1.013
 12 A1    9 B1   10 B1   11 B1   13 A1   14 A1    4 B2   15 A1                 
  1.023   1.041   1.080   1.098   1.148   1.178   1.212   1.269
 16 A1    4 A2   12 B1   17 A1   13 B1   14 B1   18 A1    5 B2                 
  1.436   1.440   1.444   1.504   1.759   1.771   1.849   1.873
  6 B2    5 A2   15 B1   16 B1   19 A1   17 B1   20 A1    7 B2                 
  1.902   1.941   1.998   2.076   2.090   2.120   2.175   2.194
 18 B1   21 A1    6 A2   19 B1    8 B2   22 A1    9 B2   23 A1                 
  2.322   2.423   2.568   2.602   2.688   2.735   2.952   2.975
  7 A2   20 B1    8 A2   24 A1   21 B1   22 B1   25 A1   26 A1                 
  3.411   3.497
 23 B1   24 B1                                                                 
 --------------------------------------------------------------
 
          Ground-State Mulliken Net Atomic Charges

     Atom                 Charge (a.u.)
  ----------------------------------------
      1 C                    -0.351967
      2 C                    -0.351967
      3 H                     0.136963
      4 H                     0.136963
      5 H                     0.020533
      6 H                     0.020533
      7 H                    -0.611059
  ----------------------------------------
  Sum of atomic charges =    -1.000000

 -----------------------------------------------------------------
                    Cartesian Multipole Moments
 -----------------------------------------------------------------
    Charge (ESU x 10^10)
                -4.8032
    Dipole Moment (Debye)
         X      -0.0000      Y       0.0000      Z     -11.5834
       Tot      11.5834
    Quadrupole Moments (Debye-Ang)
        XX     -22.8400     XY       0.0000     YY     -24.4834
        XZ       0.0000     YZ       0.0000     ZZ     -61.5437
    Octopole Moments (Debye-Ang^2)
       XXX      -0.0000    XXY       0.0000    XYY      -0.0000
       YYY      -0.0000    XXZ      -4.2056    XYZ       0.0000
       YYZ     -12.6463    XZZ      -0.0000    YZZ       0.0000
       ZZZ    -141.4990
    Hexadecapole Moments (Debye-Ang^3)
      XXXX    -200.6741   XXXY      -0.0000   XXYY     -42.8256
      XYYY      -0.0000   YYYY     -84.5849   XXXZ       0.0000
      XXYZ       0.0000   XYYZ       0.0000   YYYZ       0.0000
      XXZZ    -109.0156   XYZZ      -0.0000   YYZZ     -94.1829
      XZZZ       0.0000   YZZZ       0.0000   ZZZZ    -789.8825
 -----------------------------------------------------------------
 Total job time:  119.19s(wall), 173.45s(cpu) 
 Thu Feb 17 12:50:15 2022

        *************************************************************
        *                                                           *
        *  Thank you very much for using Q-Chem.  Have a nice day.  *
        *                                                           *
        *************************************************************


