/src/tsommerfeld/qchem/exe/qcprog.exe .cap.inp.22892.qcin.1 /src/jdavis/qchem.scratch/qchem22892/

                  Welcome to Q-Chem
     A Quantum Leap Into The Future Of Chemistry


 Q-Chem 5.4 (devel), Q-Chem, Inc., Pleasanton, CA (2021)

 E. Epifanovsky,  A. T. B. Gilbert,  Xintian Feng,  Joonho Lee,  Yuezhi Mao,  
 N. Mardirossian,  P. Pokhilko,  A. White,  M. Wormit,  M. P. Coons,  
 A. L. Dempwolff,  Zhengting Gan,  D. Hait,  P. R. Horn,  L. D. Jacobson,  
 I. Kaliman,  J. Kussmann,  A. W. Lange,  Ka Un Lao,  D. S. Levine,  Jie Liu,  
 S. C. McKenzie,  A. F. Morrison,  K. Nanda,  F. Plasser,  D. R. Rehn,  
 M. L. Vidal,  Zhi-Qiang You,  Ying Zhu,  B. Alam,  B. Albrecht,  
 A. Aldossary,  E. Alguire,  J. H. Andersen,  D. Barton,  K. Begam,  A. Behn,  
 Y. A. Bernard,  E. J. Berquist,  H. Burton,  A. Carreras,  K. Carter-Fenk,  
 R. Chakraborty,  A. D. Chien,  K. D. Closser,  V. Cofer-Shabica,  
 S. Dasgupta,  Jia Deng,  M. de Wergifosse,  M. Diedenhofen,  Hainam Do,  
 S. Ehlert,  Po-Tung Fang,  S. Fatehi,  Qingguo Feng,  T. Friedhoff,  
 J. Gayvert,  Qinghui Ge,  G. Gidofalvi,  M. Goldey,  J. Gomes,  
 C. Gonzalez-Espinoza,  S. Gulania,  A. Gunina,  M. W. D. Hanson-Heine,  
 P. H. P. Harbach,  A. W. Hauser,  M. F. Herbst,  M. Hernandez Vera,  
 M. Hodecker,  Z. C. Holden,  S. Houck,  Xunkun Huang,  Kerwin Hui,  
 B. C. Huynh,  M. Ivanov,  Hyunjun Ji,  Hanjie Jiang,  B. Kaduk,  S. Kaehler,  
 K. Khistyaev,  Jaehoon Kim,  P. Klunzinger,  Z. Koczor-Benda,  
 Joong Hoon Koh,  D. Kosenkov,  L. Koulias,  T. Kowalczyk,  C. M. Krauter,  
 K. Kue,  A. Kunitsa,  T. Kus,  A. Landau,  K. V. Lawler,  D. Lefrancois,  
 S. Lehtola,  Rain Li,  Yi-Pei Li,  Jiashu Liang,  M. Liebenthal,  
 Hung-Hsuan Lin,  You-Sheng Lin,  Fenglai Liu,  Kuan-Yu Liu,  
 M. Loipersberger,  A. Luenser,  A. Manjanath,  P. Manohar,  E. Mansoor,  
 S. F. Manzer,  Shan-Ping Mao,  A. V. Marenich,  T. Markovich,  S. Mason,  
 S. A. Maurer,  P. F. McLaughlin,  M. F. S. J. Menger,  J.-M. Mewes,  
 S. A. Mewes,  P. Morgante,  J. W. Mullinax,  K. J. Oosterbaan,  G. Paran,  
 Alexander C. Paul,  Suranjan K. Paul,  F. Pavosevic,  Zheng Pei,  S. Prager,  
 E. I. Proynov,  E. Ramos,  B. Rana,  A. E. Rask,  A. Rettig,  R. M. Richard,  
 F. Rob,  E. Rossomme,  T. Scheele,  M. Scheurer,  M. Schneider,  
 N. Sergueev,  S. M. Sharada,  W. Skomorowski,  D. W. Small,  C. J. Stein,  
 Yu-Chuan Su,  E. J. Sundstrom,  Zhen Tao,  J. Thirman,  T. Tsuchimochi,  
 N. M. Tubman,  S. P. Veccham,  O. Vydrov,  J. Wenzel,  J. Witte,  A. Yamada,  
 Kun Yao,  S. Yeganeh,  S. R. Yost,  A. Zech,  Igor Ying Zhang,  Xing Zhang,  
 Yu Zhang,  D. Zuev,  A. Aspuru-Guzik,  A. T. Bell,  N. A. Besley,  
 K. B. Bravaya,  B. R. Brooks,  D. Casanova,  Jeng-Da Chai,  S. Coriani,  
 C. J. Cramer,  A. E. DePrince, III,  R. A. DiStasio Jr.,  A. Dreuw,  
 B. D. Dunietz,  T. R. Furlani,  W. A. Goddard III,  S. Grimme,  
 S. Hammes-Schiffer,  T. Head-Gordon,  W. J. Hehre,  Chao-Ping Hsu,  
 T.-C. Jagau,  Yousung Jung,  A. Klamt,  Jing Kong,  D. S. Lambrecht,  
 WanZhen Liang,  N. J. Mayhall,  C. W. McCurdy,  J. B. Neaton,  
 C. Ochsenfeld,  J. A. Parkhill,  R. Peverati,  V. A. Rassolov,  Yihan Shao,  
 L. V. Slipchenko,  T. Stauch,  R. P. Steele,  J. E. Subotnik,  
 A. J. W. Thom,  A. Tkatchenko,  D. G. Truhlar,  T. Van Voorhis,  
 T. A. Wesolowski,  K. B. Whaley,  H. L. Woodcock III,  P. M. Zimmerman,  
 S. Faraji,  P. M. W. Gill,  M. Head-Gordon,  J. M. Herbert,  A. I. Krylov

 Additional authors for Version 5.4.1: 
 S. Kotaru,  Shaozhi Li,  Xiangyuan Li,  F. Matz,  A. Molle,  Haisheng Ren,  
 Yingli Su,  Hung-Yi Tsai,  C. Utku,  Fang Wang

 Contributors to earlier versions of Q-Chem not listed above: 
 R. D. Adamson,  B. Austin,  R. Baer,  J. Baker,  G. J. O. Beran,  
 K. Brandhorst,  S. T. Brown,  E. F. C. Byrd,  A. K. Chakraborty,  
 G. K. L. Chan,  Chun-Min Chang,  Yunqing Chen,  C.-L. Cheng,  
 Siu Hung Chien,  D. M. Chipman,  D. L. Crittenden,  H. Dachsel,  
 R. J. Doerksen,  A. D. Dutoi,  R. G. Edgar,  J. Fosso-Tande,  
 L. Fusti-Molnar,  D. Ghosh,  A. Ghysels,  A. Golubeva-Zadorozhnaya,  
 J. Gonthier,  M. S. Gordon,  S. R. Gwaltney,  G. Hawkins,  J. E. Herr,  
 A. Heyden,  S. Hirata,  E. G. Hohenstein,  G. Kedziora,  F. J. Keil,  
 C. Kelley,  Jihan Kim,  R. A. King,  R. Z. Khaliullin,  P. P. Korambath,  
 W. Kurlancheek,  A. Laurent,  A. M. Lee,  M. S. Lee,  S. V. Levchenko,  
 Ching Yeh Lin,  D. Liotard,  E. Livshits,  R. C. Lochan,  I. Lotan,  
 L. A. Martinez-Martinez,  P. E. Maslen,  N. Nair,  D. P. O'Neill,  
 D. Neuhauser,  E. Neuscamman,  C. M. Oana,  R. Olivares-Amaya,  R. Olson,  
 T. M. Perrine,  B. Peters,  P. A. Pieniazek,  A. Prociuk,  Y. M. Rhee,  
 J. Ritchie,  M. A. Rohrdanz,  E. Rosta,  N. J. Russ,  H. F. Schaefer III,  
 M. W. Schmidt,  N. E. Schultz,  S. Sharma,  N. Shenvi,  C. D. Sherrill,  
 A. C. Simmonett,  A. Sodt,  T. Stein,  D. Stuck,  K. S. Thanthiriwatte,  
 V. Vanovschi,  L. Vogt,  Tao Wang,  A. Warshel,  M. A. Watson,  
 C. F. Williams,  Q. Wu,  X. Xu,  Jun Yang,  W. Zhang,  Yan Zhao

 Please cite Q-Chem as follows:
 Y. Shao et al., Mol. Phys. 113, 184-215 (2015)
 DOI: 10.1080/00268976.2014.952696

 Q-Chem 5.4.1 for Intel X86 EM64T Linux

 Parts of Q-Chem use Armadillo 9.900.5 (Nocturnal Misbehaviour).
 http://arma.sourceforge.net/

 Q-Chem begins on Tue Mar 29 22:15:59 2022  

 Host: node01
0

     Scratch files written to /src/jdavis/qchem.scratch/qchem22892//
 Processing $rem in /src/tsommerfeld/qchem/config/preferences:
 Processing $rem in /home/jdavis/.qchemrc:

 Checking the input file for inconsistencies... 	...done.

--------------------------------------------------------------
User input:
--------------------------------------------------------------
$comment
	H_Ethylene CAP-ADC(2)-x
	Basis: C: aDZ+4p1d, H: DZ
$end

$molecule
-1 1
C         0.0000000000    0.0000000000    0.8417902907
C         0.0000000000    0.0000000000   -0.4872097093
H         0.9623488518    0.0000000000    1.3363703127
H         0.9623489048    0.0000000000   -0.9817896873
H        -0.9623488518    0.0000000000    1.3363703127
H        -0.9623489048    0.0000000000   -0.9817896873
H         0.0000000000    0.0000000000   -10.4872097093
$end

$rem
	basis gen
	method adc(2)-x
        EE_STATES [0,0,0,30]
	scf_convergence 8
	thresh 14
	adc_cap 1
	cap_type 2
	cap_x 1500
	cap_x_end 5000
	cap_x_step 500
	xc_grid 000250000974
	adc_print 3
	adc_davidson_conv 5
	adc_nguess_singles 100
	adc_nguess_doubles 50
	adc_davidson_maxsubspace 400
	adc_davidson_maxiter 40
	adc_davidson_thresh 14
	mem_total 95000
	threads 12
$end

$basis
C     1
S   9   1.00
      6.665000D+03           6.920000D-04
      1.000000D+03           5.329000D-03
      2.280000D+02           2.707700D-02
      6.471000D+01           1.017180D-01
      2.106000D+01           2.747400D-01
      7.495000D+00           4.485640D-01
      2.797000D+00           2.850740D-01
      5.215000D-01           1.520400D-02
      1.596000D-01          -3.191000D-03
S   9   1.00
      6.665000D+03          -1.460000D-04
      1.000000D+03          -1.154000D-03
      2.280000D+02          -5.725000D-03
      6.471000D+01          -2.331200D-02
      2.106000D+01          -6.395500D-02
      7.495000D+00          -1.499810D-01
      2.797000D+00          -1.272620D-01
      5.215000D-01           5.445290D-01
      1.596000D-01           5.804960D-01
S   1   1.00
      1.596000D-01           1.000000D+00
S   1   1.00
      0.0469000              1.0000000
P   4   1.00
      9.439000D+00           3.810900D-02
      2.002000D+00           2.094800D-01
      5.456000D-01           5.085570D-01
      1.517000D-01           4.688420D-01
P   1   1.00
      1.517000D-01           1.000000D+00
P   1   1.00
      0.0404100              1.0000000
P    1  1.00
     0.0269400   1.0
P    1  1.00
     0.0179600   1.0
P    1  1.00
     0.0119733   1.0
P    1  1.00
     0.0079822   1.0
D   1   1.00
      5.500000D-01           1.0000000
D   1   1.00
      0.1510000              1.0000000
D    1  1.00
     0.0755000   1.0
****
C     2
S   9   1.00
      6.665000D+03           6.920000D-04
      1.000000D+03           5.329000D-03
      2.280000D+02           2.707700D-02
      6.471000D+01           1.017180D-01
      2.106000D+01           2.747400D-01
      7.495000D+00           4.485640D-01
      2.797000D+00           2.850740D-01
      5.215000D-01           1.520400D-02
      1.596000D-01          -3.191000D-03
S   9   1.00
      6.665000D+03          -1.460000D-04
      1.000000D+03          -1.154000D-03
      2.280000D+02          -5.725000D-03
      6.471000D+01          -2.331200D-02
      2.106000D+01          -6.395500D-02
      7.495000D+00          -1.499810D-01
      2.797000D+00          -1.272620D-01
      5.215000D-01           5.445290D-01
      1.596000D-01           5.804960D-01
S   1   1.00
      1.596000D-01           1.000000D+00
S   1   1.00
      0.0469000              1.0000000
P   4   1.00
      9.439000D+00           3.810900D-02
      2.002000D+00           2.094800D-01
      5.456000D-01           5.085570D-01
      1.517000D-01           4.688420D-01
P   1   1.00
      1.517000D-01           1.000000D+00
P   1   1.00
      0.0404100              1.0000000
P    1  1.00
     0.0269400   1.0
P    1  1.00
     0.0179600   1.0
P    1  1.00
     0.0119733   1.0
P    1  1.00
     0.0079822   1.0
D   1   1.00
      5.500000D-01           1.0000000
D   1   1.00
      0.1510000              1.0000000
D    1  1.00
     0.0755000   1.0
****
H     3
S   4   1.00
      1.301000D+01           1.968500D-02
      1.962000D+00           1.379770D-01
      4.446000D-01           4.781480D-01
      1.220000D-01           5.012400D-01
S   1   1.00
      1.220000D-01           1.000000D+00
P   1   1.00
      7.270000D-01           1.0000000
****
H     4
S   4   1.00
      1.301000D+01           1.968500D-02
      1.962000D+00           1.379770D-01
      4.446000D-01           4.781480D-01
      1.220000D-01           5.012400D-01
S   1   1.00
      1.220000D-01           1.000000D+00
P   1   1.00
      7.270000D-01           1.0000000
****
H     5
S   4   1.00
      1.301000D+01           1.968500D-02
      1.962000D+00           1.379770D-01
      4.446000D-01           4.781480D-01
      1.220000D-01           5.012400D-01
S   1   1.00
      1.220000D-01           1.000000D+00
P   1   1.00
      7.270000D-01           1.0000000
****
H     6
S   4   1.00
      1.301000D+01           1.968500D-02
      1.962000D+00           1.379770D-01
      4.446000D-01           4.781480D-01
      1.220000D-01           5.012400D-01
S   1   1.00
      1.220000D-01           1.000000D+00
P   1   1.00
      7.270000D-01           1.0000000
****
H     7
S    4   1.00
      1.301000D+01           1.968500D-02
      1.962000D+00           1.379770D-01
      4.446000D-01           4.781480D-01
      1.220000D-01           5.012400D-01
S    1   1.00
      1.220000D-01           1.000000D+00
S    1   1.00
      0.0297400              1.0000000
P    1   1.00
      7.270000D-01           1.0000000
P    1   1.00
      0.1410000              1.0000000
****
$end
--------------------------------------------------------------
 ----------------------------------------------------------------
             Standard Nuclear Orientation (Angstroms)
    I     Atom           X                Y                Z
 ----------------------------------------------------------------
    1      C       0.0000000000     0.0000000000     1.2918235242
    2      C       0.0000000000     0.0000000000    -0.0371764758
    3      H       0.9623488518     0.0000000000     1.7864035462
    4      H       0.9623489048     0.0000000000    -0.5317564538
    5      H      -0.9623488518     0.0000000000     1.7864035462
    6      H      -0.9623489048     0.0000000000    -0.5317564538
    7      H       0.0000000000     0.0000000000   -10.0371764758
 ----------------------------------------------------------------
 Molecular Point Group                 C2v   NOp =  4
 Largest Abelian Subgroup              C2v   NOp =  4
 Nuclear Repulsion Energy =          34.38697142 hartrees
 There are        9 alpha and        9 beta electrons
 Requested basis set is non-standard
 There are 43 shells and 105 basis functions
 Total memory of 95000 MB is distributed as follows: 
   MEM_STATIC is set to 192 MB
   QALLOC/CCMAN JOB total memory use is  94808 MB
 Warning: actual memory use might exceed 95000 MB

 Total QAlloc Memory Limit  95000 MB
 Mega-Array Size       188 MB
 MEM_STATIC part       192 MB

                       Distance Matrix (Angstroms)
             C (  1)   C (  2)   H (  3)   H (  4)   H (  5)   H (  6)
   C (  2)  1.329000
   H (  3)  1.082000  2.061931
   H (  4)  2.061931  1.082000  2.318160
   H (  5)  1.082000  2.061931  1.924698  3.013026
   H (  6)  2.061931  1.082000  3.013026  1.924698  2.318160
   H (  7) 11.329000 10.000000 11.862679  9.554011 11.862679  9.554011

 
 A cutoff of  1.0D-14 yielded    885 shell pairs
 There are      5411 function pairs (      6071 Cartesian)
 Smallest overlap matrix eigenvalue = 7.59E-06

 Scale SEOQF with 1.000000e-01/1.000000e-01/1.000000e-02

 Standard Electronic Orientation quadrupole field applied
 Nucleus-field energy     =    -0.0000000011 hartrees
 ================ Generating on-the-fly SAD Guess ================
Attempting to make child job directory: /src/jdavis/qchem.scratch/qchem22892//Frg1/
Attempting to make child job directory: /src/jdavis/qchem.scratch/qchem22892//Frg2/
Creating input file /src/jdavis/qchem.scratch/qchem22892/Frg1.input
using default PutDataFrgm: nothing
calling putenv with: QCSCRATCH=/src/jdavis/qchem.scratch/qchem22892/ 
Spawning Job For Fragment 0
Done Job For Fragment 0
calling putenv with: QCSCRATCH=/src/jdavis/qchem.scratch 
calling putenv with: QCTHREADS=1 
Creating input file /src/jdavis/qchem.scratch/qchem22892/Frg2.input
using default PutDataFrgm: nothing
calling putenv with: QCSCRATCH=/src/jdavis/qchem.scratch/qchem22892/ 
Spawning Job For Fragment 1
Done Job For Fragment 1
calling putenv with: QCSCRATCH=/src/jdavis/qchem.scratch 
calling putenv with: QCTHREADS=1 
 Time for running child jobs:  CPU 2.16 s  wall 55.01 s
 ============= Method Specific SAD Guess Constructed =============
 Guess from on-the-fly superposition of atomic densities
 Warning: Energy on first SCF cycle will be non-variational
 A restricted Hartree-Fock SCF calculation will be
 performed using Pulay DIIS extrapolation
 SCF converges when DIIS error is below 1.0E-08
 using 12 threads for integral computing
 -------------------------------------------------------
 OpenMP Integral computing Module                
 Release: version 1.0, May 2013, Q-Chem Inc. Pittsburgh 
 -------------------------------------------------------
 ---------------------------------------
  Cycle       Energy         DIIS Error
 ---------------------------------------
    1     -78.7995384072      4.71E-02
    2     -78.4505185366      4.15E-03
    3     -78.4974467897      9.99E-04
    4     -78.5018559160      3.63E-04
    5     -78.5023484084      5.87E-05
    6     -78.5023798424      2.06E-05
    7     -78.5023854563      7.19E-06
    8     -78.5023863398      2.32E-06
    9     -78.5023864783      8.59E-07
   10     -78.5023864951      2.51E-07
   11     -78.5023864967      3.68E-08
   12     -78.5023864968      8.09E-09 Convergence criterion met
 ---------------------------------------
 SCF time:  CPU 19.01 s  wall 1.59 s
 SCF   energy in the final basis set = -78.50238650
 Total energy in the final basis set = -78.50238650
================================================================================
|                                                                              |
|                                 A D C  M A N                                 |
|                                                                              |
 ------------------------------------------------------------------------------ 
|                                                                              |
| Components:                                                                  |
|                                                                              |
| - libvmm - 1.3-trunk                                                         |
|   Authors:                                                                   |
|   Evgeny Epifanovsky, Ilya Kaliman                                           |
|                                                                              |
| - libtensor - 2.5-trunk                                                      |
|   Authors:                                                                   |
|   Evgeny Epifanovsky, Michael Wormit, Dmitry Zuev, Sam Manzer,               |
|   Ilya Kaliman                                                               |
|                                                                              |
| - libwfa - 1.1-trunk                                                         |
|   Authors:                                                                   |
|   Felix Plasser, Stefanie Mewes (Baeppler), Benjamin Thomitzni,              |
|   Michael Wormit, Feng Chen, Anna I. Krylov, Pavel Pokhilko                  |
|                                                                              |
| - libadc - 1.1-trunk                                                         |
|   Authors:                                                                   |
|   Michael Wormit, Adrian L. Dempwolff, Philipp H. P. Harbach,                |
|   Caroline Krauter, Dirk Rehn, Matthias Schneider, Jan Wenzel                |
|                                                                              |
| - adcman - 2.6-trunk                                                         |
|   Authors:                                                                   |
|   Michael Wormit, Adrian L. Dempwolff, Philipp H. P. Harbach,                |
|   Caroline Krauter, Daniel Lefrancois, Jan-Michael Mewes, Dirk Rehn,         |
|   Matthias Schneider, Jan Wenzel, Andreas Dreuw                              |
|                                                                              |
| Authors of earlier versions of ADCMAN:                                       |
| Andreas Dreuw, Jan Hendrik Starcke, Dirk Rehn, Michael Wormit                |
|                                                                              |
================================================================================

  Import QC data ...  CPU 0.00 s  wall 0.00 s
 
 Alpha MOs, Restricted
 -- Occupied --                  
-11.185 -11.183  -0.990  -0.730  -0.609  -0.515  -0.463  -0.325
  1 A1    2 A1    3 A1    4 A1    1 B1    5 A1    2 B1    1 B2                 
 -0.027
  6 A1                                                                         
 -- Virtual --                   
  0.047   0.048   0.054   0.070   0.071   0.071   0.079   0.080
  3 B1    2 B2    7 A1    4 B1    3 B2    8 A1    5 B1    4 B2                 
  0.100   0.101   0.103   0.111   0.124   0.128   0.131   0.146
  6 B1    5 B2    9 A1   10 A1   11 A1    7 B1    6 B2    7 B2                 
  0.149   0.149   0.171   0.189   0.209   0.210   0.224   0.229
 12 A1    8 B1   13 A1    8 B2    9 B1   14 A1    9 B2   15 A1                 
  0.230   0.237   0.251   0.256   0.261   0.306   0.312   0.334
 10 B1   16 A1   17 A1    1 A2   10 B2   18 A1   11 B1    2 A2                 
  0.343   0.359   0.363   0.374   0.381   0.397   0.411   0.434
 11 B2   19 A1   12 B1   13 B1   20 A1   12 B2   13 B2   21 A1                 
  0.439   0.471   0.507   0.508   0.541   0.562   0.593   0.618
 22 A1   14 B1   23 A1   15 B1   24 A1   14 B2   25 A1   16 B1                 
  0.619   0.644   0.703   0.714   0.758   0.765   0.786   0.894
  3 A2   17 B1   26 A1   27 A1   15 B2    4 A2   28 A1   18 B1                 
  0.966   0.979   0.989   1.092   1.111   1.126   1.145   1.185
 29 A1   16 B2   30 A1   19 B1   17 B2   31 A1   20 B1   18 B2                 
  1.250   1.285   1.330   1.567   1.592   1.635   1.699   1.705
 32 A1   21 B1   33 A1   34 A1   22 B1   35 A1   19 B2    5 A2                 
  1.849   1.856   1.873   1.874   1.875   1.877   1.947   1.998
  6 A2   36 A1   23 B1   20 B2   37 A1   24 B1   21 B2   22 B2                 
  1.999   2.012   2.079   2.092   2.291   2.328   2.419   2.526
 38 A1   25 B1    7 A2   39 A1   26 B1   40 A1   23 B2    8 A2                 
  2.602   2.686   2.713   2.771   2.929   2.950   3.504   3.709
 41 A1   27 B1   42 A1   43 A1   28 B1   44 A1   29 B1   45 A1                 
 
 Beta MOs, Restricted
 -- Occupied --                  
-11.185 -11.183  -0.990  -0.730  -0.609  -0.515  -0.463  -0.325
  1 A1    2 A1    3 A1    4 A1    1 B1    5 A1    2 B1    1 B2                 
 -0.027
  6 A1                                                                         
 -- Virtual --                   
  0.047   0.048   0.054   0.070   0.071   0.071   0.079   0.080
  3 B1    2 B2    7 A1    4 B1    3 B2    8 A1    5 B1    4 B2                 
  0.100   0.101   0.103   0.111   0.124   0.128   0.131   0.146
  6 B1    5 B2    9 A1   10 A1   11 A1    7 B1    6 B2    7 B2                 
  0.149   0.149   0.171   0.189   0.209   0.210   0.224   0.229
 12 A1    8 B1   13 A1    8 B2    9 B1   14 A1    9 B2   15 A1                 
  0.230   0.237   0.251   0.256   0.261   0.306   0.312   0.334
 10 B1   16 A1   17 A1    1 A2   10 B2   18 A1   11 B1    2 A2                 
  0.343   0.359   0.363   0.374   0.381   0.397   0.411   0.434
 11 B2   19 A1   12 B1   13 B1   20 A1   12 B2   13 B2   21 A1                 
  0.439   0.471   0.507   0.508   0.541   0.562   0.593   0.618
 22 A1   14 B1   23 A1   15 B1   24 A1   14 B2   25 A1   16 B1                 
  0.619   0.644   0.703   0.714   0.758   0.765   0.786   0.894
  3 A2   17 B1   26 A1   27 A1   15 B2    4 A2   28 A1   18 B1                 
  0.966   0.979   0.989   1.092   1.111   1.126   1.145   1.185
 29 A1   16 B2   30 A1   19 B1   17 B2   31 A1   20 B1   18 B2                 
  1.250   1.285   1.330   1.567   1.592   1.635   1.699   1.705
 32 A1   21 B1   33 A1   34 A1   22 B1   35 A1   19 B2    5 A2                 
  1.849   1.856   1.873   1.874   1.875   1.877   1.947   1.998
  6 A2   36 A1   23 B1   20 B2   37 A1   24 B1   21 B2   22 B2                 
  1.999   2.012   2.079   2.092   2.291   2.328   2.419   2.526
 38 A1   25 B1    7 A2   39 A1   26 B1   40 A1   23 B2    8 A2                 
  2.602   2.686   2.713   2.771   2.929   2.950   3.504   3.709
 41 A1   27 B1   42 A1   43 A1   28 B1   44 A1   29 B1   45 A1                 
  Import AO data ...  CPU 0.01 s  wall 0.01 s
  Using point group: C2v
  Irreducible representations in point group: A1 A2 B1 B2
  Molecular orbitals: 
  Occupied MOs:
  Block   0:   1 ( A1) A   2 ( A1) A   3 ( A1) A   4 ( A1) A   5 ( A1) A
                  -11.18      -11.18       -0.99     -0.7299     -0.5152
               6 ( A1) A
                -0.02667
  Block   1:   1 ( B1) A   2 ( B1) A
                 -0.6086     -0.4632
  Block   2:   1 ( B2) A
                 -0.3252
  Block   3:   1 ( A1) B   2 ( A1) B   3 ( A1) B   4 ( A1) B   5 ( A1) B
                  -11.18      -11.18       -0.99     -0.7299     -0.5152
               6 ( A1) B
                -0.02667
  Block   4:   1 ( B1) B   2 ( B1) B
                 -0.6086     -0.4632
  Block   5:   1 ( B2) B
                 -0.3252
  Virtual MOs:
  Block   0:   7 ( A1) A   8 ( A1) A   9 ( A1) A  10 ( A1) A  11 ( A1) A
                 0.05391     0.07139       0.103      0.1108       0.124
              12 ( A1) A  13 ( A1) A  14 ( A1) A  15 ( A1) A  16 ( A1) A
                  0.1488      0.1714      0.2102       0.229      0.2365
              17 ( A1) A  18 ( A1) A  19 ( A1) A  20 ( A1) A
                  0.2515      0.3058      0.3587      0.3807
  Block   1:  21 ( A1) A  22 ( A1) A  23 ( A1) A  24 ( A1) A  25 ( A1) A
                  0.4345      0.4388      0.5069      0.5411      0.5927
              26 ( A1) A  27 ( A1) A  28 ( A1) A  29 ( A1) A  30 ( A1) A
                  0.7035      0.7139      0.7862      0.9655      0.9886
              31 ( A1) A  32 ( A1) A
                   1.126        1.25
  Block   2:  33 ( A1) A  34 ( A1) A  35 ( A1) A  36 ( A1) A  37 ( A1) A
                    1.33       1.567       1.635       1.856       1.875
              38 ( A1) A  39 ( A1) A  40 ( A1) A  41 ( A1) A  42 ( A1) A
                   1.999       2.092       2.328       2.602       2.713
              43 ( A1) A  44 ( A1) A  45 ( A1) A
                   2.771        2.95       3.709
  Block   3:   1 ( A2) A   2 ( A2) A   3 ( A2) A   4 ( A2) A   5 ( A2) A
                  0.2563      0.3341      0.6188      0.7647       1.705
               6 ( A2) A   7 ( A2) A   8 ( A2) A
                   1.849       2.079       2.526
  Block   4:   3 ( B1) A   4 ( B1) A   5 ( B1) A   6 ( B1) A   7 ( B1) A
                 0.04749     0.07014     0.07854      0.1001      0.1277
               8 ( B1) A   9 ( B1) A  10 ( B1) A  11 ( B1) A  12 ( B1) A
                  0.1491      0.2089      0.2298      0.3115      0.3628
              13 ( B1) A  14 ( B1) A  15 ( B1) A  16 ( B1) A
                  0.3741      0.4712      0.5077      0.6184
  Block   5:  17 ( B1) A  18 ( B1) A  19 ( B1) A  20 ( B1) A  21 ( B1) A
                   0.644       0.894       1.092       1.145       1.285
              22 ( B1) A  23 ( B1) A  24 ( B1) A  25 ( B1) A  26 ( B1) A
                   1.592       1.873       1.877       2.012       2.291
              27 ( B1) A  28 ( B1) A  29 ( B1) A
                   2.686       2.929       3.504
  Block   6:   2 ( B2) A   3 ( B2) A   4 ( B2) A   5 ( B2) A   6 ( B2) A
                 0.04802     0.07068     0.08038      0.1011      0.1308
               7 ( B2) A   8 ( B2) A   9 ( B2) A  10 ( B2) A  11 ( B2) A
                  0.1464       0.189      0.2243      0.2609      0.3429
              12 ( B2) A  13 ( B2) A
                  0.3967      0.4106
  Block   7:  14 ( B2) A  15 ( B2) A  16 ( B2) A  17 ( B2) A  18 ( B2) A
                  0.5624      0.7579      0.9787       1.111       1.185
              19 ( B2) A  20 ( B2) A  21 ( B2) A  22 ( B2) A  23 ( B2) A
                   1.699       1.874       1.947       1.998       2.419
  Block   8:   7 ( A1) B   8 ( A1) B   9 ( A1) B  10 ( A1) B  11 ( A1) B
                 0.05391     0.07139       0.103      0.1108       0.124
              12 ( A1) B  13 ( A1) B  14 ( A1) B  15 ( A1) B  16 ( A1) B
                  0.1488      0.1714      0.2102       0.229      0.2365
              17 ( A1) B  18 ( A1) B  19 ( A1) B  20 ( A1) B
                  0.2515      0.3058      0.3587      0.3807
  Block   9:  21 ( A1) B  22 ( A1) B  23 ( A1) B  24 ( A1) B  25 ( A1) B
                  0.4345      0.4388      0.5069      0.5411      0.5927
              26 ( A1) B  27 ( A1) B  28 ( A1) B  29 ( A1) B  30 ( A1) B
                  0.7035      0.7139      0.7862      0.9655      0.9886
              31 ( A1) B  32 ( A1) B
                   1.126        1.25
  Block  10:  33 ( A1) B  34 ( A1) B  35 ( A1) B  36 ( A1) B  37 ( A1) B
                    1.33       1.567       1.635       1.856       1.875
              38 ( A1) B  39 ( A1) B  40 ( A1) B  41 ( A1) B  42 ( A1) B
                   1.999       2.092       2.328       2.602       2.713
              43 ( A1) B  44 ( A1) B  45 ( A1) B
                   2.771        2.95       3.709
  Block  11:   1 ( A2) B   2 ( A2) B   3 ( A2) B   4 ( A2) B   5 ( A2) B
                  0.2563      0.3341      0.6188      0.7647       1.705
               6 ( A2) B   7 ( A2) B   8 ( A2) B
                   1.849       2.079       2.526
  Block  12:   3 ( B1) B   4 ( B1) B   5 ( B1) B   6 ( B1) B   7 ( B1) B
                 0.04749     0.07014     0.07854      0.1001      0.1277
               8 ( B1) B   9 ( B1) B  10 ( B1) B  11 ( B1) B  12 ( B1) B
                  0.1491      0.2089      0.2298      0.3115      0.3628
              13 ( B1) B  14 ( B1) B  15 ( B1) B  16 ( B1) B
                  0.3741      0.4712      0.5077      0.6184
  Block  13:  17 ( B1) B  18 ( B1) B  19 ( B1) B  20 ( B1) B  21 ( B1) B
                   0.644       0.894       1.092       1.145       1.285
              22 ( B1) B  23 ( B1) B  24 ( B1) B  25 ( B1) B  26 ( B1) B
                   1.592       1.873       1.877       2.012       2.291
              27 ( B1) B  28 ( B1) B  29 ( B1) B
                   2.686       2.929       3.504
  Block  14:   2 ( B2) B   3 ( B2) B   4 ( B2) B   5 ( B2) B   6 ( B2) B
                 0.04802     0.07068     0.08038      0.1011      0.1308
               7 ( B2) B   8 ( B2) B   9 ( B2) B  10 ( B2) B  11 ( B2) B
                  0.1464       0.189      0.2243      0.2609      0.3429
              12 ( B2) B  13 ( B2) B
                  0.3967      0.4106
  Block  15:  14 ( B2) B  15 ( B2) B  16 ( B2) B  17 ( B2) B  18 ( B2) B
                  0.5624      0.7579      0.9787       1.111       1.185
              19 ( B2) B  20 ( B2) B  21 ( B2) B  22 ( B2) B  23 ( B2) B
                   1.699       1.874       1.947       1.998       2.419
  Import MO data ...  CPU 0.05 s  wall 0.01 s
  Import HF data ...  CPU 0.72 s  wall 0.16 s
  Import 2e integrals ...  CPU 11.10 s  wall 0.92 s
  Import CAP matrix ...  CPU 46.53 s  wall 3.88 s

--------------------------------------------------------------------------------
                                   HF Summary                                   
--------------------------------------------------------------------------------
  Energy:                                                  -78.5023864968 a.u.
  Dip. moment [a.u.]:                  [  -0.000000,   -0.000000,   16.755415]
  Total dipole [Debye]:                                              42.588026
  <r^2> [a.u.]:                        [  39.086875,   28.968849,  758.635687]
  Total <r^2> [a.u.]:                                               826.691411
--------------------------------------------------------------------------------
  HF properties ...  CPU 0.46 s  wall 0.03 s
  MP(1) calculation ...  CPU 2.30 s  wall 0.38 s
  N^6 prerequesite intermediates ...  CPU 1.22 s  wall 0.15 s

--------------------------------------------------------------------------------
                                 MP(2) Summary                                  
--------------------------------------------------------------------------------
  MP energy contribution:                                   -0.3126880300 a.u.
  Total energy:                                            -78.8150745268 a.u.
  Dip. moment [a.u.]:                  [  -0.000000,    0.000000,   14.425412]
  Total dipole [Debye]:                                              36.665747
  <r^2> [a.u.]:                        [  52.765008,   42.457591,  726.138513]
  Total <r^2> [a.u.]:                                               821.361112
--------------------------------------------------------------------------------
  MP(2) calculation ...  CPU 1.17 s  wall 0.50 s
  Start ADC(2)-x ...  CPU 0.06 s  wall 0.01 s
  ADC(2) intermediates ...  CPU 0.12 s  wall 0.03 s
  Starting Davidson for singlet states of irrep B2 ... 
--------------------------------------------------------------------------------
   It NVec Conv  Avg. Norm  Max. Norm  Conv. states           Remark
--------------------------------------------------------------------------------
       150    0  4.208e-02  4.684e-01  0.0222 n n n n n n n n Guess.
    1  180    0  2.354e-02  2.498e-01 -0.0034 n n n n n n n n 
    2  210    0  1.707e-02  1.626e-01 -0.0034 n n n n n n n n 
    3  240    0  1.445e-02  1.278e-01 -0.0034 n n n n n n n n 
    4  270    0  1.023e-02  9.470e-02 -0.0034 n n n n n n n n 
    5  300    2  5.592e-03  8.326e-02 -0.0034 y y n n n n n n 
    6  330    5  3.104e-03  4.234e-02 -0.0034 y y y y n y n n 
    7  360    6  1.709e-03  2.220e-02 -0.0034 y y y y y y n n 
    8  390    8  1.051e-03  1.642e-02 -0.0034 y y y y y y y y 
    9  400    8  1.043e-03  1.646e-02 -0.0034 y y y y y y y y 
   10   60    8  4.792e-04  8.722e-03 -0.0034 y y y y y y y y Subspace collapsed.
   11   90    9  7.727e-04  1.620e-02 -0.0034 y y y y y y y y 
   12  120   11  8.730e-04  2.108e-02 -0.0034 y y y y y y y y 
   13  150   12  6.231e-04  1.176e-02 -0.0034 y y y y y y y y 
   14  180   14  3.754e-04  8.587e-03 -0.0034 y y y y y y y y 
   15  210   19  2.220e-04  4.845e-03 -0.0034 y y y y y y y y 
   16  240   19  1.330e-04  2.736e-03 -0.0034 y y y y y y y y 
   17  270   20  7.729e-05  1.527e-03 -0.0034 y y y y y y y y 
   18  300   20  4.840e-05  1.021e-03 -0.0034 y y y y y y y y 
   19  330   21  2.534e-05  5.441e-04 -0.0034 y y y y y y y y 
   20  360   23  1.164e-05  2.594e-04 -0.0034 y y y y y y y y 
   21  388   25  4.758e-06  1.101e-04 -0.0034 y y y y y y y y 
   22  400   25  4.604e-06  1.062e-04 -0.0034 y y y y y y y y 
   23   55   27  1.908e-06  4.309e-05 -0.0034 y y y y y y y y Subspace collapsed.
   24   79   28  1.187e-06  2.841e-05 -0.0034 y y y y y y y y 
   25  103   28  7.012e-07  1.720e-05 -0.0034 y y y y y y y y 
   26  127   29  4.264e-07  1.070e-05 -0.0034 y y y y y y y y 
   27  149   30  2.781e-07  6.993e-06 -0.0034 y y y y y y y y Converged.
--------------------------------------------------------------------------------
  Davidson Summary: 
 ------------------------------------------------------------
  State  0: excitation energy =  -0.0034 a.u.   (converged)
  State  1: excitation energy =   0.0023 a.u.   (converged)
  State  2: excitation energy =   0.0229 a.u.   (converged)
  State  3: excitation energy =   0.0304 a.u.   (converged)
  State  4: excitation energy =   0.0607 a.u.   (converged)
  State  5: excitation energy =   0.0699 a.u.   (converged)
  State  6: excitation energy =   0.0959 a.u.   (converged)
  State  7: excitation energy =   0.1528 a.u.   (converged)
  State  8: excitation energy =   0.1726 a.u.   (converged)
  State  9: excitation energy =   0.1764 a.u.   (converged)
  State 10: excitation energy =   0.1807 a.u.   (converged)
  State 11: excitation energy =   0.2041 a.u.   (converged)
  State 12: excitation energy =   0.2106 a.u.   (converged)
  State 13: excitation energy =   0.2532 a.u.   (converged)
  State 14: excitation energy =   0.2544 a.u.   (converged)
  State 15: excitation energy =   0.2550 a.u.   (converged)
  State 16: excitation energy =   0.2581 a.u.   (converged)
  State 17: excitation energy =   0.2646 a.u.   (converged)
  State 18: excitation energy =   0.2753 a.u.   (converged)
  State 19: excitation energy =   0.2816 a.u.   (converged)
  State 20: excitation energy =   0.2904 a.u.   (converged)
  State 21: excitation energy =   0.3038 a.u.   (converged)
  State 22: excitation energy =   0.3063 a.u.   (converged)
  State 23: excitation energy =   0.3069 a.u.   (converged)
  State 24: excitation energy =   0.3094 a.u.   (converged)
  State 25: excitation energy =   0.3116 a.u.   (converged)
  State 26: excitation energy =   0.3125 a.u.   (converged)
  State 27: excitation energy =   0.3136 a.u.   (converged)
  State 28: excitation energy =   0.3146 a.u.   (converged)
  State 29: excitation energy =   0.3181 a.u.   (converged)
 ------------------------------------------------------------

  Singlet states of irrep B2 ...  CPU 6368.84 s  wall 1061.19 s
  TDMs ...  CPU 13.92 s  wall 3.07 s
  SDMs ...  CPU 26.82 s  wall 5.53 s
  Transition properties ...  CPU 1.16 s  wall 0.23 s
  Properties ...  CPU 7.76 s  wall 1.55 s
  ISR TDMS ...  CPU 499.37 s  wall 105.60 s
  ISR transition properties ...  CPU 39.10 s  wall 6.81 s
  Sum-over-states TPA ...  CPU 0.02 s  wall 0.02 s

--------------------------------------------------------------------------------
                             Excited State Summary
--------------------------------------------------------------------------------
--------------------------------------------------------------------------------

  Excited state  1 (singlet, B2)                                   [converged]
  ----------------------------------------------------------------------------
  Term symbol:  1 (1) B2                                    R^2 =  2.04205e-15

  Total energy:                                            -78.8185153616 a.u.
  Excitation energy:                                              -0.093630 eV

  Osc. strength:                                                     -0.003831
  Trans. dip. moment [a.u.]:           [  -0.000000,   -1.292346,    0.000000]
  <i|r^2|0> [a.u.]:                    [  -0.000000,    0.000000,    0.000000]
  Two-photon absorption cross-section (SoS) [a.u.]:             117901032.998211
  Two-photon absorption matrix (SoS) [a.u.]:
                                       |     0.000000     0.000000    -0.000000 
                                         |
                                       |     0.000000     0.000000 -3838.961985 
                                         |
                                       |    -0.000000 -3838.961985     0.000004 
                                         |

  Dip. moment [a.u.]:                  [  -0.000000,    0.000000,   -2.276822]
  Total dipole [Debye]:                                               5.787105
  <r^2> [a.u.]:                        [  91.610758,  205.289248,  479.776992]
  Total <r^2> [a.u.]:                                               776.676997

  V1^2 = 0.8562, V2^2 = 0.1438

  Important amplitudes:
      occ i      occ j       vir a       vir b          v   
    ---------------------------------------------------------
     6 (A1) A               2 (B2) A                 -0.5409
     6 (A1) A               3 (B2) A                 -0.3608
     6 (A1) A   6 (A1) B    9 (A1) A    2 (B2) B      0.0794
     6 (A1) A               5 (B2) A                 -0.0721
     6 (A1) A   6 (A1) B   30 (A1) A    2 (B2) B     -0.0563
     6 (A1) A   6 (A1) B    9 (A1) A    3 (B2) B      0.0531
     6 (A1) A   6 (A1) B   30 (A1) A    3 (B2) B     -0.0376
     6 (A1) A   6 (A1) B    8 (A1) A    2 (B2) B      0.0374
     6 (A1) A   6 (A1) B    8 (A1) A    3 (B2) B      0.0250
     6 (A1) A   6 (A1) B   13 (A1) A    2 (B2) B     -0.0199
     6 (A1) A   6 (A1) B   10 (A1) A    2 (B2) B     -0.0185
     6 (A1) A   6 (A1) B    7 (A1) A    2 (B2) B      0.0149
     6 (A1) A   6 (A1) B   13 (A1) A    3 (B2) B     -0.0133
     6 (A1) A   6 (A1) B   10 (A1) A    3 (B2) B     -0.0124
     6 (A1) A   6 (A1) B   11 (A1) A    2 (B2) B     -0.0121
     6 (A1) A   6 (A1) B   12 (A1) A    2 (B2) B     -0.0109
     6 (A1) A   6 (A1) B    9 (A1) A    5 (B2) B      0.0106
     6 (A1) A   6 (A1) B    7 (A1) A    3 (B2) B      0.0100
     6 (A1) A   6 (A1) B   11 (A1) A    3 (B2) B     -0.0081
     6 (A1) A   6 (A1) B   30 (A1) A    5 (B2) B     -0.0075
     6 (A1) A   6 (A1) B   12 (A1) A    3 (B2) B     -0.0072
     6 (A1) A   6 (A1) B   14 (A1) A    2 (B2) B      0.0067
     6 (A1) A               7 (B2) A                  0.0064
     6 (A1) A   6 (A1) B   16 (A1) A    2 (B2) B      0.0056
     6 (A1) A   6 (A1) B    8 (A1) A    5 (B2) B      0.0050
     6 (A1) A               9 (B2) A                 -0.0047
     6 (A1) A   6 (A1) B   14 (A1) A    3 (B2) B      0.0045
     6 (A1) A               6 (B2) A                 -0.0043
     6 (A1) A   6 (A1) B   17 (A1) A    2 (B2) B     -0.0038
     6 (A1) A   6 (A1) B   16 (A1) A    3 (B2) B      0.0038
     6 (A1) A   6 (A1) B   20 (A1) A    2 (B2) B      0.0033
     6 (A1) A   6 (A1) B   15 (A1) A    2 (B2) B     -0.0030
     6 (A1) A   6 (A1) B   13 (A1) A    5 (B2) B     -0.0027
     6 (A1) A   6 (A1) B   17 (A1) A    3 (B2) B     -0.0025
     6 (A1) A   6 (A1) B   19 (A1) A    2 (B2) B     -0.0025
     6 (A1) A   6 (A1) B   10 (A1) A    5 (B2) B     -0.0024
     6 (A1) A   1 (B2) A    2 (B2) A    8 (B2) A      0.0023
     6 (A1) A   1 (B2) B    2 (B2) A    8 (B2) B      0.0023
     6 (A1) A   6 (A1) B   20 (A1) A    3 (B2) B      0.0022
     6 (A1) A   6 (A1) B    7 (A1) A    5 (B2) B      0.0020
    ---------------------------------------------------------
  ----------------------------------------------------------------------------


  Excited state  2 (singlet, B2)                                   [converged]
  ----------------------------------------------------------------------------
  Term symbol:  2 (1) B2                                    R^2 =  2.78956e-15

  Total energy:                                            -78.8127987687 a.u.
  Excitation energy:                                               0.061927 eV

  Osc. strength:                                                      0.029800
  Trans. dip. moment [a.u.]:           [  -0.000000,    4.431923,    0.000000]
  <i|r^2|0> [a.u.]:                    [  -0.000000,    0.000000,    0.000000]
  Two-photon absorption cross-section (SoS) [a.u.]:             31577248516.576229
  Two-photon absorption matrix (SoS) [a.u.]:
                                       |     -0.000000      0.000000      0.000001 
                                         |
                                       |      0.000000     -0.000001 -62826.396241 
                                         |
                                       |      0.000001 -62826.396241     -0.000006 
                                         |

  Dip. moment [a.u.]:                  [  -0.000000,   -0.000000,   -2.333473]
  Total dipole [Debye]:                                               5.931097
  <r^2> [a.u.]:                        [  84.848946,  185.023273,  583.550912]
  Total <r^2> [a.u.]:                                               853.423132

  V1^2 = 0.8561, V2^2 = 0.1439

  Important amplitudes:
      occ i      occ j       vir a       vir b          v   
    ---------------------------------------------------------
     6 (A1) A               3 (B2) A                 -0.5231
     6 (A1) A               2 (B2) A                  0.3567
     6 (A1) A               4 (B2) A                  0.1534
     6 (A1) A   6 (A1) B    9 (A1) A    3 (B2) B      0.0770
     6 (A1) A               5 (B2) A                 -0.0591
     6 (A1) A   6 (A1) B   30 (A1) A    3 (B2) B     -0.0545
     6 (A1) A   6 (A1) B    9 (A1) A    2 (B2) B     -0.0524
     6 (A1) A   6 (A1) B   30 (A1) A    2 (B2) B      0.0371
     6 (A1) A   6 (A1) B    8 (A1) A    3 (B2) B      0.0363
     6 (A1) A   6 (A1) B    8 (A1) A    2 (B2) B     -0.0246
     6 (A1) A   6 (A1) B    9 (A1) A    4 (B2) B     -0.0225
     6 (A1) A   6 (A1) B   13 (A1) A    3 (B2) B     -0.0193
     6 (A1) A   6 (A1) B   10 (A1) A    3 (B2) B     -0.0179
     6 (A1) A   6 (A1) B   30 (A1) A    4 (B2) B      0.0160
     6 (A1) A   6 (A1) B    7 (A1) A    3 (B2) B      0.0145
     6 (A1) A   6 (A1) B   13 (A1) A    2 (B2) B      0.0131
     6 (A1) A   6 (A1) B   10 (A1) A    2 (B2) B      0.0122
     6 (A1) A   6 (A1) B   11 (A1) A    3 (B2) B     -0.0118
     6 (A1) A   6 (A1) B    8 (A1) A    4 (B2) B     -0.0106
     6 (A1) A   6 (A1) B   12 (A1) A    3 (B2) B     -0.0105
     6 (A1) A   6 (A1) B    7 (A1) A    2 (B2) B     -0.0098
     6 (A1) A               8 (B2) A                 -0.0092
     6 (A1) A   6 (A1) B    9 (A1) A    5 (B2) B      0.0086
     6 (A1) A   6 (A1) B   11 (A1) A    2 (B2) B      0.0080
     6 (A1) A   6 (A1) B   12 (A1) A    2 (B2) B      0.0072
     6 (A1) A               7 (B2) A                  0.0067
     6 (A1) A   6 (A1) B   14 (A1) A    3 (B2) B      0.0065
     6 (A1) A   6 (A1) B   30 (A1) A    5 (B2) B     -0.0061
     6 (A1) A   6 (A1) B   13 (A1) A    4 (B2) B      0.0057
     6 (A1) A   6 (A1) B   16 (A1) A    3 (B2) B      0.0054
     6 (A1) A   6 (A1) B   10 (A1) A    4 (B2) B      0.0052
     6 (A1) A   6 (A1) B   14 (A1) A    2 (B2) B     -0.0044
     6 (A1) A   6 (A1) B    7 (A1) A    4 (B2) B     -0.0042
     6 (A1) A   6 (A1) B    8 (A1) A    5 (B2) B      0.0041
     6 (A1) A   6 (A1) B   16 (A1) A    2 (B2) B     -0.0037
     6 (A1) A   6 (A1) B   17 (A1) A    3 (B2) B     -0.0037
     6 (A1) A   6 (A1) B   11 (A1) A    4 (B2) B      0.0034
     6 (A1) A   6 (A1) B   20 (A1) A    3 (B2) B      0.0032
     6 (A1) A   6 (A1) B   12 (A1) A    4 (B2) B      0.0031
     6 (A1) A   6 (A1) B   15 (A1) A    3 (B2) B     -0.0029
    ---------------------------------------------------------
  ----------------------------------------------------------------------------


  Excited state  3 (singlet, B2)                                   [converged]
  ----------------------------------------------------------------------------
  Term symbol:  3 (1) B2                                    R^2 =  2.64451e-15

  Total energy:                                            -78.7921897180 a.u.
  Excitation energy:                                               0.622727 eV

  Osc. strength:                                                      0.031006
  Trans. dip. moment [a.u.]:           [   0.000000,    1.425590,   -0.000000]
  <i|r^2|0> [a.u.]:                    [   0.000000,    0.000000,   -0.000000]
  Two-photon absorption cross-section (SoS) [a.u.]:             95171240.804101
  Two-photon absorption matrix (SoS) [a.u.]:
                                       |     0.000000     0.000000     0.000000 
                                         |
                                       |     0.000000     0.000000 -3449.116568 
                                         |
                                       |     0.000000 -3449.116568    -0.000000 
                                         |

  Dip. moment [a.u.]:                  [  -0.000000,    0.000000,   -2.270252]
  Total dipole [Debye]:                                               5.770406
  <r^2> [a.u.]:                        [  79.736625,  169.545995,  466.916026]
  Total <r^2> [a.u.]:                                               716.198646

  V1^2 = 0.8556, V2^2 = 0.1444

  Important amplitudes:
      occ i      occ j       vir a       vir b          v   
    ---------------------------------------------------------
     6 (A1) A               4 (B2) A                  0.5646
     6 (A1) A               5 (B2) A                  0.3042
     6 (A1) A               2 (B2) A                 -0.0892
     6 (A1) A   6 (A1) B    9 (A1) A    4 (B2) B     -0.0827
     6 (A1) A               3 (B2) A                  0.0712
     6 (A1) A   6 (A1) B   30 (A1) A    4 (B2) B      0.0587
     6 (A1) A               7 (B2) A                  0.0447
     6 (A1) A   6 (A1) B    9 (A1) A    5 (B2) B     -0.0446
     6 (A1) A   6 (A1) B    8 (A1) A    4 (B2) B     -0.0389
     6 (A1) A               6 (B2) A                  0.0329
     6 (A1) A   6 (A1) B   30 (A1) A    5 (B2) B      0.0316
     6 (A1) A   6 (A1) B    8 (A1) A    5 (B2) B     -0.0211
     6 (A1) A   6 (A1) B   13 (A1) A    4 (B2) B      0.0208
     6 (A1) A   6 (A1) B   10 (A1) A    4 (B2) B      0.0193
     6 (A1) A   6 (A1) B    7 (A1) A    4 (B2) B     -0.0156
     6 (A1) A               8 (B2) A                 -0.0156
     6 (A1) A   6 (A1) B    9 (A1) A    2 (B2) B      0.0132
     6 (A1) A   6 (A1) B   11 (A1) A    4 (B2) B      0.0126
     6 (A1) A   6 (A1) B   12 (A1) A    4 (B2) B      0.0113
     6 (A1) A   6 (A1) B   13 (A1) A    5 (B2) B      0.0112
     6 (A1) A   6 (A1) B   10 (A1) A    5 (B2) B      0.0104
     6 (A1) A   6 (A1) B    9 (A1) A    3 (B2) B     -0.0103
     6 (A1) A   6 (A1) B   30 (A1) A    2 (B2) B     -0.0093
     6 (A1) A   6 (A1) B    7 (A1) A    5 (B2) B     -0.0084
     6 (A1) A   6 (A1) B   30 (A1) A    3 (B2) B      0.0074
     6 (A1) A               9 (B2) A                  0.0071
     6 (A1) A   6 (A1) B   14 (A1) A    4 (B2) B     -0.0069
     6 (A1) A   6 (A1) B   11 (A1) A    5 (B2) B      0.0068
     6 (A1) A   6 (A1) B    9 (A1) A    7 (B2) B     -0.0063
     6 (A1) A   6 (A1) B    8 (A1) A    2 (B2) B      0.0062
     6 (A1) A   6 (A1) B   12 (A1) A    5 (B2) B      0.0061
     6 (A1) A              13 (B2) A                 -0.0059
     6 (A1) A   6 (A1) B   16 (A1) A    4 (B2) B     -0.0059
     6 (A1) A   6 (A1) B    8 (A1) A    3 (B2) B     -0.0049
     6 (A1) A   6 (A1) B   30 (A1) A    7 (B2) B      0.0045
     6 (A1) A   6 (A1) B    9 (A1) A    6 (B2) B     -0.0044
     6 (A1) A              11 (B2) A                  0.0044
     6 (A1) A   6 (A1) B   17 (A1) A    4 (B2) B      0.0039
     6 (A1) A   6 (A1) B   14 (A1) A    5 (B2) B     -0.0038
     6 (A1) A   6 (A1) B   20 (A1) A    4 (B2) B     -0.0034
    ---------------------------------------------------------
  ----------------------------------------------------------------------------


  Excited state  4 (singlet, B2)                                   [converged]
  ----------------------------------------------------------------------------
  Term symbol:  4 (1) B2                                    R^2 =  3.23079e-15

  Total energy:                                            -78.7846799398 a.u.
  Excitation energy:                                               0.827079 eV

  Osc. strength:                                                      0.016392
  Trans. dip. moment [a.u.]:           [   0.000000,   -0.899423,   -0.000000]
  <i|r^2|0> [a.u.]:                    [  -0.000000,   -0.000000,    0.000000]
  Two-photon absorption cross-section (SoS) [a.u.]:              169302.426991
  Two-photon absorption matrix (SoS) [a.u.]:
                                       |    0.000000   -0.000000   -0.000000 |
                                       |   -0.000000    0.000000 -145.474408 |
                                       |   -0.000000 -145.474408    0.000000 |

  Dip. moment [a.u.]:                  [  -0.000000,    0.000000,   -2.342364]
  Total dipole [Debye]:                                               5.953698
  <r^2> [a.u.]:                        [  67.019484,  131.251549,  529.881818]
  Total <r^2> [a.u.]:                                               728.152851

  V1^2 = 0.8545, V2^2 = 0.1455

  Important amplitudes:
      occ i      occ j       vir a       vir b          v   
    ---------------------------------------------------------
     6 (A1) A               5 (B2) A                 -0.5614
     6 (A1) A               4 (B2) A                  0.2797
     6 (A1) A               3 (B2) A                  0.1346
     6 (A1) A               6 (B2) A                  0.1032
     6 (A1) A   6 (A1) B    9 (A1) A    5 (B2) B      0.0823
     6 (A1) A   6 (A1) B   30 (A1) A    5 (B2) B     -0.0584
     6 (A1) A               7 (B2) A                 -0.0499
     6 (A1) A               8 (B2) A                 -0.0410
     6 (A1) A   6 (A1) B    9 (A1) A    4 (B2) B     -0.0409
     6 (A1) A   6 (A1) B    8 (A1) A    5 (B2) B      0.0388
     6 (A1) A   6 (A1) B   30 (A1) A    4 (B2) B      0.0290
     6 (A1) A              10 (B2) A                  0.0226
     6 (A1) A   6 (A1) B   13 (A1) A    5 (B2) B     -0.0207
     6 (A1) A   6 (A1) B    9 (A1) A    3 (B2) B     -0.0198
     6 (A1) A   6 (A1) B    8 (A1) A    4 (B2) B     -0.0192
     6 (A1) A   6 (A1) B   10 (A1) A    5 (B2) B     -0.0191
     6 (A1) A               2 (B2) A                 -0.0170
     6 (A1) A   6 (A1) B    7 (A1) A    5 (B2) B      0.0155
     6 (A1) A   6 (A1) B    9 (A1) A    6 (B2) B     -0.0146
     6 (A1) A   6 (A1) B   30 (A1) A    3 (B2) B      0.0140
     6 (A1) A   6 (A1) B   11 (A1) A    5 (B2) B     -0.0126
     6 (A1) A   6 (A1) B   12 (A1) A    5 (B2) B     -0.0112
     6 (A1) A   6 (A1) B   30 (A1) A    6 (B2) B      0.0105
     6 (A1) A   6 (A1) B   13 (A1) A    4 (B2) B      0.0103
     6 (A1) A   6 (A1) B   10 (A1) A    4 (B2) B      0.0095
     6 (A1) A   6 (A1) B    8 (A1) A    3 (B2) B     -0.0093
     6 (A1) A   6 (A1) B    7 (A1) A    4 (B2) B     -0.0077
     6 (A1) A               9 (B2) A                 -0.0076
     6 (A1) A   6 (A1) B   14 (A1) A    5 (B2) B      0.0069
     6 (A1) A   6 (A1) B    8 (A1) A    6 (B2) B     -0.0069
     6 (A1) A   6 (A1) B    9 (A1) A    7 (B2) B      0.0065
     6 (A1) A              11 (B2) A                 -0.0064
     6 (A1) A   6 (A1) B   11 (A1) A    4 (B2) B      0.0062
     6 (A1) A   6 (A1) B   16 (A1) A    5 (B2) B      0.0058
     6 (A1) A              12 (B2) A                  0.0057
     6 (A1) A   6 (A1) B   12 (A1) A    4 (B2) B      0.0056
     6 (A1) A   6 (A1) B   13 (A1) A    3 (B2) B      0.0049
     6 (A1) A   6 (A1) B   30 (A1) A    7 (B2) B     -0.0048
     6 (A1) A   6 (A1) B   10 (A1) A    3 (B2) B      0.0046
     6 (A1) A   6 (A1) B    9 (A1) A    8 (B2) B      0.0046
    ---------------------------------------------------------
  ----------------------------------------------------------------------------


  Excited state  5 (singlet, B2)                                   [converged]
  ----------------------------------------------------------------------------
  Term symbol:  5 (1) B2                                    R^2 =  3.05979e-15

  Total energy:                                            -78.7543847429 a.u.
  Excitation energy:                                               1.651453 eV

  Osc. strength:                                                      0.000012
  Trans. dip. moment [a.u.]:           [  -0.000000,   -0.017141,    0.000000]
  <i|r^2|0> [a.u.]:                    [   0.000000,    0.000000,   -0.000000]
  Two-photon absorption cross-section (SoS) [a.u.]:              369970.444799
  Two-photon absorption matrix (SoS) [a.u.]:
                                       |   -0.000000    0.000000   -0.000000 |
                                       |    0.000000    0.000003  215.049542 |
                                       |   -0.000000  215.049542   -0.000000 |

  Dip. moment [a.u.]:                  [  -0.000000,    0.000000,   -2.365169]
  Total dipole [Debye]:                                               6.011662
  <r^2> [a.u.]:                        [  47.588110,   70.030967,  466.607037]
  Total <r^2> [a.u.]:                                               584.226114

  V1^2 = 0.8368, V2^2 = 0.1632

  Important amplitudes:
      occ i      occ j       vir a       vir b          v   
    ---------------------------------------------------------
     6 (A1) A               7 (B2) A                 -0.4717
     6 (A1) A               6 (B2) A                  0.2989
     6 (A1) A               8 (B2) A                 -0.2847
     6 (A1) A               5 (B2) A                  0.1017
     6 (A1) A              10 (B2) A                  0.0990
     6 (A1) A   6 (A1) B    9 (A1) A    7 (B2) B      0.0666
     6 (A1) A   6 (A1) B   30 (A1) A    7 (B2) B     -0.0477
     6 (A1) A   6 (A1) B    9 (A1) A    6 (B2) B     -0.0421
     6 (A1) A               4 (B2) A                 -0.0397
     6 (A1) A              12 (B2) A                  0.0374
     6 (A1) A   6 (A1) B    9 (A1) A    8 (B2) B      0.0360
     6 (A1) A               9 (B2) A                 -0.0316
     6 (A1) A   6 (A1) B    8 (A1) A    7 (B2) B      0.0315
     6 (A1) A   6 (A1) B   30 (A1) A    6 (B2) B      0.0302
     6 (A1) A   6 (A1) B   30 (A1) A    8 (B2) B     -0.0265
     6 (A1) A               3 (B2) A                 -0.0255
     6 (A1) A   6 (A1) B    8 (A1) A    6 (B2) B     -0.0198
     6 (A1) A              14 (B2) A                  0.0189
     6 (A1) A   6 (A1) B    8 (A1) A    8 (B2) B      0.0170
     6 (A1) A   6 (A1) B   13 (A1) A    7 (B2) B     -0.0168
     6 (A1) A   6 (A1) B    9 (A1) A    5 (B2) B     -0.0157
     6 (A1) A   6 (A1) B   10 (A1) A    7 (B2) B     -0.0155
     6 (A1) A   6 (A1) B    7 (A1) A    7 (B2) B      0.0125
     6 (A1) A              11 (B2) A                 -0.0124
     6 (A1) A              18 (B2) A                  0.0119
     6 (A1) A   6 (A1) B   30 (A1) A    5 (B2) B      0.0110
     6 (A1) A   1 (B2) B    8 (B2) A    9 (B2) B      0.0108
     6 (A1) A   6 (A1) B   13 (A1) A    6 (B2) B      0.0106
     6 (A1) A   6 (A1) B    9 (A1) A   10 (B2) B     -0.0105
     6 (A1) A   6 (A1) B   11 (A1) A    7 (B2) B     -0.0102
     6 (A1) A   6 (A1) B   10 (A1) A    6 (B2) B      0.0098
     6 (A1) A   6 (A1) B   13 (A1) A    8 (B2) B     -0.0091
     6 (A1) A   6 (A1) B   12 (A1) A    7 (B2) B     -0.0091
     6 (A1) A   1 (B2) A    8 (B2) A    9 (B2) A      0.0090
     6 (A1) A   1 (B2) B    8 (B2) A    6 (B2) B      0.0090
     6 (A1) A   6 (A1) B   10 (A1) A    8 (B2) B     -0.0083
     6 (A1) A   1 (B2) B   10 (B2) A    9 (B2) B     -0.0083
     6 (A1) A   1 (B2) A    6 (B2) A    8 (B2) A     -0.0083
     6 (A1) A   6 (A1) B   30 (A1) A   10 (B2) B      0.0080
     6 (A1) A   1 (B2) B    8 (B2) A   13 (B2) B     -0.0079
    ---------------------------------------------------------
  ----------------------------------------------------------------------------


  Excited state  6 (singlet, B2)                                   [converged]
  ----------------------------------------------------------------------------
  Term symbol:  6 (1) B2                                    R^2 =  3.08939e-15

  Total energy:                                            -78.7451383248 a.u.
  Excitation energy:                                               1.903061 eV

  Osc. strength:                                                      0.014043
  Trans. dip. moment [a.u.]:           [  -0.000000,   -0.548816,   -0.000000]
  <i|r^2|0> [a.u.]:                    [  -0.000000,   -0.000000,   -0.000000]
  Two-photon absorption cross-section (SoS) [a.u.]:             8330230.732746
  Two-photon absorption matrix (SoS) [a.u.]:
                                       |    0.000000    0.000000   -0.000000 |
                                       |    0.000000   -0.000000 1020.430714 |
                                       |   -0.000000 1020.430714    0.000000 |

  Dip. moment [a.u.]:                  [  -0.000000,    0.000000,   -2.311845]
  Total dipole [Debye]:                                               5.876125
  <r^2> [a.u.]:                        [  69.046641,  137.246259,  455.846479]
  Total <r^2> [a.u.]:                                               662.139379

  V1^2 = 0.8542, V2^2 = 0.1458

  Important amplitudes:
      occ i      occ j       vir a       vir b          v   
    ---------------------------------------------------------
     6 (A1) A               6 (B2) A                  0.5331
     6 (A1) A               7 (B2) A                  0.3648
     6 (A1) A   6 (A1) B    9 (A1) A    6 (B2) B     -0.0776
     6 (A1) A               4 (B2) A                 -0.0740
     6 (A1) A   6 (A1) B   30 (A1) A    6 (B2) B      0.0552
     6 (A1) A   6 (A1) B    9 (A1) A    7 (B2) B     -0.0532
     6 (A1) A               9 (B2) A                  0.0466
     6 (A1) A   6 (A1) B   30 (A1) A    7 (B2) B      0.0378
     6 (A1) A   6 (A1) B    8 (A1) A    6 (B2) B     -0.0365
     6 (A1) A               5 (B2) A                  0.0269
     6 (A1) A   6 (A1) B    8 (A1) A    7 (B2) B     -0.0251
     6 (A1) A               8 (B2) A                 -0.0221
     6 (A1) A              10 (B2) A                  0.0201
     6 (A1) A   6 (A1) B   13 (A1) A    6 (B2) B      0.0195
     6 (A1) A   6 (A1) B   10 (A1) A    6 (B2) B      0.0181
     6 (A1) A               3 (B2) A                 -0.0147
     6 (A1) A   6 (A1) B    7 (A1) A    6 (B2) B     -0.0146
     6 (A1) A   6 (A1) B   13 (A1) A    7 (B2) B      0.0134
     6 (A1) A   6 (A1) B   10 (A1) A    7 (B2) B      0.0124
     6 (A1) A   6 (A1) B   11 (A1) A    6 (B2) B      0.0119
     6 (A1) A   6 (A1) B    9 (A1) A    4 (B2) B      0.0113
     6 (A1) A              13 (B2) A                 -0.0110
     6 (A1) A   6 (A1) B   12 (A1) A    6 (B2) B      0.0106
     6 (A1) A   6 (A1) B    7 (A1) A    7 (B2) B     -0.0100
     6 (A1) A              11 (B2) A                  0.0095
     6 (A1) A   6 (A1) B   11 (A1) A    7 (B2) B      0.0081
     6 (A1) A   6 (A1) B   30 (A1) A    4 (B2) B     -0.0079
     6 (A1) A   6 (A1) B   12 (A1) A    7 (B2) B      0.0073
     6 (A1) A   6 (A1) B   14 (A1) A    6 (B2) B     -0.0065
     6 (A1) A   6 (A1) B    9 (A1) A    9 (B2) B     -0.0059
     6 (A1) A               2 (B2) A                  0.0055
     6 (A1) A   6 (A1) B   16 (A1) A    6 (B2) B     -0.0055
     6 (A1) A   6 (A1) B    8 (A1) A    4 (B2) B      0.0053
     6 (A1) A              17 (B2) A                  0.0048
     6 (A1) A   6 (A1) B   14 (A1) A    7 (B2) B     -0.0045
     6 (A1) A   1 (B2) B   10 (B2) A    8 (B2) B      0.0045
     6 (A1) A   6 (A1) B   30 (A1) A    9 (B2) B      0.0043
     6 (A1) A   6 (A1) B   16 (A1) A    7 (B2) B     -0.0038
     6 (A1) A   6 (A1) B   17 (A1) A    6 (B2) B      0.0037
     6 (A1) A   6 (A1) B    9 (A1) A    5 (B2) B     -0.0036
    ---------------------------------------------------------
  ----------------------------------------------------------------------------


  Excited state  7 (singlet, B2)                                   [converged]
  ----------------------------------------------------------------------------
  Term symbol:  7 (1) B2                                    R^2 =  5.94134e-15

  Total energy:                                            -78.7191834556 a.u.
  Excitation energy:                                               2.609329 eV

  Osc. strength:                                                      0.001260
  Trans. dip. moment [a.u.]:           [  -0.000000,   -0.140415,    0.000000]
  <i|r^2|0> [a.u.]:                    [   0.000000,    0.000000,    0.000000]
  Two-photon absorption cross-section (SoS) [a.u.]:              233300.138963
  Two-photon absorption matrix (SoS) [a.u.]:
                                       |   -0.000000   -0.000000    0.000000 |
                                       |   -0.000000   -0.000000  170.770364 |
                                       |    0.000000  170.770364   -0.000000 |

  Dip. moment [a.u.]:                  [  -0.000000,    0.000000,   -2.377215]
  Total dipole [Debye]:                                               6.042278
  <r^2> [a.u.]:                        [  54.047652,   90.002157,  485.736919]
  Total <r^2> [a.u.]:                                               629.786728

  V1^2 = 0.8381, V2^2 = 0.1619

  Important amplitudes:
      occ i      occ j       vir a       vir b          v   
    ---------------------------------------------------------
     6 (A1) A               8 (B2) A                  0.5295
     6 (A1) A               7 (B2) A                 -0.2556
     6 (A1) A               6 (B2) A                  0.1942
     6 (A1) A              10 (B2) A                 -0.1461
     6 (A1) A               9 (B2) A                  0.1047
     6 (A1) A   6 (A1) B    9 (A1) A    8 (B2) B     -0.0723
     6 (A1) A   6 (A1) B   30 (A1) A    8 (B2) B      0.0522
     6 (A1) A              12 (B2) A                 -0.0438
     6 (A1) A   6 (A1) B    9 (A1) A    7 (B2) B      0.0399
     6 (A1) A   6 (A1) B    8 (A1) A    8 (B2) B     -0.0341
     6 (A1) A   6 (A1) B    9 (A1) A    6 (B2) B     -0.0299
     6 (A1) A   6 (A1) B   30 (A1) A    7 (B2) B     -0.0279
     6 (A1) A              14 (B2) A                 -0.0257
     6 (A1) A   6 (A1) B   30 (A1) A    6 (B2) B      0.0209
     6 (A1) A   6 (A1) B    8 (A1) A    7 (B2) B      0.0188
     6 (A1) A   6 (A1) B   13 (A1) A    8 (B2) B      0.0182
     6 (A1) A   6 (A1) B    9 (A1) A   10 (B2) B      0.0170
     6 (A1) A   6 (A1) B   10 (A1) A    8 (B2) B      0.0168
     6 (A1) A               4 (B2) A                  0.0158
     6 (A1) A   6 (A1) B    9 (A1) A    9 (B2) B     -0.0143
     6 (A1) A   6 (A1) B    8 (A1) A    6 (B2) B     -0.0140
     6 (A1) A               5 (B2) A                  0.0136
     6 (A1) A   6 (A1) B    7 (A1) A    8 (B2) B     -0.0135
     6 (A1) A              18 (B2) A                 -0.0130
     6 (A1) A   6 (A1) B   30 (A1) A   10 (B2) B     -0.0128
     6 (A1) A   6 (A1) B   11 (A1) A    8 (B2) B      0.0111
     6 (A1) A   1 (B2) B    8 (B2) A    9 (B2) B     -0.0109
     6 (A1) A   6 (A1) B   30 (A1) A    9 (B2) B      0.0103
     6 (A1) A               3 (B2) A                 -0.0101
     6 (A1) A   6 (A1) B   13 (A1) A    7 (B2) B     -0.0100
     6 (A1) A   6 (A1) B   12 (A1) A    8 (B2) B      0.0098
     6 (A1) A   1 (B2) B    8 (B2) A    6 (B2) B     -0.0096
     6 (A1) A   6 (A1) B   10 (A1) A    7 (B2) B     -0.0093
     6 (A1) A   1 (B2) B   10 (B2) A    9 (B2) B      0.0086
     6 (A1) A   6 (A1) B    8 (A1) A   10 (B2) B      0.0081
     6 (A1) A   1 (B2) B    8 (B2) A    7 (B2) B     -0.0079
     6 (A1) A   1 (B2) B    8 (B2) A    4 (B2) B     -0.0078
     6 (A1) A   1 (B2) B    8 (B2) A   13 (B2) B      0.0077
     6 (A1) A   1 (B2) B   10 (B2) A    6 (B2) B      0.0077
     6 (A1) A   6 (A1) B    7 (A1) A    7 (B2) B      0.0076
    ---------------------------------------------------------
  ----------------------------------------------------------------------------


  Excited state  8 (singlet, B2)                                   [converged]
  ----------------------------------------------------------------------------
  Term symbol:  8 (1) B2                                    R^2 =  5.63652e-15

  Total energy:                                            -78.6622906908 a.u.
  Excitation energy:                                               4.157460 eV

  Osc. strength:                                                      0.000038
  Trans. dip. moment [a.u.]:           [   0.000000,    0.019224,    0.000000]
  <i|r^2|0> [a.u.]:                    [  -0.000000,   -0.000000,   -0.000000]
  Two-photon absorption cross-section (SoS) [a.u.]:               61174.029997
  Two-photon absorption matrix (SoS) [a.u.]:
                                       |   -0.000000   -0.000000    0.000000 |
                                       |   -0.000000    0.000000  -87.445719 |
                                       |    0.000000  -87.445719   -0.000000 |

  Dip. moment [a.u.]:                  [  -0.000000,   -0.000000,   -2.309521]
  Total dipole [Debye]:                                               5.870218
  <r^2> [a.u.]:                        [  57.631749,  102.607244,  442.820779]
  Total <r^2> [a.u.]:                                               603.059772

  V1^2 = 0.8513, V2^2 = 0.1487

  Important amplitudes:
      occ i      occ j       vir a       vir b          v   
    ---------------------------------------------------------
     6 (A1) A               9 (B2) A                  0.6384
     6 (A1) A               8 (B2) A                 -0.0930
     6 (A1) A   6 (A1) B    9 (A1) A    9 (B2) B     -0.0920
     6 (A1) A   6 (A1) B   30 (A1) A    9 (B2) B      0.0655
     6 (A1) A              10 (B2) A                  0.0608
     6 (A1) A               6 (B2) A                 -0.0577
     6 (A1) A   6 (A1) B    8 (A1) A    9 (B2) B     -0.0434
     6 (A1) A              13 (B2) A                 -0.0402
     6 (A1) A   6 (A1) B   13 (A1) A    9 (B2) B      0.0231
     6 (A1) A              11 (B2) A                  0.0220
     6 (A1) A   6 (A1) B   10 (A1) A    9 (B2) B      0.0214
     6 (A1) A   6 (A1) B    7 (A1) A    9 (B2) B     -0.0173
     6 (A1) A   6 (A1) B   11 (A1) A    9 (B2) B      0.0141
     6 (A1) A   6 (A1) B    9 (A1) A    8 (B2) B      0.0132
     6 (A1) A   6 (A1) B   12 (A1) A    9 (B2) B      0.0125
     6 (A1) A               7 (B2) A                 -0.0119
     6 (A1) A               5 (B2) A                 -0.0104
     6 (A1) A   6 (A1) B    9 (A1) A    6 (B2) B      0.0097
     6 (A1) A   6 (A1) B   30 (A1) A    8 (B2) B     -0.0095
     6 (A1) A              17 (B2) A                  0.0090
     6 (A1) A   6 (A1) B    9 (A1) A   10 (B2) B     -0.0087
     6 (A1) A   6 (A1) B   14 (A1) A    9 (B2) B     -0.0078
     6 (A1) A   6 (A1) B   30 (A1) A    6 (B2) B     -0.0066
     6 (A1) A   1 (B2) B   12 (B2) A    8 (B2) B      0.0066
     6 (A1) A   6 (A1) B   16 (A1) A    9 (B2) B     -0.0065
     6 (A1) A   6 (A1) B   30 (A1) A   10 (B2) B      0.0062
     6 (A1) A   6 (A1) B    8 (A1) A    8 (B2) B      0.0062
     6 (A1) A   1 (B2) B   10 (B2) A    8 (B2) B      0.0056
     6 (A1) A   1 (B2) B   17 (A1) A   17 (A1) B      0.0056
     6 (A1) A              12 (B2) A                  0.0052
     6 (A1) A   1 (B2) A    8 (B2) A   12 (B2) A     -0.0051
     6 (A1) A   6 (A1) B    8 (A1) A    6 (B2) B      0.0045
     6 (A1) A   1 (B2) B   12 (B2) A   10 (B2) B     -0.0044
     6 (A1) A   6 (A1) B   17 (A1) A    9 (B2) B      0.0044
     6 (A1) A   1 (B2) B   13 (A1) A   17 (A1) B     -0.0043
     6 (A1) A   1 (B2) A    8 (B2) A   10 (B2) A     -0.0043
     6 (A1) A   1 (B2) B   14 (B2) A    8 (B2) B      0.0043
     6 (A1) A   1 (B2) B    1 (A2) A    1 (A2) B      0.0042
     6 (A1) A   6 (A1) B    9 (A1) A   13 (B2) B      0.0041
     6 (A1) A   6 (A1) B    8 (A1) A   10 (B2) B     -0.0041
    ---------------------------------------------------------
  ----------------------------------------------------------------------------


  Excited state  9 (singlet, B2)                                   [converged]
  ----------------------------------------------------------------------------
  Term symbol:  9 (1) B2                                    R^2 =  9.05507e-14

  Total energy:                                            -78.6424422201 a.u.
  Excitation energy:                                               4.697564 eV

  Osc. strength:                                                      0.001244
  Trans. dip. moment [a.u.]:           [   0.000000,    0.103987,    0.000000]
  <i|r^2|0> [a.u.]:                    [  -0.000000,   -0.000000,   -0.000000]
  Two-photon absorption cross-section (SoS) [a.u.]:               21905.757793
  Two-photon absorption matrix (SoS) [a.u.]:
                                       |    0.000000    0.000000   -0.000000 |
                                       |    0.000000    0.000000  -52.328001 |
                                       |   -0.000000  -52.328001   -0.000000 |

  Dip. moment [a.u.]:                  [  -0.000000,    0.000000,   -2.628274]
  Total dipole [Debye]:                                               6.680408
  <r^2> [a.u.]:                        [  58.583583,   99.314803,  470.315760]
  Total <r^2> [a.u.]:                                               628.214146

  V1^2 = 0.6828, V2^2 = 0.3172

  Important amplitudes:
      occ i      occ j       vir a       vir b          v   
    ---------------------------------------------------------
     6 (A1) A              10 (B2) A                 -0.5419
     6 (A1) A               8 (B2) A                 -0.1999
     6 (A1) A   6 (A1) B    9 (A1) A   10 (B2) B      0.0753
     6 (A1) A              12 (B2) A                 -0.0710
     6 (A1) A   1 (B2) B    8 (B2) A    2 (B2) B     -0.0645
     6 (A1) A   6 (A1) B   30 (A1) A   10 (B2) B     -0.0541
     6 (A1) A   1 (B2) B    8 (B2) A    3 (B2) B     -0.0527
     6 (A1) A   1 (B2) B   10 (B2) A    2 (B2) B      0.0444
     6 (A1) A   1 (B2) B   10 (B2) A    3 (B2) B      0.0365
     6 (A1) A   6 (A1) B    8 (A1) A   10 (B2) B      0.0355
     6 (A1) A              14 (B2) A                 -0.0346
     6 (A1) A   6 (A1) B    9 (A1) A    8 (B2) B      0.0338
     6 (A1) A   1 (B2) B    2 (B2) A    8 (B2) B     -0.0330
     6 (A1) A   1 (B2) A    2 (B2) A    8 (B2) A      0.0315
     6 (A1) A   1 (B2) B    7 (B2) A    2 (B2) B     -0.0311
     6 (A1) A   1 (B2) B    3 (B2) A    8 (B2) B     -0.0273
     6 (A1) A   1 (B2) A    3 (B2) A    8 (B2) A      0.0255
     6 (A1) A   1 (B2) B    7 (B2) A    3 (B2) B     -0.0253
     6 (A1) A               9 (B2) A                  0.0238
     6 (A1) A   6 (A1) B   30 (A1) A    8 (B2) B     -0.0231
     6 (A1) A   1 (B2) B    2 (B2) A   10 (B2) B      0.0226
     6 (A1) A   1 (B2) B   12 (B2) A    2 (B2) B      0.0224
     6 (A1) A   1 (B2) A    2 (B2) A   10 (B2) A     -0.0219
     6 (A1) A   1 (B2) B    8 (B2) A    5 (B2) B     -0.0196
     6 (A1) A   1 (B2) B    6 (B2) A    2 (B2) B      0.0195
     6 (A1) A   6 (A1) B   13 (A1) A   10 (B2) B     -0.0189
     6 (A1) A               6 (B2) A                  0.0189
     6 (A1) A   1 (B2) B    3 (B2) A   10 (B2) B      0.0187
     6 (A1) A   1 (B2) B   12 (B2) A    3 (B2) B      0.0185
     6 (A1) A   1 (B2) A    3 (B2) A   10 (B2) A     -0.0179
     6 (A1) A   6 (A1) B   10 (A1) A   10 (B2) B     -0.0175
     6 (A1) A   1 (B2) B    2 (B2) A    7 (B2) B     -0.0159
     6 (A1) A   1 (B2) B    6 (B2) A    3 (B2) B      0.0159
     6 (A1) A   6 (A1) B    8 (A1) A    8 (B2) B      0.0158
     6 (A1) A   1 (B2) A    2 (B2) A    7 (B2) A      0.0151
     6 (A1) A   1 (B2) B    8 (B2) A    4 (B2) B     -0.0151
     6 (A1) A   1 (B2) B   14 (B2) A    2 (B2) B      0.0150
     6 (A1) A   1 (B2) B   10 (B2) A    5 (B2) B      0.0143
     6 (A1) A   6 (A1) B    7 (A1) A   10 (B2) B      0.0141
     6 (A1) A               7 (B2) A                 -0.0138
    ---------------------------------------------------------
  ----------------------------------------------------------------------------


  Excited state 10 (singlet, B2)                                   [converged]
  ----------------------------------------------------------------------------
  Term symbol:  10 (1) B2                                   R^2 =  1.18408e-13

  Total energy:                                            -78.6386950303 a.u.
  Excitation energy:                                               4.799530 eV

  Osc. strength:                                                      0.000249
  Trans. dip. moment [a.u.]:           [   0.000000,    0.046051,    0.000000]
  <i|r^2|0> [a.u.]:                    [  -0.000000,   -0.000000,   -0.000000]
  Two-photon absorption cross-section (SoS) [a.u.]:                4300.369779
  Two-photon absorption matrix (SoS) [a.u.]:
                                       |    0.000000    0.000000   -0.000000 |
                                       |    0.000000    0.000000  -23.185043 |
                                       |   -0.000000  -23.185043   -0.000000 |

  Dip. moment [a.u.]:                  [  -0.000000,    0.000000,   -2.298122]
  Total dipole [Debye]:                                               5.841245
  <r^2> [a.u.]:                        [ 100.049927,  205.818565,  453.324869]
  Total <r^2> [a.u.]:                                               759.193361

  V1^2 = 0.1430, V2^2 = 0.8570

  Important amplitudes:
      occ i      occ j       vir a       vir b          v   
    ---------------------------------------------------------
     6 (A1) A              10 (B2) A                 -0.2552
     6 (A1) A   1 (B2) B    8 (B2) A    2 (B2) B      0.1368
     6 (A1) A   1 (B2) B    8 (B2) A    3 (B2) B      0.1188
     6 (A1) A   1 (B2) B   10 (B2) A    2 (B2) B     -0.0939
     6 (A1) A   1 (B2) B   10 (B2) A    3 (B2) B     -0.0814
     6 (A1) A               8 (B2) A                 -0.0709
     6 (A1) A   1 (B2) A    2 (B2) A    8 (B2) A     -0.0687
     6 (A1) A   1 (B2) B    2 (B2) A    8 (B2) B      0.0681
     6 (A1) A   1 (B2) B    7 (B2) A    2 (B2) B      0.0667
     6 (A1) A   1 (B2) A    3 (B2) A    8 (B2) A     -0.0597
     6 (A1) A   1 (B2) B    3 (B2) A    8 (B2) B      0.0591
     6 (A1) A   1 (B2) B    7 (B2) A    3 (B2) B      0.0572
     6 (A1) A   1 (B2) B   12 (B2) A    2 (B2) B     -0.0471
     6 (A1) A   1 (B2) A    2 (B2) A   10 (B2) A      0.0471
     6 (A1) A   1 (B2) B    2 (B2) A   10 (B2) B     -0.0468
     6 (A1) A   1 (B2) B    6 (B2) A    2 (B2) B     -0.0412
     6 (A1) A   1 (B2) A    3 (B2) A   10 (B2) A      0.0408
     6 (A1) A   1 (B2) B   12 (B2) A    3 (B2) B     -0.0408
     6 (A1) A   1 (B2) B    3 (B2) A   10 (B2) B     -0.0405
     6 (A1) A   1 (B2) B    6 (B2) A    3 (B2) B     -0.0366
     6 (A1) A   6 (A1) B    9 (A1) A   10 (B2) B      0.0358
     6 (A1) A   1 (B2) A    2 (B2) A    7 (B2) A     -0.0335
     6 (A1) A   1 (B2) B    2 (B2) A    7 (B2) B      0.0332
     6 (A1) A   1 (B2) B   14 (B2) A    2 (B2) B     -0.0314
     6 (A1) A   1 (B2) A    3 (B2) A    7 (B2) A     -0.0289
     6 (A1) A              12 (B2) A                 -0.0285
     6 (A1) A   1 (B2) B    3 (B2) A    7 (B2) B      0.0283
     6 (A1) A   1 (B2) B    9 (B2) A    2 (B2) B      0.0274
     6 (A1) A   1 (B2) B   14 (B2) A    3 (B2) B     -0.0272
     6 (A1) A   6 (A1) B   30 (A1) A   10 (B2) B     -0.0257
     6 (A1) A   1 (B2) A    2 (B2) A   12 (B2) A      0.0236
     6 (A1) A   1 (B2) B    2 (B2) A   12 (B2) B     -0.0235
     6 (A1) A   1 (B2) B    9 (B2) A    3 (B2) B      0.0229
     6 (A1) A   1 (B2) A    2 (B2) A    6 (B2) A      0.0208
     6 (A1) A   1 (B2) B    2 (B2) A    6 (B2) B     -0.0205
     6 (A1) A   1 (B2) A    3 (B2) A   12 (B2) A      0.0204
     6 (A1) A   1 (B2) B    3 (B2) A   12 (B2) B     -0.0204
     6 (A1) A   1 (B2) B    5 (B2) A    2 (B2) B      0.0200
     6 (A1) A   1 (B2) B    8 (B2) A    4 (B2) B     -0.0200
     6 (A1) A   1 (B2) A    3 (B2) A    6 (B2) A      0.0185
    ---------------------------------------------------------
  ----------------------------------------------------------------------------


  Excited state 11 (singlet, B2)                                   [converged]
  ----------------------------------------------------------------------------
  Term symbol:  11 (1) B2                                   R^2 =  3.63122e-13

  Total energy:                                            -78.6343852493 a.u.
  Excitation energy:                                               4.916805 eV

  Osc. strength:                                                      0.000002
  Trans. dip. moment [a.u.]:           [  -0.000000,   -0.003670,   -0.000000]
  <i|r^2|0> [a.u.]:                    [   0.000000,    0.000000,    0.000000]
  Two-photon absorption cross-section (SoS) [a.u.]:                 147.290610
  Two-photon absorption matrix (SoS) [a.u.]:
                                       |   -0.000000   -0.000000    0.000000 |
                                       |   -0.000000   -0.000000    4.290842 |
                                       |    0.000000    4.290842   -0.000000 |

  Dip. moment [a.u.]:                  [  -0.000000,   -0.000000,   -6.601274]
  Total dipole [Debye]:                                              16.778769
  <r^2> [a.u.]:                        [ 100.214051,  201.692159,  556.160989]
  Total <r^2> [a.u.]:                                               858.067200

  V1^2 = 0.0009, V2^2 = 0.9991

  Important amplitudes:
      occ i      occ j       vir a       vir b          v   
    ---------------------------------------------------------
     6 (A1) A   1 (B2) B    8 (B2) A    3 (B2) B      0.1454
     6 (A1) A   1 (B2) B    8 (B2) A    2 (B2) B     -0.1298
     6 (A1) A   1 (B2) B   10 (B2) A    3 (B2) B     -0.0999
     6 (A1) A   1 (B2) B   10 (B2) A    2 (B2) B      0.0892
     6 (A1) A   1 (B2) B    3 (B2) A    8 (B2) B      0.0728
     6 (A1) A   1 (B2) A    3 (B2) A    8 (B2) A     -0.0727
     6 (A1) A   1 (B2) B    7 (B2) A    3 (B2) B      0.0701
     6 (A1) A   1 (B2) B    2 (B2) A    8 (B2) B     -0.0649
     6 (A1) A   1 (B2) A    2 (B2) A    8 (B2) A      0.0649
     6 (A1) A   1 (B2) B    7 (B2) A    2 (B2) B     -0.0634
     6 (A1) A   1 (B2) B   12 (B2) A    3 (B2) B     -0.0501
     6 (A1) A   1 (B2) A    3 (B2) A   10 (B2) A      0.0500
     6 (A1) A   1 (B2) B    3 (B2) A   10 (B2) B     -0.0500
     6 (A1) A   1 (B2) B    8 (B2) A    4 (B2) B     -0.0466
     6 (A1) A   1 (B2) B   12 (B2) A    2 (B2) B      0.0448
     6 (A1) A   1 (B2) A    2 (B2) A   10 (B2) A     -0.0446
     6 (A1) A   1 (B2) B    2 (B2) A   10 (B2) B      0.0446
     6 (A1) A   1 (B2) B    6 (B2) A    3 (B2) B     -0.0445
     6 (A1) A   1 (B2) B    6 (B2) A    2 (B2) B      0.0387
[...]
-7.41522073824132377e-02 -1.39167857475219536e-01 2.68487666578209883e-01 -3.10545976973361837e-01 3.06361034856939662e-01 -3.80439635147811317e-01 -2.38403408068782852e-01 -4.36153319272470030e-01 3.10247040409048624e+00 -6.45043949223867319e+00 -1.08152143713898532e+01 6.38659663341127182e+00 1.18589153754887136e+01 -2.96373605825502153e+01 -1.92663995077475336e+00 -2.54897204986320514e+00 1.14920881134619357e+00 7.14173787636634216e+00 1.94817360790362909e-02 2.84313782997483111e-01 -3.93462595565383766e-01 -4.68562142209851817e-01 1.95791971209661475e+00 -5.29753108965537178e-01 1.00494501128523552e+01 -6.68442446367635723e-01 3.59208164508019567e-01 1.09599981310089722e+00 4.27918943722582767e-01 7.50827178535370288e-01
2.50830275731978580e-02 -1.27639780519251234e-01 3.57191415990495073e-02 -2.89672406968877638e-01 2.65694651212172062e-01 1.17384722581788836e-01 -1.71993375547066063e-01 -1.59049121633050849e-02 2.71900164991899551e+00 -4.96919814647445257e+00 1.53968244951218036e+00 4.05073112835227711e+00 -4.95187359958100370e-01 -1.92663995077475336e+00 -2.07699314676979299e+01 -5.73535568740001533e+00 -8.92532747404977300e+00 -2.31081323079263823e-01 -7.33982183470508365e-01 -1.56571211422114676e+00 5.45304381936906557e-01 -1.04861066565724204e+00 1.11811696778795278e+00 -5.15132133807779669e-01 -4.29021565274934680e-01 1.83517868477392532e+00 -8.66780273435138193e-02 -1.10923378904756587e+00 -4.96169008096998931e-01 2.75173226690599249e+00
5.77689467944075136e-02 -3.16785293640999499e-01 -1.60221037815120038e-01 -7.95034720565397479e-01 7.13802760392390434e-01 1.64017840431032569e-01 -5.00377497123866588e-01 2.27654049703494787e-01 7.59926726973379196e+00 -1.35969088367227791e+01 8.82184945652379504e+00 1.06994184299321482e+01 -5.81106852461802248e+00 -2.54897204986320514e+00 -5.73535568740001533e+00 -3.46419567819886680e+01 3.15121997116728458e+00 -3.56361274547255702e+00 2.05168214591197107e-01 5.57306818736896581e-01 -4.55182337560375572e-02 -9.20087049517890776e-01 4.08532165572646022e+00 -1.17813788632970828e+00 -3.96594983204043228e+00 -4.87879590665929008e-01 -8.21923913391306771e-01 4.73885503551212506e-01 -4.49446019713515055e-01 -1.28723961417282240e+00
2.47115765827948895e-03 8.61189124709491396e-03 1.50794131385271868e-01 4.32463723563759339e-02 -3.40972643090139971e-02 6.91121661746872951e-02 1.33033705723912821e-02 -1.70172873759870391e-01 -3.06327614568147832e-01 5.36002170640343278e-01 -5.42952941671792533e-01 -4.16093609395034980e-01 4.40115348205658785e-01 1.14920881134619357e+00 -8.92532747404977300e+00 3.15121997116728458e+00 -2.66493024562058913e+01 5.54999444036992751e-01 7.07883888500391967e-01 -3.95626784853223695e-02 3.12954867899541833e+00 7.39593827221602163e-01 6.66775793082841073e-01 8.15115263693857672e-01 -3.53321059362129486e-01 -3.30289172329279967e+00 7.55477307861912029e-01 -1.07385640532250304e+00 7.21510268734834259e-01 5.94901400463774155e-01
-1.73715167370578405e-01 -1.07198982898041306e-01 1.63840557988900803e+00 4.34175512476273617e-02 2.62878707424613750e-03 -1.08318803844523326e+00 -2.21564789814143043e-02 -3.04827694850008113e+00 1.91995279515240314e-01 -3.57382970729096458e-02 4.13183484263627498e+00 -2.27290164097573577e-01 -3.18589635463839649e+00 7.14173787636634216e+00 -2.31081323079263823e-01 -3.56361274547255702e+00 5.54999444036992751e-01 -7.76000242935427575e+00 -5.31310683320911220e-02 -1.77445434252943957e-01 -1.55397491009551414e-01 -1.02950772689894512e-01 -2.02887932910444824e-01 -2.49638201679760807e-01 -3.08104933739007869e+00 4.16211371867370616e-01 -5.23012540074726973e-01 -5.68366441328478134e-01 -4.49254293979392205e-01 -1.09001878364640836e+00
1.73247812581830843e-03 1.25681018373047029e-02 2.29550297917037009e-02 3.41503901841251623e-02 -8.84799840553237779e-03 2.31858716597320123e-02 1.04277105457586065e-02 -3.23967373478243059e-02 -7.77579956228178354e-03 -6.41397598757570409e-02 9.78378726110492453e-03 3.28023567562806054e-02 -1.77980791742121712e-03 1.94817360790362909e-02 -7.33982183470508365e-01 2.05168214591197107e-01 7.07883888500391967e-01 -5.31310683320911220e-02 -1.73080183737023532e+01 5.17718675503272885e-01 -1.68718490121691289e+00 -1.04676834351156112e+00 -3.20374023783441209e-01 4.27652153663542367e-01 9.75563948538465120e-02 5.83527844788760319e+00 -1.43863318787341887e+00 -1.77290792587648549e+00 1.24957379566338700e+00 5.19736651225263024e+00
-1.35258751283861590e-02 7.93496461961785693e-02 -8.67264518523834377e-02 1.53414776340741354e-01 -7.59567999206552658e-02 -6.80504275366798639e-02 3.76201818784713260e-02 1.43138500884405245e-01 -2.82157980990036306e-01 3.04255387755740958e-01 -1.15934658718851225e-01 -2.47132759171928562e-01 4.71735629384055083e-02 2.84313782997483111e-01 -1.56571211422114676e+00 5.57306818736896581e-01 -3.95626784853223695e-02 -1.77445434252943957e-01 5.17718675503272885e-01 -3.67100064460719580e+01 -1.80842692186953125e+00 2.27091593052660634e-01 -2.10851991168220998e+00 -3.07425668326853785e+00 7.35441501098934136e-01 8.31518100670765925e-01 -4.27116533224358541e+00 5.17313073366698184e+00 -3.02364271448038835e+00 -3.04748239522059627e+00
2.40850380240856844e-02 2.57760862034876921e-02 2.28942102547342763e-01 1.01553818293232123e-01 -5.66923214777931353e-02 1.74466807840097327e-01 5.99734692980008477e-03 -3.93162026257501240e-01 -5.49561157724246727e-02 -1.47976720435123277e-01 -1.12636779690159450e-01 7.44987809974110571e-02 3.59275409240712995e-02 -3.93462595565383766e-01 5.45304381936906557e-01 -4.55182337560375572e-02 3.12954867899541833e+00 -1.55397491009551414e-01 -1.68718490121691289e+00 -1.80842692186953125e+00 -3.18270328637248170e+01 3.54491864350350072e+00 1.70902446622714876e+00 3.19882437956257482e+00 -9.49712941462408811e-01 -1.32342804176414175e+00 -2.72183367637887130e+00 1.22881672482099205e-01 -2.88020779085528589e-01 1.96452006276498592e+00
-6.59996907598579680e-02 7.71874152952513271e-01 3.33461522914200569e-03 1.47513888733384135e+00 -1.07801867557342690e+00 -6.49482075159540095e-02 -2.05659200742007942e-01 6.96067784701698278e-03 -1.59775021181052113e+00 -1.54945857643701546e+00 2.66726673482437449e-01 3.01693441934265727e-01 -4.10899595614467039e-02 -4.68562142209851817e-01 -1.04861066565724204e+00 -9.20087049517890776e-01 7.39593827221602163e-01 -1.02950772689894512e-01 -1.04676834351156112e+00 2.27091593052660634e-01 3.54491864350350072e+00 -2.54962632858617120e+01 -4.29050568426812795e+00 -4.51506539427500797e-01 7.22176275296514625e-01 4.39747556950172225e+00 -1.37902719044084066e+00 1.39992717251561771e+00 -2.09998823156963876e+00 -3.66612186392365746e+00
2.28642822774501070e-01 -2.40863702110202382e+00 -5.49275072659878363e-02 -4.54152047987449237e+00 3.53311715400457516e+00 1.43030722552233369e-01 8.37637491179915372e-01 -4.86194295648787328e-02 5.07628367414140591e+00 5.23406848540987291e+00 -7.41677226538092982e-01 -9.81075932262628347e-01 9.58198493741330704e-02 1.95791971209661475e+00 1.11811696778795278e+00 4.08532165572646022e+00 6.66775793082841073e-01 -2.02887932910444824e-01 -3.20374023783441209e-01 -2.10851991168220998e+00 1.70902446622714876e+00 -4.29050568426812795e+00 -1.69019320051982405e+01 -4.67707326522527289e+00 9.21388832884333653e-02 2.22883088010649333e+00 -1.14922586071325217e+00 9.92223059253898754e-01 -7.18511749090868124e-01 -1.33347598093555497e+00
-6.40820483823748011e-02 8.66292672053242119e-01 -1.68990034214893114e-02 1.62286311390390159e+00 -1.27396920385651446e+00 -4.51251367074445991e-02 -3.03637390477219604e-01 3.21449229163841971e-02 -1.91310264996319601e+00 -1.62063267285958279e+00 3.14031693767864661e-01 2.46064661185045025e-01 -6.63285891163480357e-02 -5.29753108965537178e-01 -5.15132133807779669e-01 -1.17813788632970828e+00 8.15115263693857672e-01 -2.49638201679760807e-01 4.27652153663542367e-01 -3.07425668326853785e+00 3.19882437956257482e+00 -4.51506539427500797e-01 -4.67707326522527289e+00 -2.68642164521604982e+01 9.38678178962985554e-02 -6.94457119408940171e-01 -8.81641027267180521e-01 3.96394010105019901e-01 2.53341221828203267e+00 1.43191257011231055e+00
-2.64763829299420994e-01 2.63110522771713262e-01 -1.81326722027602294e+00 7.91194537999847652e-02 -9.25964722721271116e-02 -6.67100477334688469e-01 -5.00437307044086649e-02 4.28711392009437553e+00 -1.66192354431867223e-01 1.08987662588359818e-01 3.79674409290566528e+00 6.69010592001586801e-02 1.43477791063248272e+00 1.00494501128523552e+01 -4.29021565274934680e-01 -3.96594983204043228e+00 -3.53321059362129486e-01 -3.08104933739007869e+00 9.75563948538465120e-02 7.35441501098934136e-01 -9.49712941462408811e-01 7.22176275296514625e-01 9.21388832884333653e-02 9.38678178962985554e-02 -2.06008842982711791e+01 -6.02548134629086074e-01 1.06538993408692351e+00 1.83722286159440806e-01 5.08168925227953983e-01 -1.14465404629824186e-01
1.57128532134107567e-02 -1.30025519882300156e-01 5.69083898973242810e-02 -2.21376410527519829e-01 1.78906433459665698e-01 4.01016602285753088e-02 5.04856150046820995e-02 -1.16758529993626556e-01 2.93108918140297825e-01 1.16349974653155303e-01 -2.15330464268993133e-01 -2.32174321046442998e-02 -1.07348468463374563e-01 -6.68442446367635723e-01 1.83517868477392532e+00 -4.87879590665929008e-01 -3.30289172329279967e+00 4.16211371867370616e-01 5.83527844788760319e+00 8.31518100670765925e-01 -1.32342804176414175e+00 4.39747556950172225e+00 2.22883088010649333e+00 -6.94457119408940171e-01 -6.02548134629086074e-01 -3.17629847651182153e+01 -3.31019278951246498e-01 -2.28967876718875374e+00 3.78507026415686232e+00 -4.10736242541231533e+00
-1.02948819026471919e-02 1.33122028391430090e-02 -4.34826657667546912e-02 6.38019611425349326e-03 -1.03415775903342201e-02 1.89640750911064665e-02 -8.95336311178048308e-03 1.33662490685625468e-01 1.09036798842539417e-01 -3.51394918096124942e-01 3.27585603871164477e-01 3.85537020004288189e-02 1.25245137559910125e-01 3.59208164508019567e-01 -8.66780273435138193e-02 -8.21923913391306771e-01 7.55477307861912029e-01 -5.23012540074726973e-01 -1.43863318787341887e+00 -4.27116533224358541e+00 -2.72183367637887130e+00 -1.37902719044084066e+00 -1.14922586071325217e+00 -8.81641027267180521e-01 1.06538993408692351e+00 -3.31019278951246498e-01 -3.44626724220970857e+01 -2.21888741809836443e+00 -3.81624360777318294e+00 -1.38391352324767558e+00
2.04658464892289345e-02 -4.14403610426566232e-02 2.97697081719124568e-01 -9.86155306916233765e-03 2.05832783791738000e-02 2.06009540286212184e-01 1.04352796947559529e-02 -5.52309908479939882e-01 -4.47355547352289301e-02 2.70998171036320290e-01 3.33629551799671797e-01 -4.67153986117829073e-03 1.09855546782825025e-01 1.09599981310089722e+00 -1.10923378904756587e+00 4.73885503551212506e-01 -1.07385640532250304e+00 -5.68366441328478134e-01 -1.77290792587648549e+00 5.17313073366698184e+00 1.22881672482099205e-01 1.39992717251561771e+00 9.92223059253898754e-01 3.96394010105019901e-01 1.83722286159440806e-01 -2.28967876718875374e+00 -2.21888741809836443e+00 -4.04708301701245716e+01 4.53427942951087348e-01 5.47734541123622964e-01
-9.55537828365969101e-03 1.29644435297684324e-01 9.81501093820987408e-02 2.47333920873408081e-01 -2.24058435977324333e-01 4.06678248464595118e-02 -7.75772569620470087e-02 -1.93603143854877813e-01 -2.86833485419286216e-01 -3.67929381450739501e-01 2.83108833092237444e-01 5.19612210833573784e-02 1.25612214433613339e-01 4.27918943722582767e-01 -4.96169008096998931e-01 -4.49446019713515055e-01 7.21510268734834259e-01 -4.49254293979392205e-01 1.24957379566338700e+00 -3.02364271448038835e+00 -2.88020779085528589e-01 -2.09998823156963876e+00 -7.18511749090868124e-01 2.53341221828203267e+00 5.08168925227953983e-01 3.78507026415686232e+00 -3.81624360777318294e+00 4.53427942951087348e-01 -2.34688287445047692e+01 -5.75119545725382686e+00
7.15915789193887764e-02 8.56426853761348139e-03 4.82906157149525006e-01 1.30677051202987782e-01 -1.04211725814809045e-01 2.61320556843029295e-01 -3.79860050152384249e-02 -1.13471106206131944e+00 -1.57488813688233031e-01 -5.61450647957000004e-02 4.26697864935742022e-01 4.49134515757771829e-02 3.31040478987849163e-01 7.50827178535370288e-01 2.75173226690599249e+00 -1.28723961417282240e+00 5.94901400463774155e-01 -1.09001878364640836e+00 5.19736651225263024e+00 -3.04748239522059627e+00 1.96452006276498592e+00 -3.66612186392365746e+00 -1.33347598093555497e+00 1.43191257011231055e+00 -1.14465404629824186e-01 -4.10736242541231533e+00 -1.38391352324767558e+00 5.47734541123622964e-01 -5.75119545725382686e+00 -3.17192451659709285e+01

************************************************************
  Printing results (es2es) ...  CPU 0.14 s  wall 0.24 s
  Time of ADC calculation:  CPU 7021.62 s  wall 1190.91 s
--------------------------------------------------------------------------------
================================================================================
 
 --------------------------------------------------------------
             Orbital Energies (a.u.) and Symmetries
 --------------------------------------------------------------
 
 Alpha MOs, Restricted
 -- Occupied --                  
-11.185 -11.183  -0.990  -0.730  -0.609  -0.515  -0.463  -0.325
  1 A1    2 A1    3 A1    4 A1    1 B1    5 A1    2 B1    1 B2                 
 -0.027
  6 A1                                                                         
 -- Virtual --                   
  0.047   0.048   0.054   0.070   0.071   0.071   0.079   0.080
  3 B1    2 B2    7 A1    4 B1    3 B2    8 A1    5 B1    4 B2                 
  0.100   0.101   0.103   0.111   0.124   0.128   0.131   0.146
  6 B1    5 B2    9 A1   10 A1   11 A1    7 B1    6 B2    7 B2                 
  0.149   0.149   0.171   0.189   0.209   0.210   0.224   0.229
 12 A1    8 B1   13 A1    8 B2    9 B1   14 A1    9 B2   15 A1                 
  0.230   0.237   0.251   0.256   0.261   0.306   0.312   0.334
 10 B1   16 A1   17 A1    1 A2   10 B2   18 A1   11 B1    2 A2                 
  0.343   0.359   0.363   0.374   0.381   0.397   0.411   0.434
 11 B2   19 A1   12 B1   13 B1   20 A1   12 B2   13 B2   21 A1                 
  0.439   0.471   0.507   0.508   0.541   0.562   0.593   0.618
 22 A1   14 B1   23 A1   15 B1   24 A1   14 B2   25 A1   16 B1                 
  0.619   0.644   0.703   0.714   0.758   0.765   0.786   0.894
  3 A2   17 B1   26 A1   27 A1   15 B2    4 A2   28 A1   18 B1                 
  0.966   0.979   0.989   1.092   1.111   1.126   1.145   1.185
 29 A1   16 B2   30 A1   19 B1   17 B2   31 A1   20 B1   18 B2                 
  1.250   1.285   1.330   1.567   1.592   1.635   1.699   1.705
 32 A1   21 B1   33 A1   34 A1   22 B1   35 A1   19 B2    5 A2                 
  1.849   1.856   1.873   1.874   1.875   1.877   1.947   1.998
  6 A2   36 A1   23 B1   20 B2   37 A1   24 B1   21 B2   22 B2                 
  1.999   2.012   2.079   2.092   2.291   2.328   2.419   2.526
 38 A1   25 B1    7 A2   39 A1   26 B1   40 A1   23 B2    8 A2                 
  2.602   2.686   2.713   2.771   2.929   2.950   3.504   3.709
 41 A1   27 B1   42 A1   43 A1   28 B1   44 A1   29 B1   45 A1                 
 
 Beta MOs, Restricted
 -- Occupied --                  
-11.185 -11.183  -0.990  -0.730  -0.609  -0.515  -0.463  -0.325
  1 A1    2 A1    3 A1    4 A1    1 B1    5 A1    2 B1    1 B2                 
 -0.027
  6 A1                                                                         
 -- Virtual --                   
  0.047   0.048   0.054   0.070   0.071   0.071   0.079   0.080
  3 B1    2 B2    7 A1    4 B1    3 B2    8 A1    5 B1    4 B2                 
  0.100   0.101   0.103   0.111   0.124   0.128   0.131   0.146
  6 B1    5 B2    9 A1   10 A1   11 A1    7 B1    6 B2    7 B2                 
  0.149   0.149   0.171   0.189   0.209   0.210   0.224   0.229
 12 A1    8 B1   13 A1    8 B2    9 B1   14 A1    9 B2   15 A1                 
  0.230   0.237   0.251   0.256   0.261   0.306   0.312   0.334
 10 B1   16 A1   17 A1    1 A2   10 B2   18 A1   11 B1    2 A2                 
  0.343   0.359   0.363   0.374   0.381   0.397   0.411   0.434
 11 B2   19 A1   12 B1   13 B1   20 A1   12 B2   13 B2   21 A1                 
  0.439   0.471   0.507   0.508   0.541   0.562   0.593   0.618
 22 A1   14 B1   23 A1   15 B1   24 A1   14 B2   25 A1   16 B1                 
  0.619   0.644   0.703   0.714   0.758   0.765   0.786   0.894
  3 A2   17 B1   26 A1   27 A1   15 B2    4 A2   28 A1   18 B1                 
  0.966   0.979   0.989   1.092   1.111   1.126   1.145   1.185
 29 A1   16 B2   30 A1   19 B1   17 B2   31 A1   20 B1   18 B2                 
  1.250   1.285   1.330   1.567   1.592   1.635   1.699   1.705
 32 A1   21 B1   33 A1   34 A1   22 B1   35 A1   19 B2    5 A2                 
  1.849   1.856   1.873   1.874   1.875   1.877   1.947   1.998
  6 A2   36 A1   23 B1   20 B2   37 A1   24 B1   21 B2   22 B2                 
  1.999   2.012   2.079   2.092   2.291   2.328   2.419   2.526
 38 A1   25 B1    7 A2   39 A1   26 B1   40 A1   23 B2    8 A2                 
  2.602   2.686   2.713   2.771   2.929   2.950   3.504   3.709
 41 A1   27 B1   42 A1   43 A1   28 B1   44 A1   29 B1   45 A1                 
 --------------------------------------------------------------
 
          Ground-State Mulliken Net Atomic Charges

     Atom                 Charge (a.u.)
  ----------------------------------------
      1 C                     0.188305
      2 C                    -0.634901
      3 H                     0.033461
      4 H                     0.043434
      5 H                     0.033461
      6 H                     0.043434
      7 H                    -0.707194
  ----------------------------------------
  Sum of atomic charges =    -1.000000

 -----------------------------------------------------------------
                    Cartesian Multipole Moments
 -----------------------------------------------------------------
    Charge (ESU x 10^10)
                -4.8032
    Dipole Moment (Debye)
         X      -0.0000      Y      -0.0000      Z      42.5880
       Tot      42.5880
    Quadrupole Moments (Debye-Ang)
        XX     -34.7799     XY       0.0000     YY     -38.9641
        XZ       0.0000     YZ       0.0000     ZZ    -454.9863
    Octopole Moments (Debye-Ang^2)
       XXX      -0.0000    XXY      -0.0000    XYY      -0.0000
       YYY      -0.0000    XXZ      86.6450    XYZ      -0.0000
       YYZ      84.0845    XZZ      -0.0000    YZZ      -0.0000
       ZZZ    4344.4938
    Hexadecapole Moments (Debye-Ang^3)
      XXXX    -953.3996   XXXY      -0.0000   XXYY    -317.8133
      XYYY      -0.0000   YYYY    -948.4427   XXXZ       0.0000
      XXYZ       0.0000   XYYZ       0.0000   YYYZ       0.0000
      XXZZ   -1227.5795   XYZZ      -0.0000   YYZZ   -1231.1840
      XZZZ       0.0000   YZZZ       0.0000   ZZZZ  -45459.1708
 -----------------------------------------------------------------
 Total job time:  1274.60s(wall), 7076.34s(cpu) 
 Tue Mar 29 22:37:14 2022

        *************************************************************
        *                                                           *
        *  Thank you very much for using Q-Chem.  Have a nice day.  *
        *                                                           *
        *************************************************************


