                  Welcome to Q-Chem
     A Quantum Leap Into The Future Of Chemistry


 Q-Chem 5.4 (devel), Q-Chem, Inc., Pleasanton, CA (2021)

 E. Epifanovsky,  A. T. B. Gilbert,  Xintian Feng,  Joonho Lee,  Yuezhi Mao,  
 N. Mardirossian,  P. Pokhilko,  A. White,  M. Wormit,  M. P. Coons,  
 A. L. Dempwolff,  Zhengting Gan,  D. Hait,  P. R. Horn,  L. D. Jacobson,  
 I. Kaliman,  J. Kussmann,  A. W. Lange,  Ka Un Lao,  D. S. Levine,  Jie Liu,  
 S. C. McKenzie,  A. F. Morrison,  K. Nanda,  F. Plasser,  D. R. Rehn,  
 M. L. Vidal,  Zhi-Qiang You,  Ying Zhu,  B. Alam,  B. Albrecht,  
 A. Aldossary,  E. Alguire,  J. H. Andersen,  D. Barton,  K. Begam,  A. Behn,  
 Y. A. Bernard,  E. J. Berquist,  H. Burton,  A. Carreras,  K. Carter-Fenk,  
 R. Chakraborty,  A. D. Chien,  K. D. Closser,  V. Cofer-Shabica,  
 S. Dasgupta,  Jia Deng,  M. de Wergifosse,  M. Diedenhofen,  Hainam Do,  
 S. Ehlert,  Po-Tung Fang,  S. Fatehi,  Qingguo Feng,  T. Friedhoff,  
 J. Gayvert,  Qinghui Ge,  G. Gidofalvi,  M. Goldey,  J. Gomes,  
 C. Gonzalez-Espinoza,  S. Gulania,  A. Gunina,  M. W. D. Hanson-Heine,  
 P. H. P. Harbach,  A. W. Hauser,  M. F. Herbst,  M. Hernandez Vera,  
 M. Hodecker,  Z. C. Holden,  S. Houck,  Xunkun Huang,  Kerwin Hui,  
 B. C. Huynh,  M. Ivanov,  Hyunjun Ji,  Hanjie Jiang,  B. Kaduk,  S. Kaehler,  
 K. Khistyaev,  Jaehoon Kim,  P. Klunzinger,  Z. Koczor-Benda,  
 Joong Hoon Koh,  D. Kosenkov,  L. Koulias,  T. Kowalczyk,  C. M. Krauter,  
 K. Kue,  A. Kunitsa,  T. Kus,  A. Landau,  K. V. Lawler,  D. Lefrancois,  
 S. Lehtola,  Rain Li,  Yi-Pei Li,  Jiashu Liang,  M. Liebenthal,  
 Hung-Hsuan Lin,  You-Sheng Lin,  Fenglai Liu,  Kuan-Yu Liu,  
 M. Loipersberger,  A. Luenser,  A. Manjanath,  P. Manohar,  E. Mansoor,  
 S. F. Manzer,  Shan-Ping Mao,  A. V. Marenich,  T. Markovich,  S. Mason,  
 S. A. Maurer,  P. F. McLaughlin,  M. F. S. J. Menger,  J.-M. Mewes,  
 S. A. Mewes,  P. Morgante,  J. W. Mullinax,  K. J. Oosterbaan,  G. Paran,  
 Alexander C. Paul,  Suranjan K. Paul,  F. Pavosevic,  Zheng Pei,  S. Prager,  
 E. I. Proynov,  E. Ramos,  B. Rana,  A. E. Rask,  A. Rettig,  R. M. Richard,  
 F. Rob,  E. Rossomme,  T. Scheele,  M. Scheurer,  M. Schneider,  
 N. Sergueev,  S. M. Sharada,  W. Skomorowski,  D. W. Small,  C. J. Stein,  
 Yu-Chuan Su,  E. J. Sundstrom,  Zhen Tao,  J. Thirman,  T. Tsuchimochi,  
 N. M. Tubman,  S. P. Veccham,  O. Vydrov,  J. Wenzel,  J. Witte,  A. Yamada,  
 Kun Yao,  S. Yeganeh,  S. R. Yost,  A. Zech,  Igor Ying Zhang,  Xing Zhang,  
 Yu Zhang,  D. Zuev,  A. Aspuru-Guzik,  A. T. Bell,  N. A. Besley,  
 K. B. Bravaya,  B. R. Brooks,  D. Casanova,  Jeng-Da Chai,  S. Coriani,  
 C. J. Cramer,  A. E. DePrince, III,  R. A. DiStasio Jr.,  A. Dreuw,  
 B. D. Dunietz,  T. R. Furlani,  W. A. Goddard III,  S. Grimme,  
 S. Hammes-Schiffer,  T. Head-Gordon,  W. J. Hehre,  Chao-Ping Hsu,  
 T.-C. Jagau,  Yousung Jung,  A. Klamt,  Jing Kong,  D. S. Lambrecht,  
 WanZhen Liang,  N. J. Mayhall,  C. W. McCurdy,  J. B. Neaton,  
 C. Ochsenfeld,  J. A. Parkhill,  R. Peverati,  V. A. Rassolov,  Yihan Shao,  
 L. V. Slipchenko,  T. Stauch,  R. P. Steele,  J. E. Subotnik,  
 A. J. W. Thom,  A. Tkatchenko,  D. G. Truhlar,  T. Van Voorhis,  
 T. A. Wesolowski,  K. B. Whaley,  H. L. Woodcock III,  P. M. Zimmerman,  
 S. Faraji,  P. M. W. Gill,  M. Head-Gordon,  J. M. Herbert,  A. I. Krylov

 Additional authors for Version 5.4.1: 
 S. Kotaru,  Shaozhi Li,  Xiangyuan Li,  F. Matz,  A. Molle,  Haisheng Ren,  
 Yingli Su,  Hung-Yi Tsai,  C. Utku,  Fang Wang

 Contributors to earlier versions of Q-Chem not listed above: 
 R. D. Adamson,  B. Austin,  R. Baer,  J. Baker,  G. J. O. Beran,  
 K. Brandhorst,  S. T. Brown,  E. F. C. Byrd,  A. K. Chakraborty,  
 G. K. L. Chan,  Chun-Min Chang,  Yunqing Chen,  C.-L. Cheng,  
 Siu Hung Chien,  D. M. Chipman,  D. L. Crittenden,  H. Dachsel,  
 R. J. Doerksen,  A. D. Dutoi,  R. G. Edgar,  J. Fosso-Tande,  
 L. Fusti-Molnar,  D. Ghosh,  A. Ghysels,  A. Golubeva-Zadorozhnaya,  
 J. Gonthier,  M. S. Gordon,  S. R. Gwaltney,  G. Hawkins,  J. E. Herr,  
 A. Heyden,  S. Hirata,  E. G. Hohenstein,  G. Kedziora,  F. J. Keil,  
 C. Kelley,  Jihan Kim,  R. A. King,  R. Z. Khaliullin,  P. P. Korambath,  
 W. Kurlancheek,  A. Laurent,  A. M. Lee,  M. S. Lee,  S. V. Levchenko,  
 Ching Yeh Lin,  D. Liotard,  E. Livshits,  R. C. Lochan,  I. Lotan,  
 L. A. Martinez-Martinez,  P. E. Maslen,  N. Nair,  D. P. O'Neill,  
 D. Neuhauser,  E. Neuscamman,  C. M. Oana,  R. Olivares-Amaya,  R. Olson,  
 T. M. Perrine,  B. Peters,  P. A. Pieniazek,  A. Prociuk,  Y. M. Rhee,  
 J. Ritchie,  M. A. Rohrdanz,  E. Rosta,  N. J. Russ,  H. F. Schaefer III,  
 M. W. Schmidt,  N. E. Schultz,  S. Sharma,  N. Shenvi,  C. D. Sherrill,  
 A. C. Simmonett,  A. Sodt,  T. Stein,  D. Stuck,  K. S. Thanthiriwatte,  
 V. Vanovschi,  L. Vogt,  Tao Wang,  A. Warshel,  M. A. Watson,  
 C. F. Williams,  Q. Wu,  X. Xu,  Jun Yang,  W. Zhang,  Yan Zhao

 Please cite Q-Chem as follows:
 Y. Shao et al., Mol. Phys. 113, 184-215 (2015)
 DOI: 10.1080/00268976.2014.952696

 Q-Chem 5.4.1 for Intel X86 EM64T Linux

 Parts of Q-Chem use Armadillo 9.900.5 (Nocturnal Misbehaviour).
 http://arma.sourceforge.net/

 Q-Chem begins on Thu Apr  7 02:32:19 2022  

 Host: node01
0

     Scratch files written to /src/jdavis/qchem.scratch/qchem32682//
 Processing $rem in /src/tsommerfeld/qchem/config/preferences:
 Processing $rem in /home/jdavis/.qchemrc:

 Checking the input file for inconsistencies... 	...done.

--------------------------------------------------------------
User input:
--------------------------------------------------------------
#ethylene geometry from CRC Handbook 102nd Edition
$molecule
   0 1
C       0.6645000000    -0.0000000000    -0.0000000000
C      -0.6645000000     0.0000000000     0.0000000000
H       1.1590799571     0.9623485159     0.0000000000
H       1.1590799571    -0.9623485159    -0.0000000000
H      -1.1590799571    -0.9623485159    -0.0000000000
H      -1.1590799571     0.9623485159     0.0000000000
$end

$rem
        basis gen
        method adc(3)
        EA_STATES [0,0,3,0,0,0,0,0]
        scf_convergence 8
        thresh 14
        xc_grid 000250000974
        adc_print 3
        adc_davidson_conv 5
        adc_nguess_singles 100
        adc_nguess_doubles 50
        adc_davidson_maxsubspace 400
        adc_davidson_maxiter 40
        adc_davidson_thresh 14
        mem_total 95000
        threads 12
$end

$basis
C     1
aug-cc-pVTZ
****
C     2
aug-cc-pVTZ
****
H     3
cc-pVTZ
****
H     4
cc-pVTZ
****
H     5
cc-pVTZ
****
H     6
cc-pVTZ
****
$end
--------------------------------------------------------------
 ----------------------------------------------------------------
             Standard Nuclear Orientation (Angstroms)
    I     Atom           X                Y                Z
 ----------------------------------------------------------------
    1      C       0.6645000000     0.0000000000    -0.0000000000
    2      C      -0.6645000000    -0.0000000000     0.0000000000
    3      H       1.1590799571     0.9623485159    -0.0000000000
    4      H       1.1590799571    -0.9623485159    -0.0000000000
    5      H      -1.1590799571    -0.9623485159     0.0000000000
    6      H      -1.1590799571     0.9623485159     0.0000000000
 ----------------------------------------------------------------
 Molecular Point Group                 D2h   NOp =  8
 Largest Abelian Subgroup              D2h   NOp =  8
 Nuclear Repulsion Energy =          33.58921683 hartrees
 There are        8 alpha and        8 beta electrons
 Requested basis set is non-standard
 There are 52 shells and 148 basis functions
 Total memory of 95000 MB is distributed as follows: 
   MEM_STATIC is set to 192 MB
   QALLOC/CCMAN JOB total memory use is  94808 MB
 Warning: actual memory use might exceed 95000 MB

 Total QAlloc Memory Limit  95000 MB
 Mega-Array Size       188 MB
 MEM_STATIC part       192 MB

                       Distance Matrix (Angstroms)
             C (  1)   C (  2)   H (  3)   H (  4)   H (  5)
   C (  2)  1.329000
   H (  3)  1.082000  2.061931
   H (  4)  1.082000  2.061931  1.924697
   H (  5)  2.061931  1.082000  3.013026  2.318160
   H (  6)  2.061931  1.082000  2.318160  3.013026  1.924697
 
 A cutoff of  1.0D-14 yielded   1378 shell pairs
 There are     11258 function pairs (     14913 Cartesian)
 Smallest overlap matrix eigenvalue = 5.31E-05

 Scale SEOQF with 1.000000e-01/1.000000e-01/1.000000e-01

 Standard Electronic Orientation quadrupole field applied
 Nucleus-field energy     =     0.0000000006 hartrees
 ================ Generating on-the-fly SAD Guess ================
Attempting to make child job directory: /src/jdavis/qchem.scratch/qchem32682//Frg1/
Attempting to make child job directory: /src/jdavis/qchem.scratch/qchem32682//Frg2/
Creating input file /src/jdavis/qchem.scratch/qchem32682/Frg1.input
using default PutDataFrgm: nothing
calling putenv with: QCSCRATCH=/src/jdavis/qchem.scratch/qchem32682/ 
Spawning Job For Fragment 0
Done Job For Fragment 0
calling putenv with: QCSCRATCH=/src/jdavis/qchem.scratch 
calling putenv with: QCTHREADS=1 
Creating input file /src/jdavis/qchem.scratch/qchem32682/Frg2.input
using default PutDataFrgm: nothing
calling putenv with: QCSCRATCH=/src/jdavis/qchem.scratch/qchem32682/ 
Spawning Job For Fragment 1
Done Job For Fragment 1
calling putenv with: QCSCRATCH=/src/jdavis/qchem.scratch 
calling putenv with: QCTHREADS=1 
 Time for running child jobs:  CPU 2.12 s  wall 55.98 s
 ============= Method Specific SAD Guess Constructed =============
 Guess from on-the-fly superposition of atomic densities
 Warning: Energy on first SCF cycle will be non-variational
 A restricted Hartree-Fock SCF calculation will be
 performed using Pulay DIIS extrapolation
 SCF converges when DIIS error is below 1.0E-08
 using 12 threads for integral computing
 -------------------------------------------------------
 OpenMP Integral computing Module                
 Release: version 1.0, May 2013, Q-Chem Inc. Pittsburgh 
 -------------------------------------------------------
 ---------------------------------------
  Cycle       Energy         DIIS Error
 ---------------------------------------
    1     -78.4630505664      3.37E-02
    2     -78.0365027288      2.52E-03
    3     -78.0583017225      6.91E-04
    4     -78.0601173108      2.43E-04
    5     -78.0603325007      2.71E-05
    6     -78.0603376252      5.60E-06
    7     -78.0603379264      1.49E-06
    8     -78.0603379484      1.71E-07
    9     -78.0603379489      2.21E-08
   10     -78.0603379487      2.23E-09 Convergence criterion met
 ---------------------------------------
 SCF time:  CPU 21.25 s  wall 1.78 s
 SCF   energy in the final basis set = -78.06033795
 Total energy in the final basis set = -78.06033795
================================================================================
|                                                                              |
|                                 A D C  M A N                                 |
|                                                                              |
 ------------------------------------------------------------------------------ 
|                                                                              |
| Components:                                                                  |
|                                                                              |
| - libvmm - 1.3-trunk                                                         |
|   Authors:                                                                   |
|   Evgeny Epifanovsky, Ilya Kaliman                                           |
|                                                                              |
| - libtensor - 2.5-trunk                                                      |
|   Authors:                                                                   |
|   Evgeny Epifanovsky, Michael Wormit, Dmitry Zuev, Sam Manzer,               |
|   Ilya Kaliman                                                               |
|                                                                              |
| - libwfa - 1.1-trunk                                                         |
|   Authors:                                                                   |
|   Felix Plasser, Stefanie Mewes (Baeppler), Benjamin Thomitzni,              |
|   Michael Wormit, Feng Chen, Anna I. Krylov, Pavel Pokhilko                  |
|                                                                              |
| - libadc - 1.1-trunk                                                         |
|   Authors:                                                                   |
|   Michael Wormit, Adrian L. Dempwolff, Philipp H. P. Harbach,                |
|   Caroline Krauter, Dirk Rehn, Matthias Schneider, Jan Wenzel                |
|                                                                              |
| - adcman - 2.6-trunk                                                         |
|   Authors:                                                                   |
|   Michael Wormit, Adrian L. Dempwolff, Philipp H. P. Harbach,                |
|   Caroline Krauter, Daniel Lefrancois, Jan-Michael Mewes, Dirk Rehn,         |
|   Matthias Schneider, Jan Wenzel, Andreas Dreuw                              |
|                                                                              |
| Authors of earlier versions of ADCMAN:                                       |
| Andreas Dreuw, Jan Hendrik Starcke, Dirk Rehn, Michael Wormit                |
|                                                                              |
================================================================================

  Import QC data ...  CPU 0.00 s  wall 0.00 s
 
 Alpha MOs, Restricted
 -- Occupied --                  
-11.228 -11.226  -1.040  -0.781  -0.661  -0.568  -0.516  -0.378
  1 Ag    1 B3u   2 Ag    2 B3u   1 B2u   3 Ag    1 B1g   1 B1u                
 -- Virtual --                   
  0.056   0.072   0.079   0.094   0.102   0.106   0.115   0.181
  3 B3u   4 Ag    2 B2u   1 B2g   2 B1u   2 B1g   5 Ag    2 B2g                
  0.189   0.225   0.272   0.275   0.294   0.307   0.313   0.336
  4 B3u   6 Ag    3 B2u   1 B3g   5 B3u   6 B3u   7 Ag    3 B1g                
  0.340   0.348   0.379   0.385   0.416   0.463   0.477   0.565
  4 B2u   8 Ag    1 Au    3 B1u   3 B2g   4 B1g   7 B3u   4 B1u                
  0.608   0.621   0.648   0.649   0.668   0.685   0.695   0.749
  8 B3u   5 B2u   6 B2u   9 Ag    9 B3u  10 Ag    5 B1g  11 Ag                 
  0.781   0.883   0.892   0.908   0.972   1.018   1.022   1.024
  4 B2g   6 B1g   2 B3g  10 B3u   5 B1u   2 Au    6 B1u   7 B2u                
  1.025   1.037   1.162   1.164   1.172   1.176   1.211   1.323
 11 B3u  12 Ag    5 B2g   7 B1g   3 B3g  13 Ag    6 B2g  12 B3u                
  1.338   1.472   1.481   1.491   1.493   1.508   1.547   1.548
  8 B2u   9 B2u  14 Ag   13 B3u   7 B1u   8 B1g  14 B3u  10 B2u                
  1.579   1.593   1.598   1.607   1.619   1.677   1.679   1.715
  3 Au    4 B3g  15 B3u  15 Ag    8 B1u   7 B2g   4 Au   16 Ag                 
  1.740   1.838   1.937   1.981   2.012   2.081   2.103   2.297
  9 B1g  10 B1g  11 B2u  17 Ag    8 B2g  16 B3u  11 B1g  17 B3u                
  2.508   2.736   2.932   2.982   3.029   3.053   3.113   3.154
  9 B1u  12 B2u  18 Ag   18 B3u  19 Ag   12 B1g   9 B2g   5 B3g                
  3.209   3.219   3.228   3.239   3.248   3.287   3.385   3.399
 10 B1u  13 B2u  20 Ag   11 B1u   6 B3g   5 Au   10 B2g  14 B2u                
  3.488   3.507   3.510   3.534   3.696   3.715   3.737   3.739
 19 B3u  13 B1g  15 B2u  21 Ag   14 B1g  12 B1u  22 Ag   11 B2g                
  3.742   3.848   3.851   3.854   3.887   3.896   4.105   4.143
 20 B3u  16 B2u   6 Au    7 B3g  21 B3u  15 B1g  22 B3u  23 Ag                 
  4.150   4.204   4.234   4.304   4.333   4.341   4.400   4.401
 12 B2g  16 B1g  23 B3u  13 B1u  17 B2u   7 Au   24 Ag    8 B3g                
  4.555   4.579   4.679   4.686   4.759   4.777   4.797   4.858
 14 B1u  24 B3u  13 B2g   8 Au   25 Ag   18 B2u  17 B1g  14 B2g                
  4.959   4.962   5.066   5.077   5.191   5.225   5.360   5.432
 25 B3u  15 B1u  26 Ag   18 B1g  19 B2u   9 B3g  26 B3u   9 Au                 
  5.444   5.511   5.612   5.788   5.816   6.221   6.330   6.416
 27 Ag   19 B1g  15 B2g  20 B2u  28 Ag   27 B3u  20 B1g  21 B2u                
  6.667   6.950  13.334  16.544
 28 B3u  21 B1g  29 Ag   29 B3u                                                
 
 Beta MOs, Restricted
 -- Occupied --                  
-11.228 -11.226  -1.040  -0.781  -0.661  -0.568  -0.516  -0.378
  1 Ag    1 B3u   2 Ag    2 B3u   1 B2u   3 Ag    1 B1g   1 B1u                
 -- Virtual --                   
  0.056   0.072   0.079   0.094   0.102   0.106   0.115   0.181
  3 B3u   4 Ag    2 B2u   1 B2g   2 B1u   2 B1g   5 Ag    2 B2g                
  0.189   0.225   0.272   0.275   0.294   0.307   0.313   0.336
  4 B3u   6 Ag    3 B2u   1 B3g   5 B3u   6 B3u   7 Ag    3 B1g                
  0.340   0.348   0.379   0.385   0.416   0.463   0.477   0.565
  4 B2u   8 Ag    1 Au    3 B1u   3 B2g   4 B1g   7 B3u   4 B1u                
  0.608   0.621   0.648   0.649   0.668   0.685   0.695   0.749
  8 B3u   5 B2u   6 B2u   9 Ag    9 B3u  10 Ag    5 B1g  11 Ag                 
  0.781   0.883   0.892   0.908   0.972   1.018   1.022   1.024
  4 B2g   6 B1g   2 B3g  10 B3u   5 B1u   2 Au    6 B1u   7 B2u                
  1.025   1.037   1.162   1.164   1.172   1.176   1.211   1.323
 11 B3u  12 Ag    5 B2g   7 B1g   3 B3g  13 Ag    6 B2g  12 B3u                
  1.338   1.472   1.481   1.491   1.493   1.508   1.547   1.548
  8 B2u   9 B2u  14 Ag   13 B3u   7 B1u   8 B1g  14 B3u  10 B2u                
  1.579   1.593   1.598   1.607   1.619   1.677   1.679   1.715
  3 Au    4 B3g  15 B3u  15 Ag    8 B1u   7 B2g   4 Au   16 Ag                 
  1.740   1.838   1.937   1.981   2.012   2.081   2.103   2.297
  9 B1g  10 B1g  11 B2u  17 Ag    8 B2g  16 B3u  11 B1g  17 B3u                
  2.508   2.736   2.932   2.982   3.029   3.053   3.113   3.154
  9 B1u  12 B2u  18 Ag   18 B3u  19 Ag   12 B1g   9 B2g   5 B3g                
  3.209   3.219   3.228   3.239   3.248   3.287   3.385   3.399
 10 B1u  13 B2u  20 Ag   11 B1u   6 B3g   5 Au   10 B2g  14 B2u                
  3.488   3.507   3.510   3.534   3.696   3.715   3.737   3.739
 19 B3u  13 B1g  15 B2u  21 Ag   14 B1g  12 B1u  22 Ag   11 B2g                
  3.742   3.848   3.851   3.854   3.887   3.896   4.105   4.143
 20 B3u  16 B2u   6 Au    7 B3g  21 B3u  15 B1g  22 B3u  23 Ag                 
  4.150   4.204   4.234   4.304   4.333   4.341   4.400   4.401
 12 B2g  16 B1g  23 B3u  13 B1u  17 B2u   7 Au   24 Ag    8 B3g                
  4.555   4.579   4.679   4.686   4.759   4.777   4.797   4.858
 14 B1u  24 B3u  13 B2g   8 Au   25 Ag   18 B2u  17 B1g  14 B2g                
  4.959   4.962   5.066   5.077   5.191   5.225   5.360   5.432
 25 B3u  15 B1u  26 Ag   18 B1g  19 B2u   9 B3g  26 B3u   9 Au                 
  5.444   5.511   5.612   5.788   5.816   6.221   6.330   6.416
 27 Ag   19 B1g  15 B2g  20 B2u  28 Ag   27 B3u  20 B1g  21 B2u                
  6.667   6.950  13.334  16.544
 28 B3u  21 B1g  29 Ag   29 B3u                                                
  Import AO data ...  CPU 0.04 s  wall 0.04 s
  Using point group: D2h
  Irreducible representations in point group: Ag B1g B2g B3g Au B1u B2u B3u
  Molecular orbitals: 
  Occupied MOs:
  Block   0:   1 ( Ag) A   2 ( Ag) A   3 ( Ag) A
                  -11.23       -1.04     -0.5678
  Block   1:   1 (B1g) A
                 -0.5159
  Block   2:   1 (B1u) A
                 -0.3776
  Block   3:   1 (B2u) A
                 -0.6606
  Block   4:   1 (B3u) A   2 (B3u) A
                  -11.23     -0.7811
  Block   5:   1 ( Ag) B   2 ( Ag) B   3 ( Ag) B
                  -11.23       -1.04     -0.5678
  Block   6:   1 (B1g) B
                 -0.5159
  Block   7:   1 (B1u) B
                 -0.3776
  Block   8:   1 (B2u) B
                 -0.6606
  Block   9:   1 (B3u) B   2 (B3u) B
                  -11.23     -0.7811
  Virtual MOs:
  Block   0:   4 ( Ag) A   5 ( Ag) A   6 ( Ag) A   7 ( Ag) A   8 ( Ag) A
                 0.07162      0.1153      0.2251      0.3133      0.3483
               9 ( Ag) A  10 ( Ag) A  11 ( Ag) A  12 ( Ag) A  13 ( Ag) A
                  0.6485      0.6849      0.7485       1.037       1.176
              14 ( Ag) A  15 ( Ag) A  16 ( Ag) A  17 ( Ag) A
                   1.481       1.607       1.715       1.981
  Block   1:  18 ( Ag) A  19 ( Ag) A  20 ( Ag) A  21 ( Ag) A  22 ( Ag) A
                   2.932       3.029       3.228       3.534       3.737
              23 ( Ag) A  24 ( Ag) A  25 ( Ag) A  26 ( Ag) A  27 ( Ag) A
                   4.143         4.4       4.759       5.066       5.444
              28 ( Ag) A  29 ( Ag) A
                   5.816       13.33
  Block   2:   2 (B1g) A   3 (B1g) A   4 (B1g) A   5 (B1g) A   6 (B1g) A
                  0.1064      0.3363      0.4626      0.6952      0.8834
               7 (B1g) A   8 (B1g) A   9 (B1g) A  10 (B1g) A  11 (B1g) A
                   1.164       1.508        1.74       1.838       2.103
  Block   3:  12 (B1g) A  13 (B1g) A  14 (B1g) A  15 (B1g) A  16 (B1g) A
                   3.053       3.507       3.696       3.896       4.204
              17 (B1g) A  18 (B1g) A  19 (B1g) A  20 (B1g) A  21 (B1g) A
                   4.797       5.077       5.511        6.33        6.95
  Block   4:   1 (B2g) A   2 (B2g) A   3 (B2g) A   4 (B2g) A   5 (B2g) A
                  0.0939      0.1809      0.4161      0.7808       1.162
               6 (B2g) A   7 (B2g) A   8 (B2g) A   9 (B2g) A  10 (B2g) A
                   1.211       1.677       2.012       3.113       3.385
              11 (B2g) A  12 (B2g) A  13 (B2g) A  14 (B2g) A  15 (B2g) A
                   3.739        4.15       4.679       4.858       5.612
  Block   5:   1 (B3g) A   2 (B3g) A   3 (B3g) A   4 (B3g) A   5 (B3g) A
                  0.2749      0.8921       1.172       1.593       3.154
               6 (B3g) A   7 (B3g) A   8 (B3g) A   9 (B3g) A
                   3.248       3.854       4.401       5.225
  Block   6:   1 ( Au) A   2 ( Au) A   3 ( Au) A   4 ( Au) A   5 ( Au) A
                  0.3789       1.018       1.579       1.679       3.287
               6 ( Au) A   7 ( Au) A   8 ( Au) A   9 ( Au) A
                   3.851       4.341       4.686       5.432
  Block   7:   2 (B1u) A   3 (B1u) A   4 (B1u) A   5 (B1u) A   6 (B1u) A
                  0.1016      0.3854      0.5649      0.9718       1.022
               7 (B1u) A   8 (B1u) A   9 (B1u) A  10 (B1u) A  11 (B1u) A
                   1.493       1.619       2.508       3.209       3.239
              12 (B1u) A  13 (B1u) A  14 (B1u) A  15 (B1u) A
                   3.715       4.304       4.555       4.962
  Block   8:   2 (B2u) A   3 (B2u) A   4 (B2u) A   5 (B2u) A   6 (B2u) A
                 0.07863       0.272      0.3395      0.6207      0.6485
               7 (B2u) A   8 (B2u) A   9 (B2u) A  10 (B2u) A  11 (B2u) A
                   1.024       1.338       1.472       1.548       1.937
  Block   9:  12 (B2u) A  13 (B2u) A  14 (B2u) A  15 (B2u) A  16 (B2u) A
                   2.736       3.219       3.399        3.51       3.848
              17 (B2u) A  18 (B2u) A  19 (B2u) A  20 (B2u) A  21 (B2u) A
                   4.333       4.777       5.191       5.788       6.416
  Block  10:   3 (B3u) A   4 (B3u) A   5 (B3u) A   6 (B3u) A   7 (B3u) A
                 0.05606      0.1893      0.2935      0.3074      0.4774
               8 (B3u) A   9 (B3u) A  10 (B3u) A  11 (B3u) A  12 (B3u) A
                  0.6085      0.6678      0.9084       1.025       1.323
              13 (B3u) A  14 (B3u) A  15 (B3u) A  16 (B3u) A
                   1.491       1.547       1.598       2.081
  Block  11:  17 (B3u) A  18 (B3u) A  19 (B3u) A  20 (B3u) A  21 (B3u) A
                   2.297       2.982       3.488       3.742       3.887
              22 (B3u) A  23 (B3u) A  24 (B3u) A  25 (B3u) A  26 (B3u) A
                   4.105       4.234       4.579       4.959        5.36
              27 (B3u) A  28 (B3u) A  29 (B3u) A
                   6.221       6.667       16.54
  Block  12:   4 ( Ag) B   5 ( Ag) B   6 ( Ag) B   7 ( Ag) B   8 ( Ag) B
                 0.07162      0.1153      0.2251      0.3133      0.3483
               9 ( Ag) B  10 ( Ag) B  11 ( Ag) B  12 ( Ag) B  13 ( Ag) B
                  0.6485      0.6849      0.7485       1.037       1.176
              14 ( Ag) B  15 ( Ag) B  16 ( Ag) B  17 ( Ag) B
                   1.481       1.607       1.715       1.981
  Block  13:  18 ( Ag) B  19 ( Ag) B  20 ( Ag) B  21 ( Ag) B  22 ( Ag) B
                   2.932       3.029       3.228       3.534       3.737
              23 ( Ag) B  24 ( Ag) B  25 ( Ag) B  26 ( Ag) B  27 ( Ag) B
                   4.143         4.4       4.759       5.066       5.444
              28 ( Ag) B  29 ( Ag) B
                   5.816       13.33
  Block  14:   2 (B1g) B   3 (B1g) B   4 (B1g) B   5 (B1g) B   6 (B1g) B
                  0.1064      0.3363      0.4626      0.6952      0.8834
               7 (B1g) B   8 (B1g) B   9 (B1g) B  10 (B1g) B  11 (B1g) B
                   1.164       1.508        1.74       1.838       2.103
  Block  15:  12 (B1g) B  13 (B1g) B  14 (B1g) B  15 (B1g) B  16 (B1g) B
                   3.053       3.507       3.696       3.896       4.204
              17 (B1g) B  18 (B1g) B  19 (B1g) B  20 (B1g) B  21 (B1g) B
                   4.797       5.077       5.511        6.33        6.95
  Block  16:   1 (B2g) B   2 (B2g) B   3 (B2g) B   4 (B2g) B   5 (B2g) B
                  0.0939      0.1809      0.4161      0.7808       1.162
               6 (B2g) B   7 (B2g) B   8 (B2g) B   9 (B2g) B  10 (B2g) B
                   1.211       1.677       2.012       3.113       3.385
              11 (B2g) B  12 (B2g) B  13 (B2g) B  14 (B2g) B  15 (B2g) B
                   3.739        4.15       4.679       4.858       5.612
  Block  17:   1 (B3g) B   2 (B3g) B   3 (B3g) B   4 (B3g) B   5 (B3g) B
                  0.2749      0.8921       1.172       1.593       3.154
               6 (B3g) B   7 (B3g) B   8 (B3g) B   9 (B3g) B
                   3.248       3.854       4.401       5.225
  Block  18:   1 ( Au) B   2 ( Au) B   3 ( Au) B   4 ( Au) B   5 ( Au) B
                  0.3789       1.018       1.579       1.679       3.287
               6 ( Au) B   7 ( Au) B   8 ( Au) B   9 ( Au) B
                   3.851       4.341       4.686       5.432
  Block  19:   2 (B1u) B   3 (B1u) B   4 (B1u) B   5 (B1u) B   6 (B1u) B
                  0.1016      0.3854      0.5649      0.9718       1.022
               7 (B1u) B   8 (B1u) B   9 (B1u) B  10 (B1u) B  11 (B1u) B
                   1.493       1.619       2.508       3.209       3.239
              12 (B1u) B  13 (B1u) B  14 (B1u) B  15 (B1u) B
                   3.715       4.304       4.555       4.962
  Block  20:   2 (B2u) B   3 (B2u) B   4 (B2u) B   5 (B2u) B   6 (B2u) B
                 0.07863       0.272      0.3395      0.6207      0.6485
               7 (B2u) B   8 (B2u) B   9 (B2u) B  10 (B2u) B  11 (B2u) B
                   1.024       1.338       1.472       1.548       1.937
  Block  21:  12 (B2u) B  13 (B2u) B  14 (B2u) B  15 (B2u) B  16 (B2u) B
                   2.736       3.219       3.399        3.51       3.848
              17 (B2u) B  18 (B2u) B  19 (B2u) B  20 (B2u) B  21 (B2u) B
                   4.333       4.777       5.191       5.788       6.416
  Block  22:   3 (B3u) B   4 (B3u) B   5 (B3u) B   6 (B3u) B   7 (B3u) B
                 0.05606      0.1893      0.2935      0.3074      0.4774
               8 (B3u) B   9 (B3u) B  10 (B3u) B  11 (B3u) B  12 (B3u) B
                  0.6085      0.6678      0.9084       1.025       1.323
              13 (B3u) B  14 (B3u) B  15 (B3u) B  16 (B3u) B
                   1.491       1.547       1.598       2.081
  Block  23:  17 (B3u) B  18 (B3u) B  19 (B3u) B  20 (B3u) B  21 (B3u) B
                   2.297       2.982       3.488       3.742       3.887
              22 (B3u) B  23 (B3u) B  24 (B3u) B  25 (B3u) B  26 (B3u) B
                   4.105       4.234       4.579       4.959        5.36
              27 (B3u) B  28 (B3u) B  29 (B3u) B
                   6.221       6.667       16.54
  Import MO data ...  CPU 0.10 s  wall 0.02 s
  Import HF data ...  CPU 1.56 s  wall 0.29 s
  Import 2e integrals ...  CPU 41.57 s  wall 3.79 s

--------------------------------------------------------------------------------
                                   HF Summary                                   
--------------------------------------------------------------------------------
  Energy:                                                  -78.0603379487 a.u.
  Dip. moment [a.u.]:                  [   0.000000,    0.000000,   -0.000000]
  Total dipole [Debye]:                                               0.000000
  <r^2> [a.u.]:                        [  47.650282,   22.100031,   11.985863]
  Total <r^2> [a.u.]:                                                81.736176
--------------------------------------------------------------------------------
  HF properties ...  CPU 0.22 s  wall 0.04 s
  MP(1) calculation ...  CPU 2.58 s  wall 2.12 s
  N^6 prerequesite intermediates ...  CPU 7.15 s  wall 0.86 s

--------------------------------------------------------------------------------
                                 MP(2) Summary                                  
--------------------------------------------------------------------------------
  MP energy contribution:                                   -0.3721718023 a.u.
  Total energy:                                            -78.4325097510 a.u.
  Dip. moment [a.u.]:                  [   0.000000,    0.000000,   -0.000000]
  Total dipole [Debye]:                                               0.000000
  <r^2> [a.u.]:                        [  47.633550,   22.007636,   11.772339]
  Total <r^2> [a.u.]:                                                81.413526
--------------------------------------------------------------------------------
  MP(2) calculation ...  CPU 4.44 s  wall 2.61 s

--------------------------------------------------------------------------------
                                 MP(3) Summary                                  
--------------------------------------------------------------------------------
  MP energy contribution:                                   -0.0229209001 a.u.
  Total energy:                                            -78.4554306511 a.u.
--------------------------------------------------------------------------------
  MP(3) calculation ...  CPU 0.02 s  wall 0.00 s
  Start ADC(3) ...  CPU 0.12 s  wall 0.03 s
  EA-ADC(2) Effective Transition Moments ...  CPU 0.60 s  wall 0.11 s
  EA-ADC(3) intermediates ...  CPU 1.39 s  wall 0.23 s
Less particle guess vectors found than requested: 15 (found), 100 (requested).
Adjusting number of hole-2particle guess vectors to 135.
  Starting Davidson for electron-attached states of irrep B2g ... 
--------------------------------------------------------------------------------
   It NVec Conv  Avg. Norm  Max. Norm  Conv. states           Remark
--------------------------------------------------------------------------------
       150    0  1.393e-01  3.391e-01  0.0939 n n n           Guess.
    1  153    0  2.447e-02  4.476e-02  0.0742 n n n           
    2  156    0  5.600e-03  1.045e-02  0.0736 n n n           
    3  159    0  1.332e-03  2.831e-03  0.0735 n n n           
    4  162    0  2.896e-04  6.414e-04  0.0735 n n n           
    5  165    0  6.937e-05  1.597e-04  0.0735 n n n           
    6  168    0  1.661e-05  3.988e-05  0.0735 n n n           
    7  171    3  3.663e-06  9.019e-06  0.0735 y y y           Converged.
--------------------------------------------------------------------------------
  Davidson Summary: 
 ------------------------------------------------------------
  State  0: electron attachment energy =   0.0735 a.u.   (converged)
  State  1: electron attachment energy =   0.1425 a.u.   (converged)
  State  2: electron attachment energy =   0.2467 a.u.   (converged)
 ------------------------------------------------------------

  Electron-attached states of irrep B2g ...  CPU 170.23 s  wall 36.34 s
  Pole strengths ...  CPU 0.14 s  wall 0.04 s

--------------------------------------------------------------------------------
                        Electron-Attached State Summary
--------------------------------------------------------------------------------

  Electron-attached state 1 (B2g)                                  [converged]
  ----------------------------------------------------------------------------
  Term symbol:  1 (2) B2g                                   R^2 =  3.09080e-06

  Total energy:                                            -78.3818834560 a.u.
  Electron attachment energy:                                      2.001321 eV

  Pole strength:                                                      0.944678


  V1^2 = 0.9533, V2^2 = 0.0467

  Important amplitudes:
       occ i       vir a        vir b           v   
    -------------------------------------------------
                               1 (B2g) B     -0.9383
                               2 (B2g) B     -0.2668
     1 (B1u) A    2 (B1u) A    2 (B2g) B      0.0544
     1 (B1u) B    2 (B2g) B    2 (B1u) B     -0.0430
     1 (B1u) A    2 (B1u) A    1 (B2g) B      0.0371
                               3 (B2g) B     -0.0367
     1 (B1u) B    1 (B2g) B    2 (B1u) B     -0.0351
     1 (B1u) A    2 (B1u) A    3 (B2g) B      0.0203
     1 (B1u) A    4 (B1u) A    2 (B2g) B      0.0187
     3 (Ag ) B    4 (Ag ) B    2 (B2g) B      0.0174
     1 (B1u) B    2 (B2g) B    3 (B1u) B      0.0172
     1 (B1g) A    3 (B1g) A    2 (B2g) B      0.0164
     3 (Ag ) A    4 (Ag ) A    2 (B2g) B      0.0161
                               4 (B2g) B      0.0160
     1 (B1g) B    3 (B1g) B    2 (B2g) B      0.0147
     1 (B2u) A    3 (B2u) A    2 (B2g) B     -0.0140
     1 (B1u) A    2 (B2g) A    3 (B1u) B      0.0140
     1 (B1u) B    1 (B2g) B    3 (B1u) B      0.0134
     1 (B1g) A    2 (B1g) A    2 (B2g) B     -0.0129
     1 (B1g) B    2 (B1g) B    2 (B2g) B     -0.0128
     3 (Ag ) B    4 (Ag ) B    1 (B2g) B      0.0128
     1 (B2u) B    2 (B2g) B    3 (B2u) B      0.0127
     1 (B1u) A    1 (B2g) A    3 (B1u) B      0.0126
     2 (B3u) B    2 (B2g) B    4 (B3u) B     -0.0122
     1 (B2u) A    2 (B2u) A    2 (B2g) B      0.0119
     1 (B1u) A    2 (B2g) A    2 (B1u) B      0.0114
     1 (B2u) B    2 (B2g) B    2 (B2u) B     -0.0114
     3 (Ag ) B    7 (Ag ) B    2 (B2g) B      0.0113
     3 (Ag ) A    6 (Ag ) A    2 (B2g) B     -0.0111
     1 (B1u) B    3 (B2g) B    2 (B1u) B     -0.0111
     2 (B3u) A    4 (B3u) A    2 (B2g) B      0.0111
     1 (B1u) A    2 (B1u) A    4 (B2g) B     -0.0111
     3 (Ag ) A    7 (Ag ) A    2 (B2g) B      0.0109
     3 (Ag ) A    4 (Ag ) A    1 (B2g) B      0.0105
     1 (B1g) A    3 (B1g) A    1 (B2g) B      0.0105
     1 (B1u) A    4 (B1u) A    3 (B2g) B      0.0102
     1 (B1g) B    3 (B1g) B    1 (B2g) B      0.0099
     1 (B1u) A    1 (B3g) A    1 (Au ) B      0.0099
     1 (B1g) B    2 (B1g) B    1 (B2g) B     -0.0099
     1 (B1u) A    4 (B1u) A    1 (B2g) B      0.0096
    -------------------------------------------------
  ----------------------------------------------------------------------------


  Electron-attached state 2 (B2g)                                  [converged]
  ----------------------------------------------------------------------------
  Term symbol:  2 (2) B2g                                   R^2 =  5.46729e-06

  Total energy:                                            -78.3128954652 a.u.
  Electron attachment energy:                                      3.878580 eV

  Pole strength:                                                      0.917562


  V1^2 = 0.9254, V2^2 = 0.0746

  Important amplitudes:
       occ i       vir a        vir b           v   
    -------------------------------------------------
                               2 (B2g) B     -0.9049
                               1 (B2g) B      0.3135
     1 (B1u) A    2 (B1u) A    2 (B2g) B      0.0937
                               3 (B2g) B     -0.0847
     1 (B1u) A    2 (B1u) A    1 (B2g) B      0.0637
     1 (B1u) A    2 (B2g) A    2 (B1u) B      0.0564
     1 (B1u) A    1 (B2g) A    2 (B1u) B      0.0431
     1 (B1u) B    2 (B2g) B    2 (B1u) B     -0.0373
     1 (B1u) A    2 (B1u) A    3 (B2g) B      0.0357
                               4 (B2g) B      0.0329
     1 (B1u) A    4 (B1u) A    2 (B2g) B      0.0217
     3 (Ag ) A    4 (Ag ) A    2 (B2g) B      0.0209
     1 (B1u) B    1 (B2g) B    2 (B1u) B     -0.0207
     1 (B1g) A    3 (B1g) A    2 (B2g) B      0.0196
     1 (B1u) A    3 (B2g) A    2 (B1u) B      0.0185
     1 (B1u) A    2 (B1u) A    4 (B2g) B     -0.0180
     1 (B1u) B    3 (B2g) B    2 (B1u) B     -0.0173
     1 (B2u) A    3 (B2u) A    2 (B2g) B     -0.0168
     1 (B1g) A    2 (B1g) A    2 (B2g) B     -0.0165
     1 (B1g) B    3 (B1g) B    2 (B2g) B      0.0161
     3 (Ag ) B    4 (Ag ) B    2 (B2g) B      0.0152
     1 (B2u) A    2 (B2u) A    2 (B2g) B      0.0148
     1 (B2u) B    2 (B2g) B    3 (B2u) B      0.0138
     3 (Ag ) A    6 (Ag ) A    2 (B2g) B     -0.0136
     2 (B3u) A    4 (B3u) A    2 (B2g) B      0.0134
     3 (Ag ) A    7 (Ag ) A    2 (B2g) B      0.0131
     1 (B1g) B    2 (B1g) B    2 (B2g) B     -0.0129
     1 (B1u) A    4 (B1u) A    1 (B2g) B      0.0128
     1 (B1u) A    4 (B1u) A    3 (B2g) B      0.0123
     3 (Ag ) B    7 (Ag ) B    2 (B2g) B      0.0122
     3 (Ag ) A    4 (Ag ) A    1 (B2g) B      0.0122
     1 (B1u) A    2 (B2g) A    4 (B1u) B      0.0119
     1 (B2u) B    2 (B2g) B    2 (B2u) B     -0.0119
     1 (B1g) A    3 (B1g) A    1 (B2g) B      0.0101
     1 (B1u) A    4 (B1u) A    4 (B2g) B     -0.0100
     2 (B3u) A    5 (B3u) A    2 (B2g) B      0.0099
     1 (B1g) A    3 (B1g) A    3 (B2g) B      0.0098
     1 (B1u) B    2 (B2g) B    4 (B1u) B     -0.0098
     1 (B1u) A    2 (B2g) A    6 (B1u) B     -0.0097
     2 (B3u) A    3 (B3u) A    2 (B2g) B     -0.0097
    -------------------------------------------------
  ----------------------------------------------------------------------------


  Electron-attached state 3 (B2g)                                  [converged]
  ----------------------------------------------------------------------------
  Term symbol:  3 (2) B2g                                   R^2 =  9.01913e-06

  Total energy:                                            -78.2087735582 a.u.
  Electron attachment energy:                                      6.711881 eV

  Pole strength:                                                      0.057160


  V1^2 = 0.0577, V2^2 = 0.9423

  Important amplitudes:
       occ i       vir a        vir b           v   
    -------------------------------------------------
     1 (B1u) A    2 (B1u) A    2 (B2g) B      0.4097
     1 (B1u) A    2 (B1u) A    1 (B2g) B      0.3431
                               2 (B2g) B      0.2242
     1 (B1u) A    2 (B2g) A    2 (B1u) B      0.2184
     1 (B1u) B    2 (B2g) B    2 (B1u) B     -0.1913
     1 (B1u) A    1 (B2g) A    2 (B1u) B      0.1797
     1 (B1u) B    1 (B2g) B    2 (B1u) B     -0.1634
     1 (B1u) A    2 (B1u) A    3 (B2g) B      0.1212
                               3 (B2g) B     -0.0702
     1 (B1u) A    3 (B2g) A    2 (B1u) B      0.0616
     1 (B1u) B    3 (B2g) B    2 (B1u) B     -0.0596
     1 (B1u) A    2 (B1u) A    4 (B2g) B     -0.0533
                               1 (B2g) B      0.0451
     1 (B1u) B    4 (B2g) B    2 (B1u) B      0.0275
     1 (B1u) A    4 (Ag ) A    3 (B3u) B      0.0275
     1 (B1u) A    4 (B2g) A    2 (B1u) B     -0.0258
                               4 (B2g) B      0.0205
     2 (Ag ) A    2 (B1u) A    8 (B3u) B      0.0203
     1 (B1u) A    4 (B1u) A    2 (B2g) B     -0.0197
     1 (B1u) A    3 (B3u) A    4 (Ag ) B      0.0188
     1 (B1u) A    5 (Ag ) A    3 (B3u) B      0.0185
     3 (Ag ) B    4 (Ag ) B    2 (B2g) B     -0.0184
     3 (Ag ) A    4 (Ag ) A    2 (B2g) B     -0.0183
     1 (B1u) A    4 (Ag ) A    4 (B3u) B     -0.0177
     1 (B1u) A    4 (Ag ) A    5 (B3u) B      0.0164
     3 (Ag ) B    4 (Ag ) B    1 (B2g) B     -0.0153
     1 (B1u) B    2 (B2g) B    3 (B1u) B     -0.0153
     3 (Ag ) A    4 (Ag ) A    1 (B2g) B     -0.0149
     2 (B3u) A    2 (B1u) A    6 (Ag ) B      0.0149
     1 (B1g) B    3 (B1g) B    2 (B2g) B     -0.0144
     1 (B1g) A    3 (B1g) A    2 (B2g) B     -0.0143
     1 (B1u) B    2 (B2g) B    4 (B1u) B      0.0140
     1 (B1u) A    3 (B3u) A    5 (Ag ) B      0.0139
     1 (B1g) A    2 (B1g) A    2 (B2g) B      0.0136
     1 (B1g) B    2 (B1g) B    2 (B2g) B      0.0136
     1 (B2u) B    2 (B2g) B    3 (B2u) B     -0.0136
     1 (B1u) A    4 (B1u) A    3 (B2g) B     -0.0136
     1 (B2u) A    3 (B2u) A    2 (B2g) B      0.0132
     1 (B1u) A    5 (Ag ) A    5 (B3u) B      0.0130
     2 (Ag ) A    2 (B1u) A    5 (B3u) B     -0.0129
    -------------------------------------------------
  ----------------------------------------------------------------------------


--------------------------------------------------------------------------------
  Printing results ...  CPU 0.04 s  wall 0.02 s
  Printing results (es2es) ...  CPU 0.00 s  wall 0.00 s
  Time of ADC calculation:  CPU 230.18 s  wall 46.55 s
--------------------------------------------------------------------------------
================================================================================
 
 --------------------------------------------------------------
             Orbital Energies (a.u.) and Symmetries
 --------------------------------------------------------------
 
 Alpha MOs, Restricted
 -- Occupied --                  
-11.228 -11.226  -1.040  -0.781  -0.661  -0.568  -0.516  -0.378
  1 Ag    1 B3u   2 Ag    2 B3u   1 B2u   3 Ag    1 B1g   1 B1u                
 -- Virtual --                   
  0.056   0.072   0.079   0.094   0.102   0.106   0.115   0.181
  3 B3u   4 Ag    2 B2u   1 B2g   2 B1u   2 B1g   5 Ag    2 B2g                
  0.189   0.225   0.272   0.275   0.294   0.307   0.313   0.336
  4 B3u   6 Ag    3 B2u   1 B3g   5 B3u   6 B3u   7 Ag    3 B1g                
  0.340   0.348   0.379   0.385   0.416   0.463   0.477   0.565
  4 B2u   8 Ag    1 Au    3 B1u   3 B2g   4 B1g   7 B3u   4 B1u                
  0.608   0.621   0.648   0.649   0.668   0.685   0.695   0.749
  8 B3u   5 B2u   6 B2u   9 Ag    9 B3u  10 Ag    5 B1g  11 Ag                 
  0.781   0.883   0.892   0.908   0.972   1.018   1.022   1.024
  4 B2g   6 B1g   2 B3g  10 B3u   5 B1u   2 Au    6 B1u   7 B2u                
  1.025   1.037   1.162   1.164   1.172   1.176   1.211   1.323
 11 B3u  12 Ag    5 B2g   7 B1g   3 B3g  13 Ag    6 B2g  12 B3u                
  1.338   1.472   1.481   1.491   1.493   1.508   1.547   1.548
  8 B2u   9 B2u  14 Ag   13 B3u   7 B1u   8 B1g  14 B3u  10 B2u                
  1.579   1.593   1.598   1.607   1.619   1.677   1.679   1.715
  3 Au    4 B3g  15 B3u  15 Ag    8 B1u   7 B2g   4 Au   16 Ag                 
  1.740   1.838   1.937   1.981   2.012   2.081   2.103   2.297
  9 B1g  10 B1g  11 B2u  17 Ag    8 B2g  16 B3u  11 B1g  17 B3u                
  2.508   2.736   2.932   2.982   3.029   3.053   3.113   3.154
  9 B1u  12 B2u  18 Ag   18 B3u  19 Ag   12 B1g   9 B2g   5 B3g                
  3.209   3.219   3.228   3.239   3.248   3.287   3.385   3.399
 10 B1u  13 B2u  20 Ag   11 B1u   6 B3g   5 Au   10 B2g  14 B2u                
  3.488   3.507   3.510   3.534   3.696   3.715   3.737   3.739
 19 B3u  13 B1g  15 B2u  21 Ag   14 B1g  12 B1u  22 Ag   11 B2g                
  3.742   3.848   3.851   3.854   3.887   3.896   4.105   4.143
 20 B3u  16 B2u   6 Au    7 B3g  21 B3u  15 B1g  22 B3u  23 Ag                 
  4.150   4.204   4.234   4.304   4.333   4.341   4.400   4.401
 12 B2g  16 B1g  23 B3u  13 B1u  17 B2u   7 Au   24 Ag    8 B3g                
  4.555   4.579   4.679   4.686   4.759   4.777   4.797   4.858
 14 B1u  24 B3u  13 B2g   8 Au   25 Ag   18 B2u  17 B1g  14 B2g                
  4.959   4.962   5.066   5.077   5.191   5.225   5.360   5.432
 25 B3u  15 B1u  26 Ag   18 B1g  19 B2u   9 B3g  26 B3u   9 Au                 
  5.444   5.511   5.612   5.788   5.816   6.221   6.330   6.416
 27 Ag   19 B1g  15 B2g  20 B2u  28 Ag   27 B3u  20 B1g  21 B2u                
  6.667   6.950  13.334  16.544
 28 B3u  21 B1g  29 Ag   29 B3u                                                
 
 Beta MOs, Restricted
 -- Occupied --                  
-11.228 -11.226  -1.040  -0.781  -0.661  -0.568  -0.516  -0.378
  1 Ag    1 B3u   2 Ag    2 B3u   1 B2u   3 Ag    1 B1g   1 B1u                
 -- Virtual --                   
  0.056   0.072   0.079   0.094   0.102   0.106   0.115   0.181
  3 B3u   4 Ag    2 B2u   1 B2g   2 B1u   2 B1g   5 Ag    2 B2g                
  0.189   0.225   0.272   0.275   0.294   0.307   0.313   0.336
  4 B3u   6 Ag    3 B2u   1 B3g   5 B3u   6 B3u   7 Ag    3 B1g                
  0.340   0.348   0.379   0.385   0.416   0.463   0.477   0.565
  4 B2u   8 Ag    1 Au    3 B1u   3 B2g   4 B1g   7 B3u   4 B1u                
  0.608   0.621   0.648   0.649   0.668   0.685   0.695   0.749
  8 B3u   5 B2u   6 B2u   9 Ag    9 B3u  10 Ag    5 B1g  11 Ag                 
  0.781   0.883   0.892   0.908   0.972   1.018   1.022   1.024
  4 B2g   6 B1g   2 B3g  10 B3u   5 B1u   2 Au    6 B1u   7 B2u                
  1.025   1.037   1.162   1.164   1.172   1.176   1.211   1.323
 11 B3u  12 Ag    5 B2g   7 B1g   3 B3g  13 Ag    6 B2g  12 B3u                
  1.338   1.472   1.481   1.491   1.493   1.508   1.547   1.548
  8 B2u   9 B2u  14 Ag   13 B3u   7 B1u   8 B1g  14 B3u  10 B2u                
  1.579   1.593   1.598   1.607   1.619   1.677   1.679   1.715
  3 Au    4 B3g  15 B3u  15 Ag    8 B1u   7 B2g   4 Au   16 Ag                 
  1.740   1.838   1.937   1.981   2.012   2.081   2.103   2.297
  9 B1g  10 B1g  11 B2u  17 Ag    8 B2g  16 B3u  11 B1g  17 B3u                
  2.508   2.736   2.932   2.982   3.029   3.053   3.113   3.154
  9 B1u  12 B2u  18 Ag   18 B3u  19 Ag   12 B1g   9 B2g   5 B3g                
  3.209   3.219   3.228   3.239   3.248   3.287   3.385   3.399
 10 B1u  13 B2u  20 Ag   11 B1u   6 B3g   5 Au   10 B2g  14 B2u                
  3.488   3.507   3.510   3.534   3.696   3.715   3.737   3.739
 19 B3u  13 B1g  15 B2u  21 Ag   14 B1g  12 B1u  22 Ag   11 B2g                
  3.742   3.848   3.851   3.854   3.887   3.896   4.105   4.143
 20 B3u  16 B2u   6 Au    7 B3g  21 B3u  15 B1g  22 B3u  23 Ag                 
  4.150   4.204   4.234   4.304   4.333   4.341   4.400   4.401
 12 B2g  16 B1g  23 B3u  13 B1u  17 B2u   7 Au   24 Ag    8 B3g                
  4.555   4.579   4.679   4.686   4.759   4.777   4.797   4.858
 14 B1u  24 B3u  13 B2g   8 Au   25 Ag   18 B2u  17 B1g  14 B2g                
  4.959   4.962   5.066   5.077   5.191   5.225   5.360   5.432
 25 B3u  15 B1u  26 Ag   18 B1g  19 B2u   9 B3g  26 B3u   9 Au                 
  5.444   5.511   5.612   5.788   5.816   6.221   6.330   6.416
 27 Ag   19 B1g  15 B2g  20 B2u  28 Ag   27 B3u  20 B1g  21 B2u                
  6.667   6.950  13.334  16.544
 28 B3u  21 B1g  29 Ag   29 B3u                                                
 --------------------------------------------------------------
 
          Ground-State Mulliken Net Atomic Charges

     Atom                 Charge (a.u.)
  ----------------------------------------
      1 C                    -0.520470
      2 C                    -0.520470
      3 H                     0.260235
      4 H                     0.260235
      5 H                     0.260235
      6 H                     0.260235
  ----------------------------------------
  Sum of atomic charges =     0.000000

 -----------------------------------------------------------------
                    Cartesian Multipole Moments
 -----------------------------------------------------------------
    Charge (ESU x 10^10)
                -0.0000
    Dipole Moment (Debye)
         X       0.0000      Y       0.0000      Z      -0.0000
       Tot       0.0000
    Quadrupole Moments (Debye-Ang)
        XX     -12.8286     XY      -0.0000     YY     -11.9320
        XZ      -0.0000     YZ      -0.0000     ZZ     -16.1214
    Octopole Moments (Debye-Ang^2)
       XXX      -0.0000    XXY       0.0000    XYY       0.0000
       YYY       0.0000    XXZ      -0.0000    XYZ       0.0000
       YYZ      -0.0000    XZZ      -0.0000    YZZ      -0.0000
       ZZZ      -0.0000
    Hexadecapole Moments (Debye-Ang^3)
      XXXX     -67.8499   XXXY       0.0000   XXYY     -12.9965
      XYYY       0.0000   YYYY     -26.6307   XXXZ       0.0000
      XXYZ      -0.0000   XYYZ       0.0000   YYYZ      -0.0000
      XXZZ     -15.3903   XYZZ       0.0000   YYZZ      -9.0187
      XZZZ       0.0000   YZZZ      -0.0000   ZZZZ     -21.3270
 -----------------------------------------------------------------
 Total job time:  131.94s(wall), 287.93s(cpu) 
 Thu Apr  7 02:34:31 2022

        *************************************************************
        *                                                           *
        *  Thank you very much for using Q-Chem.  Have a nice day.  *
        *                                                           *
        *************************************************************


