/src/tsommerfeld/qchem/exe/qcprog.exe .input1.739394.19377.qcin.1 /src/jdavis/qchem.scratch/qchem19377/

                  Welcome to Q-Chem
     A Quantum Leap Into The Future Of Chemistry


 Q-Chem 5.4 (devel), Q-Chem, Inc., Pleasanton, CA (2021)

 E. Epifanovsky,  A. T. B. Gilbert,  Xintian Feng,  Joonho Lee,  Yuezhi Mao,  
 N. Mardirossian,  P. Pokhilko,  A. White,  M. Wormit,  M. P. Coons,  
 A. L. Dempwolff,  Zhengting Gan,  D. Hait,  P. R. Horn,  L. D. Jacobson,  
 I. Kaliman,  J. Kussmann,  A. W. Lange,  Ka Un Lao,  D. S. Levine,  Jie Liu,  
 S. C. McKenzie,  A. F. Morrison,  K. Nanda,  F. Plasser,  D. R. Rehn,  
 M. L. Vidal,  Zhi-Qiang You,  Ying Zhu,  B. Alam,  B. Albrecht,  
 A. Aldossary,  E. Alguire,  J. H. Andersen,  D. Barton,  K. Begam,  A. Behn,  
 Y. A. Bernard,  E. J. Berquist,  H. Burton,  A. Carreras,  K. Carter-Fenk,  
 R. Chakraborty,  A. D. Chien,  K. D. Closser,  V. Cofer-Shabica,  
 S. Dasgupta,  Jia Deng,  M. de Wergifosse,  M. Diedenhofen,  Hainam Do,  
 S. Ehlert,  Po-Tung Fang,  S. Fatehi,  Qingguo Feng,  T. Friedhoff,  
 J. Gayvert,  Qinghui Ge,  G. Gidofalvi,  M. Goldey,  J. Gomes,  
 C. Gonzalez-Espinoza,  S. Gulania,  A. Gunina,  M. W. D. Hanson-Heine,  
 P. H. P. Harbach,  A. W. Hauser,  M. F. Herbst,  M. Hernandez Vera,  
 M. Hodecker,  Z. C. Holden,  S. Houck,  Xunkun Huang,  Kerwin Hui,  
 B. C. Huynh,  M. Ivanov,  Hyunjun Ji,  Hanjie Jiang,  B. Kaduk,  S. Kaehler,  
 K. Khistyaev,  Jaehoon Kim,  P. Klunzinger,  Z. Koczor-Benda,  
 Joong Hoon Koh,  D. Kosenkov,  L. Koulias,  T. Kowalczyk,  C. M. Krauter,  
 K. Kue,  A. Kunitsa,  T. Kus,  A. Landau,  K. V. Lawler,  D. Lefrancois,  
 S. Lehtola,  Rain Li,  Yi-Pei Li,  Jiashu Liang,  M. Liebenthal,  
 Hung-Hsuan Lin,  You-Sheng Lin,  Fenglai Liu,  Kuan-Yu Liu,  
 M. Loipersberger,  A. Luenser,  A. Manjanath,  P. Manohar,  E. Mansoor,  
 S. F. Manzer,  Shan-Ping Mao,  A. V. Marenich,  T. Markovich,  S. Mason,  
 S. A. Maurer,  P. F. McLaughlin,  M. F. S. J. Menger,  J.-M. Mewes,  
 S. A. Mewes,  P. Morgante,  J. W. Mullinax,  K. J. Oosterbaan,  G. Paran,  
 Alexander C. Paul,  Suranjan K. Paul,  F. Pavosevic,  Zheng Pei,  S. Prager,  
 E. I. Proynov,  E. Ramos,  B. Rana,  A. E. Rask,  A. Rettig,  R. M. Richard,  
 F. Rob,  E. Rossomme,  T. Scheele,  M. Scheurer,  M. Schneider,  
 N. Sergueev,  S. M. Sharada,  W. Skomorowski,  D. W. Small,  C. J. Stein,  
 Yu-Chuan Su,  E. J. Sundstrom,  Zhen Tao,  J. Thirman,  T. Tsuchimochi,  
 N. M. Tubman,  S. P. Veccham,  O. Vydrov,  J. Wenzel,  J. Witte,  A. Yamada,  
 Kun Yao,  S. Yeganeh,  S. R. Yost,  A. Zech,  Igor Ying Zhang,  Xing Zhang,  
 Yu Zhang,  D. Zuev,  A. Aspuru-Guzik,  A. T. Bell,  N. A. Besley,  
 K. B. Bravaya,  B. R. Brooks,  D. Casanova,  Jeng-Da Chai,  S. Coriani,  
 C. J. Cramer,  A. E. DePrince, III,  R. A. DiStasio Jr.,  A. Dreuw,  
 B. D. Dunietz,  T. R. Furlani,  W. A. Goddard III,  S. Grimme,  
 S. Hammes-Schiffer,  T. Head-Gordon,  W. J. Hehre,  Chao-Ping Hsu,  
 T.-C. Jagau,  Yousung Jung,  A. Klamt,  Jing Kong,  D. S. Lambrecht,  
 WanZhen Liang,  N. J. Mayhall,  C. W. McCurdy,  J. B. Neaton,  
 C. Ochsenfeld,  J. A. Parkhill,  R. Peverati,  V. A. Rassolov,  Yihan Shao,  
 L. V. Slipchenko,  T. Stauch,  R. P. Steele,  J. E. Subotnik,  
 A. J. W. Thom,  A. Tkatchenko,  D. G. Truhlar,  T. Van Voorhis,  
 T. A. Wesolowski,  K. B. Whaley,  H. L. Woodcock III,  P. M. Zimmerman,  
 S. Faraji,  P. M. W. Gill,  M. Head-Gordon,  J. M. Herbert,  A. I. Krylov

 Additional authors for Version 5.4.1: 
 S. Kotaru,  Shaozhi Li,  Xiangyuan Li,  F. Matz,  A. Molle,  Haisheng Ren,  
 Yingli Su,  Hung-Yi Tsai,  C. Utku,  Fang Wang

 Contributors to earlier versions of Q-Chem not listed above: 
 R. D. Adamson,  B. Austin,  R. Baer,  J. Baker,  G. J. O. Beran,  
 K. Brandhorst,  S. T. Brown,  E. F. C. Byrd,  A. K. Chakraborty,  
 G. K. L. Chan,  Chun-Min Chang,  Yunqing Chen,  C.-L. Cheng,  
 Siu Hung Chien,  D. M. Chipman,  D. L. Crittenden,  H. Dachsel,  
 R. J. Doerksen,  A. D. Dutoi,  R. G. Edgar,  J. Fosso-Tande,  
 L. Fusti-Molnar,  D. Ghosh,  A. Ghysels,  A. Golubeva-Zadorozhnaya,  
 J. Gonthier,  M. S. Gordon,  S. R. Gwaltney,  G. Hawkins,  J. E. Herr,  
 A. Heyden,  S. Hirata,  E. G. Hohenstein,  G. Kedziora,  F. J. Keil,  
 C. Kelley,  Jihan Kim,  R. A. King,  R. Z. Khaliullin,  P. P. Korambath,  
 W. Kurlancheek,  A. Laurent,  A. M. Lee,  M. S. Lee,  S. V. Levchenko,  
 Ching Yeh Lin,  D. Liotard,  E. Livshits,  R. C. Lochan,  I. Lotan,  
 L. A. Martinez-Martinez,  P. E. Maslen,  N. Nair,  D. P. O'Neill,  
 D. Neuhauser,  E. Neuscamman,  C. M. Oana,  R. Olivares-Amaya,  R. Olson,  
 T. M. Perrine,  B. Peters,  P. A. Pieniazek,  A. Prociuk,  Y. M. Rhee,  
 J. Ritchie,  M. A. Rohrdanz,  E. Rosta,  N. J. Russ,  H. F. Schaefer III,  
 M. W. Schmidt,  N. E. Schultz,  S. Sharma,  N. Shenvi,  C. D. Sherrill,  
 A. C. Simmonett,  A. Sodt,  T. Stein,  D. Stuck,  K. S. Thanthiriwatte,  
 V. Vanovschi,  L. Vogt,  Tao Wang,  A. Warshel,  M. A. Watson,  
 C. F. Williams,  Q. Wu,  X. Xu,  Jun Yang,  W. Zhang,  Yan Zhao

 Please cite Q-Chem as follows:
 Y. Shao et al., Mol. Phys. 113, 184-215 (2015)
 DOI: 10.1080/00268976.2014.952696

 Q-Chem 5.4.1 for Intel X86 EM64T Linux

 Parts of Q-Chem use Armadillo 9.900.5 (Nocturnal Misbehaviour).
 http://arma.sourceforge.net/

 Q-Chem begins on Sat Mar  5 01:07:03 2022  

 Host: node01
0

     Scratch files written to /src/jdavis/qchem.scratch/qchem19377//
 Processing $rem in /src/tsommerfeld/qchem/config/preferences:
 Processing $rem in /home/jdavis/.qchemrc:

 Checking the input file for inconsistencies... 	...done.

--------------------------------------------------------------
User input:
--------------------------------------------------------------
$molecule
-1 1
C        -0.6645000000    0.0000000000    1.1619088658
C         0.6645000000    0.0000000000    1.1619088658
H        -1.1590800000    0.0000000000    0.1995598658
H         1.1590800000    0.0000000000    0.1995598658
H        -1.1590800000    0.0000000000    2.1242568658
H         1.1590800000    0.0000000000    2.1242568658
O         0.0000000000    0.0000000000   -1.5841414040
H         0.0000000000    0.0000000000   -2.5471307683
$end
$rem
   METHOD adc(2)
   BASIS gen
   PURECART 11
   EE_STATES [0,0,0,10]
   scf_convergence 8
   ADC_DAVIDSON_MAXITER 120
   ADC_DAVIDSON_MAXSUBSPACE 200
   adc_nguess_singles 100
   THRESH 14
   S2THRESH 14
   adc_davidson_conv 5
   adc_davidson_thresh 14
   THREADS 10
   MEM_TOTAL 95000
   STATE_ANALYSIS TRUE
$end
$basis
C 1
S   9   1.00
      6.665000D+03           6.920000D-04
      1.000000D+03           5.329000D-03
      2.280000D+02           2.707700D-02
      6.471000D+01           1.017180D-01
      2.106000D+01           2.747400D-01
      7.495000D+00           4.485640D-01
      2.797000D+00           2.850740D-01
      5.215000D-01           1.520400D-02
      1.596000D-01          -3.191000D-03
S   9   1.00
      6.665000D+03          -1.460000D-04
      1.000000D+03          -1.154000D-03
      2.280000D+02          -5.725000D-03
      6.471000D+01          -2.331200D-02
      2.106000D+01          -6.395500D-02
      7.495000D+00          -1.499810D-01
      2.797000D+00          -1.272620D-01
      5.215000D-01           5.445290D-01
      1.596000D-01           5.804960D-01
S   1   1.00
      1.596000D-01           1.000000D+00
S   1   1.00
      0.0469000              1.0000000
P   4   1.00
      9.439000D+00           3.810900D-02
      2.002000D+00           2.094800D-01
      5.456000D-01           5.085570D-01
      1.517000D-01           4.688420D-01
P   1   1.00
      1.517000D-01           1.000000D+00
P   1   1.00
      0.0753903      1.0000000
P   1   1.00
      0.0376952      1.0000000
P   1   1.00
      0.0188476      1.0000000
D   1   1.00
      5.500000D-01           1.0000000
****
C 2
S   9   1.00
      6.665000D+03           6.920000D-04
      1.000000D+03           5.329000D-03
      2.280000D+02           2.707700D-02
      6.471000D+01           1.017180D-01
      2.106000D+01           2.747400D-01
      7.495000D+00           4.485640D-01
      2.797000D+00           2.850740D-01
      5.215000D-01           1.520400D-02
      1.596000D-01          -3.191000D-03
S   9   1.00
      6.665000D+03          -1.460000D-04
      1.000000D+03          -1.154000D-03
      2.280000D+02          -5.725000D-03
      6.471000D+01          -2.331200D-02
      2.106000D+01          -6.395500D-02
      7.495000D+00          -1.499810D-01
      2.797000D+00          -1.272620D-01
      5.215000D-01           5.445290D-01
      1.596000D-01           5.804960D-01
S   1   1.00
      1.596000D-01           1.000000D+00
S   1   1.00
      0.0469000              1.0000000
P   4   1.00
      9.439000D+00           3.810900D-02
      2.002000D+00           2.094800D-01
      5.456000D-01           5.085570D-01
      1.517000D-01           4.688420D-01
P   1   1.00
      1.517000D-01           1.000000D+00
P   1   1.00
      0.0753903      1.0000000
P   1   1.00
      0.0376952      1.0000000
P   1   1.00
      0.0188476      1.0000000
D   1   1.00
      5.500000D-01           1.0000000
****
H 3
cc-pVDZ
****
H 4
cc-pVDZ
****
H 5
cc-pVDZ
****
H 6
cc-pVDZ
****
O 7
aug-cc-pVDZ
****
H 8
cc-pVDZ
****
$end
--------------------------------------------------------------
 ----------------------------------------------------------------
             Standard Nuclear Orientation (Angstroms)
    I     Atom           X                Y                Z
 ----------------------------------------------------------------
    1      C      -0.6645000000    -0.0000000000     1.0270977517
    2      C       0.6645000000     0.0000000000     1.0270977517
    3      H      -1.1590800000    -0.0000000000     0.0647487517
    4      H       1.1590800000     0.0000000000     0.0647487517
    5      H      -1.1590800000    -0.0000000000     1.9894457517
    6      H       1.1590800000     0.0000000000     1.9894457517
    7      O       0.0000000000    -0.0000000000    -1.7189525181
    8      H       0.0000000000    -0.0000000000    -2.6819418824
 ----------------------------------------------------------------
 Molecular Point Group                 C2v   NOp =  4
 Largest Abelian Subgroup              C2v   NOp =  4
 Nuclear Repulsion Energy =          64.38561153 hartrees
 There are       13 alpha and       13 beta electrons
 Requested basis set is non-standard
 There are 44 shells and 96 basis functions
 Total memory of 95000 MB is distributed as follows: 
   MEM_STATIC is set to 192 MB
   QALLOC/CCMAN JOB total memory use is  94808 MB
 Warning: actual memory use might exceed 95000 MB

 Total QAlloc Memory Limit  95000 MB
 Mega-Array Size       188 MB
 MEM_STATIC part       192 MB

                       Distance Matrix (Angstroms)
             C (  1)   C (  2)   H (  3)   H (  4)   H (  5)   H (  6)
   C (  2)  1.329000
   H (  3)  1.082000  2.061931
   H (  4)  2.061931  1.082000  2.318160
   H (  5)  1.082000  2.061931  1.924697  3.013026
   H (  6)  2.061931  1.082000  3.013026  1.924697  2.318160
   O (  7)  2.825306  2.825306  2.127218  2.127218  3.885316  3.885316
   H (  8)  3.768094  3.768094  2.981237  2.981237  4.813037  4.813037
             O (  7)
   H (  8)  0.962989
 
 A cutoff of  1.0D-14 yielded    990 shell pairs
 There are      4750 function pairs (      5164 Cartesian)
 Smallest overlap matrix eigenvalue = 1.71E-04

 Scale SEOQF with 1.000000e-01/1.000000e-01/1.000000e-01

 Standard Electronic Orientation quadrupole field applied
 Nucleus-field energy     =    -0.0000000051 hartrees
 ================ Generating on-the-fly SAD Guess ================
Attempting to make child job directory: /src/jdavis/qchem.scratch/qchem19377//Frg1/
Attempting to make child job directory: /src/jdavis/qchem.scratch/qchem19377//Frg2/
Attempting to make child job directory: /src/jdavis/qchem.scratch/qchem19377//Frg3/
Creating input file /src/jdavis/qchem.scratch/qchem19377/Frg1.input
using default PutDataFrgm: nothing
calling putenv with: QCSCRATCH=/src/jdavis/qchem.scratch/qchem19377/ 
Spawning Job For Fragment 0
Done Job For Fragment 0
calling putenv with: QCSCRATCH=/src/jdavis/qchem.scratch 
calling putenv with: QCTHREADS=1 
Creating input file /src/jdavis/qchem.scratch/qchem19377/Frg2.input
using default PutDataFrgm: nothing
calling putenv with: QCSCRATCH=/src/jdavis/qchem.scratch/qchem19377/ 
Spawning Job For Fragment 1
Done Job For Fragment 1
calling putenv with: QCSCRATCH=/src/jdavis/qchem.scratch 
calling putenv with: QCTHREADS=1 
Creating input file /src/jdavis/qchem.scratch/qchem19377/Frg3.input
using default PutDataFrgm: nothing
calling putenv with: QCSCRATCH=/src/jdavis/qchem.scratch/qchem19377/ 
Spawning Job For Fragment 2
Done Job For Fragment 2
calling putenv with: QCSCRATCH=/src/jdavis/qchem.scratch 
calling putenv with: QCTHREADS=1 
 Time for running child jobs:  CPU 1.80 s  wall 80.88 s
 ============= Method Specific SAD Guess Constructed =============
 Guess from on-the-fly superposition of atomic densities
 Warning: Energy on first SCF cycle will be non-variational
 A restricted Hartree-Fock SCF calculation will be
 performed using Pulay DIIS extrapolation
 SCF converges when DIIS error is below 1.0E-08
 using 10 threads for integral computing
 -------------------------------------------------------
 OpenMP Integral computing Module                
 Release: version 1.0, May 2013, Q-Chem Inc. Pittsburgh 
 -------------------------------------------------------
 ---------------------------------------
  Cycle       Energy         DIIS Error
 ---------------------------------------
    1    -153.5754115863      5.61E-02
    2    -153.2899976137      1.15E-02
    3    -153.3540224804      9.70E-03
    4    -153.4404336176      7.27E-04
    5    -153.4413942101      2.00E-04
    6    -153.4414700193      4.38E-05
    7    -153.4414755758      1.17E-05
    8    -153.4414761678      3.51E-06
    9    -153.4414762180      6.81E-07
   10    -153.4414762197      1.23E-07
   11    -153.4414762198      3.90E-08
   12    -153.4414762197      1.28E-08
   13    -153.4414762198      2.58E-09 Convergence criterion met
 ---------------------------------------
 SCF time:  CPU 15.74 s  wall 1.58 s
 SCF   energy in the final basis set = -153.44147622
 Total energy in the final basis set = -153.44147622
================================================================================
|                                                                              |
|                                 A D C  M A N                                 |
|                                                                              |
 ------------------------------------------------------------------------------ 
|                                                                              |
| Components:                                                                  |
|                                                                              |
| - libvmm - 1.3-trunk                                                         |
|   Authors:                                                                   |
|   Evgeny Epifanovsky, Ilya Kaliman                                           |
|                                                                              |
| - libtensor - 2.5-trunk                                                      |
|   Authors:                                                                   |
|   Evgeny Epifanovsky, Michael Wormit, Dmitry Zuev, Sam Manzer,               |
|   Ilya Kaliman                                                               |
|                                                                              |
| - libwfa - 1.1-trunk                                                         |
|   Authors:                                                                   |
|   Felix Plasser, Stefanie Mewes (Baeppler), Benjamin Thomitzni,              |
|   Michael Wormit, Feng Chen, Anna I. Krylov, Pavel Pokhilko                  |
|                                                                              |
| - libadc - 1.1-trunk                                                         |
|   Authors:                                                                   |
|   Michael Wormit, Adrian L. Dempwolff, Philipp H. P. Harbach,                |
|   Caroline Krauter, Dirk Rehn, Matthias Schneider, Jan Wenzel                |
|                                                                              |
| - adcman - 2.6-trunk                                                         |
|   Authors:                                                                   |
|   Michael Wormit, Adrian L. Dempwolff, Philipp H. P. Harbach,                |
|   Caroline Krauter, Daniel Lefrancois, Jan-Michael Mewes, Dirk Rehn,         |
|   Matthias Schneider, Jan Wenzel, Andreas Dreuw                              |
|                                                                              |
| Authors of earlier versions of ADCMAN:                                       |
| Andreas Dreuw, Jan Hendrik Starcke, Dirk Rehn, Michael Wormit                |
|                                                                              |
================================================================================

 
 Alpha MOs, Restricted
 -- Occupied --                  
-20.213 -11.049 -11.047  -0.930  -0.854  -0.598  -0.473  -0.384
  1 A1    2 A1    1 B1    3 A1    4 A1    2 B1    5 A1    6 A1                 
 -0.328  -0.271  -0.194  -0.130  -0.129
  3 B1    7 A1    1 B2    4 B1    2 B2                                         
 -- Virtual --                   
  0.121   0.134   0.136   0.141   0.148   0.154   0.212   0.236
  5 B1    8 A1    3 B2    1 A2    9 A1    6 B1   10 A1    7 B1                 
  0.261   0.267   0.271   0.287   0.327   0.338   0.363   0.375
  2 A2   11 A1    4 B2    8 B1   12 A1   13 A1    3 A2    9 B1                 
  0.447   0.455   0.471   0.498   0.509   0.523   0.535   0.556
  5 B2   14 A1   10 B1   15 A1   11 B1   16 A1   12 B1    6 B2                 
  0.580   0.580   0.616   0.622   0.701   0.730   0.797   1.010
 17 A1   13 B1   18 A1    4 A2   19 A1   14 B1   15 B1   20 A1                 
  1.047   1.131   1.133   1.171   1.200   1.216   1.281   1.291
 21 A1   16 B1   22 A1   23 A1    7 B2   17 B1   24 A1    5 A2                 
  1.311   1.321   1.335   1.340   1.341   1.352   1.371   1.476
 18 B1    8 B2   25 A1   19 B1   26 A1    6 A2    9 B2   10 B2                 
  1.483   1.500   1.658   1.668   1.719   1.753   1.877   1.947
  7 A2   20 B1   21 B1   27 A1   11 B2   22 B1   28 A1   23 B1                 
  2.032   2.066   2.132   2.154   2.179   2.213   2.265   2.340
 29 A1    8 A2   12 B2   30 A1   24 B1   13 B2   31 A1   32 A1                 
  2.368   2.395   2.440   2.530   2.579   2.604   2.771   2.773
  9 A2   14 B2   25 B1   26 B1   33 A1   10 A2   34 A1   27 B1                 
  2.854   3.048   3.066   3.120   3.471   3.569   3.923   3.946
 28 B1   35 A1   36 A1   37 A1   29 B1   30 B1   15 B2   11 A2                 
  3.972   4.090   4.546
 38 A1   31 B1   39 A1                                                         
 
 Beta MOs, Restricted
 -- Occupied --                  
-20.213 -11.049 -11.047  -0.930  -0.854  -0.598  -0.473  -0.384
  1 A1    2 A1    1 B1    3 A1    4 A1    2 B1    5 A1    6 A1                 
 -0.328  -0.271  -0.194  -0.130  -0.129
  3 B1    7 A1    1 B2    4 B1    2 B2                                         
 -- Virtual --                   
  0.121   0.134   0.136   0.141   0.148   0.154   0.212   0.236
  5 B1    8 A1    3 B2    1 A2    9 A1    6 B1   10 A1    7 B1                 
  0.261   0.267   0.271   0.287   0.327   0.338   0.363   0.375
  2 A2   11 A1    4 B2    8 B1   12 A1   13 A1    3 A2    9 B1                 
  0.447   0.455   0.471   0.498   0.509   0.523   0.535   0.556
  5 B2   14 A1   10 B1   15 A1   11 B1   16 A1   12 B1    6 B2                 
  0.580   0.580   0.616   0.622   0.701   0.730   0.797   1.010
 17 A1   13 B1   18 A1    4 A2   19 A1   14 B1   15 B1   20 A1                 
  1.047   1.131   1.133   1.171   1.200   1.216   1.281   1.291
 21 A1   16 B1   22 A1   23 A1    7 B2   17 B1   24 A1    5 A2                 
  1.311   1.321   1.335   1.340   1.341   1.352   1.371   1.476
 18 B1    8 B2   25 A1   19 B1   26 A1    6 A2    9 B2   10 B2                 
  1.483   1.500   1.658   1.668   1.719   1.753   1.877   1.947
  7 A2   20 B1   21 B1   27 A1   11 B2   22 B1   28 A1   23 B1                 
  2.032   2.066   2.132   2.154   2.179   2.213   2.265   2.340
 29 A1    8 A2   12 B2   30 A1   24 B1   13 B2   31 A1   32 A1                 
  2.368   2.395   2.440   2.530   2.579   2.604   2.771   2.773
  9 A2   14 B2   25 B1   26 B1   33 A1   10 A2   34 A1   27 B1                 
  2.854   3.048   3.066   3.120   3.471   3.569   3.923   3.946
 28 B1   35 A1   36 A1   37 A1   29 B1   30 B1   15 B2   11 A2                 
  3.972   4.090   4.546
 38 A1   31 B1   39 A1                                                         

--------------------------------------------------------------------------------
                                   HF Summary                                   
--------------------------------------------------------------------------------
  Energy:                                                 -153.4414762198 a.u.
  Dip. moment [a.u.]:                  [  -0.000000,   -0.000000,    2.079636]
  Total dipole [Debye]:                                               5.285909
  <r^2> [a.u.]:                        [  55.706876,   19.716973,  208.063832]
  Total <r^2> [a.u.]:                                               283.487682
--------------------------------------------------------------------------------

--------------------------------------------------------------------------------
                                 MP(2) Summary                                  
--------------------------------------------------------------------------------
  MP energy contribution:                                   -0.5296619362 a.u.
  Total energy:                                           -153.9711381560 a.u.
  Dip. moment [a.u.]:                  [   0.000000,   -0.000000,    2.149829]
  Total dipole [Debye]:                                               5.464322
  <r^2> [a.u.]:                        [  56.708008,   20.418972,  209.358177]
  Total <r^2> [a.u.]:                                               286.485157

  Density matrix analysis:
  ------------------------
  NOs
    Occupation of frontier NOs:
       0.0447   1.9355
    Number of electrons: 26.000000
    Number of unpaired electrons: n_u =  0.71584, n_u,nl =  0.08550
    NO participation ratio (PR_NO): 23.012480
  
  
  Mulliken Population Analysis
  Atom      Charge (e)              h+              e-           Del q
  --------------------------------------------------------------------
   1 C       -0.237767        0.094601       -0.098307       -0.003705
   2 C       -0.237767        0.094601       -0.098307       -0.003705
   3 H        0.209784        0.017401       -0.011672        0.005728
   4 H        0.209784        0.017401       -0.011672        0.005728
   5 H        0.039032        0.019070       -0.012286        0.006783
   6 H        0.039032        0.019070       -0.012286        0.006783
   7 O       -1.075137        0.278708       -0.279480       -0.000772
   8 H        0.053040        0.015308       -0.032148       -0.016840
  --------------------------------------------------------------------
  Sum:       -1.000000        0.556158       -0.556158        0.000000
  
  Multipole moment analysis of the density matrix
    Molecular charge:                      -1.000000
    Number of electrons:                   26.000000
      Center of electronic charge [Ang]: [ -0.000000,   0.000000,  -0.043755]
    Total nuclear charge:                  25.000000
      Center of nuclear charge [Ang]:    [  0.000000,   0.000000,  -0.000000]
    Dipole moment [D]:                     5.464321
      Cartesian components [D]:          [  0.000000,  -0.000000,   5.464321]
    RMS size of the density [Ang]:         1.756025
      Cartesian components [Ang]:        [  0.781514,   0.468955,   1.500980]
  
  Exciton analysis of the difference density matrix
    <r_h> [Ang]:                  [ -0.000000,   0.000000,  -0.482865]
    <r_e> [Ang]:                  [ -0.000000,   0.000000,  -0.549653]
    |<r_e - r_h>| [Ang]:            0.066788
    Hole size [Ang]:                1.975138
      Cartesian components [Ang]: [  0.894006,   0.763424,   1.587169]
    Electron size [Ang]:            2.311158
      Cartesian components [Ang]: [  1.141631,   0.967614,   1.761208]
--------------------------------------------------------------------------------
  Starting Davidson for singlet states of irrep B2 ... 
--------------------------------------------------------------------------------
   It NVec Conv  Avg. Norm  Max. Norm  Conv. states           Remark
--------------------------------------------------------------------------------
       100    0  1.523e-01  5.598e-01  0.2325 n n n n n n n n Guess.
    1  110    0  1.509e-02  7.852e-02  0.0614 n n n n n n n n 
    2  120    0  5.844e-03  4.075e-02  0.0602 n n n n n n n n 
    3  130    0  5.913e-03  5.808e-02  0.0602 n n n n n n n n 
    4  140    0  1.216e-02  1.189e-01  0.0602 n n n n n n n n 
    5  150    2  1.924e-03  1.906e-02  0.0602 y n y n n n n n 
    6  160    5  2.651e-04  2.628e-03  0.0602 y y y y n n y n 
    7  170    8  3.637e-05  3.608e-04  0.0602 y y y y y y y y 
    8  180    9  5.717e-06  5.680e-05  0.0602 y y y y y y y y 
    9  190   10  5.192e-07  5.105e-06  0.0602 y y y y y y y y Converged.
--------------------------------------------------------------------------------
  Davidson Summary: 
 ------------------------------------------------------------
  State  0: excitation energy =   0.0602 a.u.   (converged)
  State  1: excitation energy =   0.0768 a.u.   (converged)
  State  2: excitation energy =   0.0810 a.u.   (converged)
  State  3: excitation energy =   0.1086 a.u.   (converged)
  State  4: excitation energy =   0.1423 a.u.   (converged)
  State  5: excitation energy =   0.1627 a.u.   (converged)
  State  6: excitation energy =   0.1689 a.u.   (converged)
  State  7: excitation energy =   0.2065 a.u.   (converged)
  State  8: excitation energy =   0.2159 a.u.   (converged)
  State  9: excitation energy =   0.2203 a.u.   (converged)
 ------------------------------------------------------------


--------------------------------------------------------------------------------
                   State-averaged natural transition orbitals
--------------------------------------------------------------------------------
--------------------------------------------------------------------------------

--------------------------------------------------------------------------------
                             Excited State Summary
--------------------------------------------------------------------------------
--------------------------------------------------------------------------------

  Excited state 1 (singlet, B2)                                    [converged]
  ----------------------------------------------------------------------------
  Term symbol:  1 (1) B2                                    R^2 =  6.81053e-10

  Total energy:                                           -153.9109724970 a.u.
  Excitation energy:                                               1.637191 eV

  Osc. strength:                                                      0.009679
  Trans. dip. moment [a.u.]:           [  -0.000000,   -0.491242,   -0.000000]
  <i|r^2|0> [a.u.]:                    [   0.000000,   -0.000000,    0.000000]

  Dip. moment [a.u.]:                  [  -0.000000,   -0.000000,   -3.681380]
  Total dipole [Debye]:                                               9.357136
  <r^2> [a.u.]:                        [  77.068169,   39.071942,  263.273164]
  Total <r^2> [a.u.]:                                               379.413275

  V1^2 = 0.8688, V2^2 = 0.1312

  Important amplitudes:
      occ i      occ j       vir a       vir b          v   
    ---------------------------------------------------------
     2 (B2) A               8 (A1) A                 -0.6267
     2 (B2) A              12 (A1) A                 -0.1348
    ---------------------------------------------------------

  Density matrix analysis:
  ------------------------
  NOs
    Occupation of frontier NOs:
       0.9609   0.9986
    Number of electrons: 26.000000
    Number of unpaired electrons: n_u =  2.74817, n_u,nl =  2.11503
    NO participation ratio (PR_NO):  3.869702
  
  
  Mulliken Population Analysis
  Atom      Charge (e)              h+              e-           Del q
  --------------------------------------------------------------------
   1 C       -0.756054        0.031602       -0.549889       -0.518287
   2 C       -0.756054        0.031602       -0.549889       -0.518287
   3 H        0.170655       -0.000516       -0.038613       -0.039129
   4 H        0.170655       -0.000516       -0.038613       -0.039129
   5 H        0.077568        0.039983       -0.001448        0.038536
   6 H        0.077568        0.039983       -0.001448        0.038536
   7 O       -0.136028        1.406285       -0.467176        0.939109
   8 H        0.151691        0.140774       -0.042122        0.098652
  --------------------------------------------------------------------
  Sum:       -1.000000        1.689198       -1.689198        0.000000
  
  Multipole moment analysis of the density matrix
    Molecular charge:                      -1.000000
    Number of electrons:                   26.000000
      Center of electronic charge [Ang]: [  0.000000,   0.000000,   0.074927]
    Total nuclear charge:                  25.000000
      Center of nuclear charge [Ang]:    [  0.000000,   0.000000,  -0.000000]
    Dipole moment [D]:                     9.357133
      Cartesian components [D]:          [ -0.000000,  -0.000000,  -9.357133]
    RMS size of the density [Ang]:         2.020097
      Cartesian components [Ang]:        [  0.911070,   0.648705,   1.682238]
  
  Exciton analysis of the difference density matrix
    <r_h> [Ang]:                  [ -0.000000,  -0.000000,  -1.471316]
    <r_e> [Ang]:                  [  0.000000,   0.000000,   0.355435]
    |<r_e - r_h>| [Ang]:            1.826750
    Hole size [Ang]:                1.805937
      Cartesian components [Ang]: [  0.852129,   0.890591,   1.319899]
    Electron size [Ang]:            4.550286
      Cartesian components [Ang]: [  2.025179,   1.971134,   3.566284]

  Transition density matrix analysis:
  -----------------------------------
  
  CT numbers (Mulliken)
    omega =     0.8538
    <Phe> =    -0.0013
  
  Exciton analysis of the transition density matrix
    Trans. dipole moment [D]:             0.624307
      Cartesian components [D]:         [ -0.000000,  -0.624307,  -0.000000]
    <r_h> [Ang]:                        [ -0.000000,  -0.000000,  -1.744689]
    <r_e> [Ang]:                        [  0.000000,   0.000000,   1.402368]
    |<r_e - r_h>| [Ang]:                  3.147057
    Hole size [Ang]:                      1.098228
      Cartesian components [Ang]:       [  0.478787,   0.826389,   0.542171]
    Electron size [Ang]:                  5.475163
      Cartesian components [Ang]:       [  2.519191,   2.482822,   4.179317]
    RMS electron-hole separation [Ang]:   6.408202
      Cartesian components [Ang]:       [  2.564046,   2.615706,   5.258213]
    Covariance(r_h, r_e) [Ang^2]:         0.011215
    Correlation coefficient:              0.001865
    Center-of-mass size [Ang]:            2.793114
      Cartesian components [Ang]:       [  1.282262,   1.308885,   2.108106]

  Decomposition into state-averaged NTOs
    H- 0 -> L+ 0:  0.5376 ( 57.8%)
    H- 0 -> L+ 6:  0.2771 ( 15.4%)
    H- 0 -> L+ 1:  0.1920 (  7.4%)
    H- 0 -> L+ 2: -0.1139 (  2.6%)
    H- 0 -> L+ 7: -0.1019 (  2.1%)
                   omega =  85.4%
  ----------------------------------------------------------------------------


  Excited state 2 (singlet, B2)                                    [converged]
  ----------------------------------------------------------------------------
  Term symbol:  2 (1) B2                                    R^2 =  1.17517e-09

  Total energy:                                           -153.8943264589 a.u.
  Excitation energy:                                               2.090153 eV

  Osc. strength:                                                      0.002017
  Trans. dip. moment [a.u.]:           [  -0.000000,    0.198466,   -0.000000]
  <i|r^2|0> [a.u.]:                    [  -0.000000,    0.000000,   -0.000000]

  Dip. moment [a.u.]:                  [  -0.000000,   -0.000000,   -2.881030]
  Total dipole [Debye]:                                               7.322850
  <r^2> [a.u.]:                        [ 106.538180,   70.898225,  215.145473]
  Total <r^2> [a.u.]:                                               392.581878

  V1^2 = 0.8656, V2^2 = 0.1344

  Important amplitudes:
      occ i      occ j       vir a       vir b          v   
    ---------------------------------------------------------
     4 (B1) A               1 (A2) A                 -0.6495
     4 (B1) A               2 (A2) A                  0.1017
    ---------------------------------------------------------

  Density matrix analysis:
  ------------------------
  NOs
    Occupation of frontier NOs:
       0.9606   0.9989
    Number of electrons: 26.000000
    Number of unpaired electrons: n_u =  2.75144, n_u,nl =  2.11608
    NO participation ratio (PR_NO):  3.878304
  
  
  Mulliken Population Analysis
  Atom      Charge (e)              h+              e-           Del q
  --------------------------------------------------------------------
   1 C       -0.727115        0.044670       -0.534019       -0.489348
   2 C       -0.727115        0.044670       -0.534019       -0.489348
   3 H        0.160296       -0.004801       -0.044686       -0.049487
   4 H        0.160296       -0.004801       -0.044686       -0.049487
   5 H        0.072983        0.035159       -0.001207        0.033951
   6 H        0.072983        0.035159       -0.001207        0.033951
   7 O       -0.177984        1.414174       -0.517021        0.897153
   8 H        0.165655        0.137232       -0.024616        0.112616
  --------------------------------------------------------------------
  Sum:       -1.000000        1.701462       -1.701462        0.000000
  
  Multipole moment analysis of the density matrix
    Molecular charge:                      -1.000000
    Number of electrons:                   26.000000
      Center of electronic charge [Ang]: [  0.000000,   0.000000,   0.058638]
    Total nuclear charge:                  25.000000
      Center of nuclear charge [Ang]:    [  0.000000,   0.000000,  -0.000000]
    Dipole moment [D]:                     7.322848
      Cartesian components [D]:          [ -0.000000,  -0.000000,  -7.322848]
    RMS size of the density [Ang]:         2.055431
      Cartesian components [Ang]:        [  1.071191,   0.873840,   1.521101]
  
  Exciton analysis of the difference density matrix
    <r_h> [Ang]:                  [ -0.000000,  -0.000000,  -1.470541]
    <r_e> [Ang]:                  [  0.000000,   0.000000,   0.094124]
    |<r_e - r_h>| [Ang]:            1.564664
    Hole size [Ang]:                1.800021
      Cartesian components [Ang]: [  0.940199,   0.798924,   1.310657]
    Electron size [Ang]:            4.780714
      Cartesian components [Ang]: [  3.014147,   2.991022,   2.196345]

  Transition density matrix analysis:
  -----------------------------------
  
  CT numbers (Mulliken)
    omega =     0.8507
    <Phe> =     0.0001
  
  Exciton analysis of the transition density matrix
    Trans. dipole moment [D]:             0.252225
      Cartesian components [D]:         [ -0.000000,   0.252225,  -0.000000]
    <r_h> [Ang]:                        [  0.000000,   0.000000,  -1.726621]
    <r_e> [Ang]:                        [  0.000000,   0.000000,   1.027305]
    |<r_e - r_h>| [Ang]:                  2.753926
    Hole size [Ang]:                      1.141759
      Cartesian components [Ang]:       [  0.827163,   0.472303,   0.629558]
    Electron size [Ang]:                  5.884912
      Cartesian components [Ang]:       [  3.866715,   3.841558,   2.218813]
    RMS electron-hole separation [Ang]:   6.595990
      Cartesian components [Ang]:       [  3.952705,   3.870353,   3.592154]
    Covariance(r_h, r_e) [Ang^2]:         0.006413
    Correlation coefficient:              0.000954
    Center-of-mass size [Ang]:            2.997859
      Cartesian components [Ang]:       [  1.977846,   1.935306,   1.153201]

  Decomposition into state-averaged NTOs
    H- 1 -> L+ 5: -0.6442 ( 83.0%)
    H- 1 -> L+ 8:  0.1003 (  2.0%)
                   omega =  85.1%
  ----------------------------------------------------------------------------


  Excited state 3 (singlet, B2)                                    [converged]
  ----------------------------------------------------------------------------
  Term symbol:  3 (1) B2                                    R^2 =  4.72570e-10

  Total energy:                                           -153.8901046735 a.u.
  Excitation energy:                                               2.205033 eV

  Osc. strength:                                                      0.002514
  Trans. dip. moment [a.u.]:           [  -0.000000,   -0.215725,   -0.000000]
  <i|r^2|0> [a.u.]:                    [  -0.000000,   -0.000000,   -0.000000]

  Dip. moment [a.u.]:                  [  -0.000000,    0.000000,   -3.176558]
  Total dipole [Debye]:                                               8.074005
  <r^2> [a.u.]:                        [ 137.421255,   37.078678,  215.862595]
  Total <r^2> [a.u.]:                                               390.362528

  V1^2 = 0.8654, V2^2 = 0.1346

  Important amplitudes:
      occ i      occ j       vir a       vir b          v   
    ---------------------------------------------------------
     2 (B2) A               9 (A1) A                 -0.6426
     2 (B2) A               8 (A1) A                  0.1009
    ---------------------------------------------------------

  Density matrix analysis:
  ------------------------
  NOs
    Occupation of frontier NOs:
       0.9602   0.9989
    Number of electrons: 26.000000
    Number of unpaired electrons: n_u =  2.75209, n_u,nl =  2.11690
    NO participation ratio (PR_NO):  3.881301
  
  
  Mulliken Population Analysis
  Atom      Charge (e)              h+              e-           Del q
  --------------------------------------------------------------------
   1 C       -0.753779        0.035928       -0.551940       -0.516012
   2 C       -0.753779        0.035928       -0.551940       -0.516012
   3 H        0.175403        0.001408       -0.035789       -0.034381
   4 H        0.175403        0.001408       -0.035789       -0.034381
   5 H        0.076072        0.037719       -0.000679        0.037040
   6 H        0.076072        0.037719       -0.000679        0.037040
   7 O       -0.146476        1.415652       -0.486991        0.928661
   8 H        0.151082        0.137432       -0.039390        0.098042
  --------------------------------------------------------------------
  Sum:       -1.000000        1.703196       -1.703196        0.000000
  
  Multipole moment analysis of the density matrix
    Molecular charge:                      -1.000000
    Number of electrons:                   26.000000
      Center of electronic charge [Ang]: [  0.000000,  -0.000000,   0.064652]
    Total nuclear charge:                  25.000000
      Center of nuclear charge [Ang]:    [  0.000000,   0.000000,  -0.000000]
    Dipole moment [D]:                     8.074003
      Cartesian components [D]:          [ -0.000000,   0.000000,  -8.074003]
    RMS size of the density [Ang]:         2.049427
      Cartesian components [Ang]:        [  1.216582,   0.631941,   1.523395]
  
  Exciton analysis of the difference density matrix
    <r_h> [Ang]:                  [ -0.000000,  -0.000000,  -1.479611]
    <r_e> [Ang]:                  [  0.000000,  -0.000000,   0.175279]
    |<r_e - r_h>| [Ang]:            1.654890
    Hole size [Ang]:                1.796280
      Cartesian components [Ang]: [  0.864362,   0.889972,   1.299020]
    Electron size [Ang]:            4.739620
      Cartesian components [Ang]: [  3.743992,   1.879130,   2.217069]

  Transition density matrix analysis:
  -----------------------------------
  
  CT numbers (Mulliken)
    omega =     0.8508
    <Phe> =    -0.0001
  
  Exciton analysis of the transition density matrix
    Trans. dipole moment [D]:             0.274159
      Cartesian components [D]:         [ -0.000000,  -0.274159,  -0.000000]
    <r_h> [Ang]:                        [ -0.000000,  -0.000000,  -1.744069]
    <r_e> [Ang]:                        [  0.000000,  -0.000000,   1.162255]
    |<r_e - r_h>| [Ang]:                  2.906324
    Hole size [Ang]:                      1.100047
      Cartesian components [Ang]:       [  0.479195,   0.827192,   0.544269]
    Electron size [Ang]:                  5.806614
      Cartesian components [Ang]:       [  4.824664,   2.372492,   2.193322]
    RMS electron-hole separation [Ang]:   6.585409
      Cartesian components [Ang]:       [  4.848198,   2.511999,   3.681366]
    Covariance(r_h, r_e) [Ang^2]:         0.002988
    Correlation coefficient:              0.000468
    Center-of-mass size [Ang]:            2.955201
      Cartesian components [Ang]:       [  2.424304,   1.256562,   1.130049]

  Decomposition into state-averaged NTOs
    H- 0 -> L+ 7:  0.4737 ( 44.9%)
    H- 0 -> L+ 3: -0.3610 ( 26.1%)
    H- 0 -> L+ 6:  0.2395 ( 11.5%)
    H- 0 -> L+ 2: -0.0821 (  1.3%)
                   omega =  85.1%
  ----------------------------------------------------------------------------


  Excited state 4 (singlet, B2)                                    [converged]
  ----------------------------------------------------------------------------
  Term symbol:  4 (1) B2                                    R^2 =  2.98687e-09

  Total energy:                                           -153.8624984333 a.u.
  Excitation energy:                                               2.956237 eV

  Osc. strength:                                                      0.012739
  Trans. dip. moment [a.u.]:           [   0.000000,    0.419390,   -0.000000]
  <i|r^2|0> [a.u.]:                    [   0.000000,   -0.000000,    0.000000]

  Dip. moment [a.u.]:                  [  -0.000000,   -0.000000,   -2.266534]
  Total dipole [Debye]:                                               5.760955
  <r^2> [a.u.]:                        [  75.556409,   27.117415,  220.586300]
  Total <r^2> [a.u.]:                                               323.260124

  V1^2 = 0.8747, V2^2 = 0.1253

  Important amplitudes:
      occ i      occ j       vir a       vir b          v   
    ---------------------------------------------------------
     2 (B2) A              10 (A1) A                 -0.6036
     2 (B2) A              12 (A1) A                  0.1989
    ---------------------------------------------------------

  Density matrix analysis:
  ------------------------
  NOs
    Occupation of frontier NOs:
       0.9633   0.9932
    Number of electrons: 26.000000
    Number of unpaired electrons: n_u =  2.74611, n_u,nl =  2.11358
    NO participation ratio (PR_NO):  3.876953
  
  
  Mulliken Population Analysis
  Atom      Charge (e)              h+              e-           Del q
  --------------------------------------------------------------------
   1 C       -0.682267        0.035333       -0.479833       -0.444500
   2 C       -0.682267        0.035333       -0.479833       -0.444500
   3 H        0.176587        0.001513       -0.034710       -0.033197
   4 H        0.176587        0.001513       -0.034710       -0.033197
   5 H        0.060130        0.035426       -0.014328        0.021098
   6 H        0.060130        0.035426       -0.014328        0.021098
   7 O       -0.503404        1.351271       -0.779539        0.571733
   8 H        0.394505        0.150430        0.191035        0.341465
  --------------------------------------------------------------------
  Sum:       -1.000000        1.646245       -1.646245        0.000000
  
  Multipole moment analysis of the density matrix
    Molecular charge:                      -1.000000
    Number of electrons:                   26.000000
      Center of electronic charge [Ang]: [  0.000000,   0.000000,   0.046131]
    Total nuclear charge:                  25.000000
      Center of nuclear charge [Ang]:    [  0.000000,   0.000000,  -0.000000]
    Dipole moment [D]:                     5.760954
      Cartesian components [D]:          [ -0.000000,  -0.000000,  -5.760954]
    RMS size of the density [Ang]:         1.865339
      Cartesian components [Ang]:        [  0.902091,   0.540429,   1.540668]
  
  Exciton analysis of the difference density matrix
    <r_h> [Ang]:                  [ -0.000000,  -0.000000,  -1.477243]
    <r_e> [Ang]:                  [  0.000000,   0.000000,  -0.057625]
    |<r_e - r_h>| [Ang]:            1.419618
    Hole size [Ang]:                1.748554
      Cartesian components [Ang]: [  0.832219,   0.864570,   1.271759]
    Electron size [Ang]:            3.389962
      Cartesian components [Ang]: [  1.974520,   1.373643,   2.388769]

  Transition density matrix analysis:
  -----------------------------------
  
  CT numbers (Mulliken)
    omega =     0.8582
    <Phe> =    -0.0034
  
  Exciton analysis of the transition density matrix
    Trans. dipole moment [D]:             0.532991
      Cartesian components [D]:         [  0.000000,   0.532991,  -0.000000]
    <r_h> [Ang]:                        [ -0.000000,  -0.000000,  -1.735131]
    <r_e> [Ang]:                        [  0.000000,   0.000000,   0.659333]
    |<r_e - r_h>| [Ang]:                  2.394464
    Hole size [Ang]:                      1.108500
      Cartesian components [Ang]:       [  0.478295,   0.823534,   0.567273]
    Electron size [Ang]:                  3.958372
      Cartesian components [Ang]:       [  2.426065,   1.669487,   2.644945]
    RMS electron-hole separation [Ang]:   4.750226
      Cartesian components [Ang]:       [  2.472330,   1.858724,   3.605188]
    Covariance(r_h, r_e) [Ang^2]:         0.033144
    Correlation coefficient:              0.007554
    Center-of-mass size [Ang]:            2.059355
      Cartesian components [Ang]:       [  1.236598,   0.932193,   1.357492]

  Decomposition into state-averaged NTOs
    H- 0 -> L+ 1: -0.3440 ( 23.7%)
    H- 0 -> L+ 0:  0.3375 ( 22.8%)
    H- 0 -> L+ 6: -0.2716 ( 14.8%)
    H- 0 -> L+ 2:  0.2578 ( 13.3%)
    H- 0 -> L+ 3: -0.2138 (  9.1%)
    H- 0 -> L+ 7:  0.1014 (  2.1%)
                   omega =  85.8%
  ----------------------------------------------------------------------------


  Excited state 5 (singlet, B2)                                    [converged]
  ----------------------------------------------------------------------------
  Term symbol:  5 (1) B2                                    R^2 =  2.31454e-08

  Total energy:                                           -153.8288674943 a.u.
  Excitation energy:                                               3.871382 eV

  Osc. strength:                                                      0.000662
  Trans. dip. moment [a.u.]:           [   0.000000,   -0.083533,   -0.000000]
  <i|r^2|0> [a.u.]:                    [   0.000000,    0.000000,   -0.000000]

  Dip. moment [a.u.]:                  [   0.000000,   -0.000000,   -2.808069]
  Total dipole [Debye]:                                               7.137400
  <r^2> [a.u.]:                        [  71.024361,   34.936661,  204.489258]
  Total <r^2> [a.u.]:                                               310.450280

  V1^2 = 0.8694, V2^2 = 0.1306

  Important amplitudes:
      occ i      occ j       vir a       vir b          v   
    ---------------------------------------------------------
     4 (B1) A               2 (A2) A                 -0.5934
     4 (B1) A               3 (A2) A                  0.2668
    ---------------------------------------------------------

  Density matrix analysis:
  ------------------------
  NOs
    Occupation of frontier NOs:
       0.9650   0.9948
    Number of electrons: 26.000000
    Number of unpaired electrons: n_u =  2.72820, n_u,nl =  2.10353
    NO participation ratio (PR_NO):  3.819307
  
  
  Mulliken Population Analysis
  Atom      Charge (e)              h+              e-           Del q
  --------------------------------------------------------------------
   1 C       -0.667996        0.085533       -0.515761       -0.430229
   2 C       -0.667996        0.085533       -0.515761       -0.430229
   3 H        0.139676        0.001353       -0.071461       -0.070108
   4 H        0.139676        0.001353       -0.071461       -0.070108
   5 H        0.038983        0.011163       -0.011211       -0.000049
   6 H        0.038983        0.011163       -0.011211       -0.000049
   7 O       -0.171901        1.362397       -0.459161        0.903236
   8 H        0.150574        0.118602       -0.021067        0.097534
  --------------------------------------------------------------------
  Sum:       -1.000000        1.677097       -1.677097        0.000000
  
  Multipole moment analysis of the density matrix
    Molecular charge:                      -1.000000
    Number of electrons:                   26.000000
      Center of electronic charge [Ang]: [ -0.000000,   0.000000,   0.057153]
    Total nuclear charge:                  25.000000
      Center of nuclear charge [Ang]:    [  0.000000,   0.000000,  -0.000000]
    Dipole moment [D]:                     7.137398
      Cartesian components [D]:          [  0.000000,  -0.000000,  -7.137398]
    RMS size of the density [Ang]:         1.827672
      Cartesian components [Ang]:        [  0.874617,   0.613416,   1.482953]
  
  Exciton analysis of the difference density matrix
    <r_h> [Ang]:                  [ -0.000000,  -0.000000,  -1.413677]
    <r_e> [Ang]:                  [ -0.000000,   0.000000,   0.150697]
    |<r_e - r_h>| [Ang]:            1.564374
    Hole size [Ang]:                1.710046
      Cartesian components [Ang]: [  0.898970,   0.740557,   1.252073]
    Electron size [Ang]:            2.983545
      Cartesian components [Ang]: [  1.788457,   1.724087,   1.652418]

  Transition density matrix analysis:
  -----------------------------------
  
  CT numbers (Mulliken)
    omega =     0.8448
    <Phe> =    -0.0006
  
  Exciton analysis of the transition density matrix
    Trans. dipole moment [D]:             0.106160
      Cartesian components [D]:         [  0.000000,  -0.106160,  -0.000000]
    <r_h> [Ang]:                        [  0.000000,   0.000000,  -1.696900]
    <r_e> [Ang]:                        [ -0.000000,   0.000000,   1.025070]
    |<r_e - r_h>| [Ang]:                  2.721970
    Hole size [Ang]:                      1.175909
      Cartesian components [Ang]:       [  0.825253,   0.469089,   0.694028]
    Electron size [Ang]:                  3.305127
      Cartesian components [Ang]:       [  2.194949,   2.135779,   1.242785]
    RMS electron-hole separation [Ang]:   4.438202
      Cartesian components [Ang]:       [  2.341638,   2.186365,   3.071511]
    Covariance(r_h, r_e) [Ang^2]:         0.009053
    Correlation coefficient:              0.002329
    Center-of-mass size [Ang]:            1.755330
      Cartesian components [Ang]:       [  1.174140,   1.093504,   0.711919]

  Decomposition into state-averaged NTOs
    H- 1 -> L+ 8:  0.6415 ( 82.3%)
    H- 1 -> L+ 5:  0.1006 (  2.0%)
                   omega =  84.5%
  ----------------------------------------------------------------------------


  Excited state 6 (singlet, B2)                                    [converged]
  ----------------------------------------------------------------------------
  Term symbol:  6 (1) B2                                    R^2 =  1.47067e-08

  Total energy:                                           -153.8084620510 a.u.
  Excitation energy:                                               4.426642 eV

  Osc. strength:                                                      0.003514
  Trans. dip. moment [a.u.]:           [  -0.000000,   -0.179996,   -0.000000]
  <i|r^2|0> [a.u.]:                    [  -0.000000,   -0.000000,   -0.000000]

  Dip. moment [a.u.]:                  [  -0.000000,   -0.000000,   -0.975276]
  Total dipole [Debye]:                                               2.478906
  <r^2> [a.u.]:                        [  75.856061,   28.846831,  222.231417]
  Total <r^2> [a.u.]:                                               326.934309

  V1^2 = 0.8786, V2^2 = 0.1214

  Important amplitudes:
      occ i      occ j       vir a       vir b          v   
    ---------------------------------------------------------
     2 (B2) A              11 (A1) A                 -0.5828
     2 (B2) A              12 (A1) A                  0.2456
    ---------------------------------------------------------

  Density matrix analysis:
  ------------------------
  NOs
    Occupation of frontier NOs:
       0.9641   0.9946
    Number of electrons: 26.000000
    Number of unpaired electrons: n_u =  2.74171, n_u,nl =  2.11162
    NO participation ratio (PR_NO):  3.857155
  
  
  Mulliken Population Analysis
  Atom      Charge (e)              h+              e-           Del q
  --------------------------------------------------------------------
   1 C       -0.555546        0.032622       -0.350401       -0.317779
   2 C       -0.555546        0.032622       -0.350401       -0.317779
   3 H        0.210040        0.004981       -0.004725        0.000256
   4 H        0.210040        0.004981       -0.004725        0.000256
   5 H        0.018156        0.027830       -0.048706       -0.020876
   6 H        0.018156        0.027830       -0.048706       -0.020876
   7 O       -0.675337        1.339532       -0.939732        0.399800
   8 H        0.330036        0.150720        0.126277        0.276996
  --------------------------------------------------------------------
  Sum:       -1.000000        1.621119       -1.621119        0.000000
  
  Multipole moment analysis of the density matrix
    Molecular charge:                      -1.000000
    Number of electrons:                   26.000000
      Center of electronic charge [Ang]: [  0.000000,   0.000000,   0.019850]
    Total nuclear charge:                  25.000000
      Center of nuclear charge [Ang]:    [  0.000000,   0.000000,  -0.000000]
    Dipole moment [D]:                     2.478905
      Cartesian components [D]:          [ -0.000000,  -0.000000,  -2.478905]
    RMS size of the density [Ang]:         1.876378
      Cartesian components [Ang]:        [  0.903878,   0.557396,   1.546968]
  
  Exciton analysis of the difference density matrix
    <r_h> [Ang]:                  [ -0.000000,   0.000000,  -1.517524]
    <r_e> [Ang]:                  [  0.000000,   0.000000,  -0.497405]
    |<r_e - r_h>| [Ang]:            1.020119
    Hole size [Ang]:                1.720848
      Cartesian components [Ang]: [  0.835799,   0.873826,   1.224412]
    Electron size [Ang]:            3.464662
      Cartesian components [Ang]: [  2.001538,   1.489759,   2.403820]

  Transition density matrix analysis:
  -----------------------------------
  
  CT numbers (Mulliken)
    omega =     0.8621
    <Phe> =    -0.0011
  
  Exciton analysis of the transition density matrix
    Trans. dipole moment [D]:             0.228752
      Cartesian components [D]:         [ -0.000000,  -0.228752,  -0.000000]
    <r_h> [Ang]:                        [ -0.000000,  -0.000000,  -1.739190]
    <r_e> [Ang]:                        [  0.000000,   0.000000,  -0.042720]
    |<r_e - r_h>| [Ang]:                  1.696470
    Hole size [Ang]:                      1.101785
      Cartesian components [Ang]:       [  0.477806,   0.823330,   0.554762]
    Electron size [Ang]:                  4.130663
      Cartesian components [Ang]:       [  2.440360,   1.808900,   2.799089]
    RMS electron-hole separation [Ang]:   4.593662
      Cartesian components [Ang]:       [  2.486267,   1.985479,   3.313319]
    Covariance(r_h, r_e) [Ang^2]:         0.026292
    Correlation coefficient:              0.005777
    Center-of-mass size [Ang]:            2.140613
      Cartesian components [Ang]:       [  1.243562,   0.994718,   1.430494]

  Decomposition into state-averaged NTOs
    H- 0 -> L+ 2: -0.4582 ( 42.0%)
    H- 0 -> L+ 3:  0.2756 ( 15.2%)
    H- 0 -> L+ 1: -0.2442 ( 11.9%)
    H- 0 -> L+ 7:  0.2394 ( 11.5%)
    H- 0 -> L+ 6: -0.1367 (  3.7%)
    H- 0 -> L+ 0:  0.0942 (  1.8%)
                   omega =  86.2%
  ----------------------------------------------------------------------------


  Excited state 7 (singlet, B2)                                    [converged]
  ----------------------------------------------------------------------------
  Term symbol:  7 (1) B2                                    R^2 =  8.96871e-09

  Total energy:                                           -153.8022488776 a.u.
  Excitation energy:                                               4.595711 eV

  Osc. strength:                                                      0.031839
  Trans. dip. moment [a.u.]:           [  -0.000000,   -0.531767,   -0.000000]
  <i|r^2|0> [a.u.]:                    [   0.000000,   -0.000000,   -0.000000]

  Dip. moment [a.u.]:                  [  -0.000000,    0.000000,   -1.198174]
  Total dipole [Debye]:                                               3.045456
  <r^2> [a.u.]:                        [  69.580563,   30.134099,  243.181363]
  Total <r^2> [a.u.]:                                               342.896025

  V1^2 = 0.8853, V2^2 = 0.1147

  Important amplitudes:
      occ i      occ j       vir a       vir b          v   
    ---------------------------------------------------------
     2 (B2) A              12 (A1) A                 -0.5536
     2 (B2) A              11 (A1) A                 -0.2370
    ---------------------------------------------------------

  Density matrix analysis:
  ------------------------
  NOs
    Occupation of frontier NOs:
       0.9651   0.9944
    Number of electrons: 26.000000
    Number of unpaired electrons: n_u =  2.73190, n_u,nl =  2.10778
    NO participation ratio (PR_NO):  3.828745
  
  
  Mulliken Population Analysis
  Atom      Charge (e)              h+              e-           Del q
  --------------------------------------------------------------------
   1 C       -0.601699        0.032649       -0.396581       -0.363932
   2 C       -0.601699        0.032649       -0.396581       -0.363932
   3 H        0.150463        0.001921       -0.061242       -0.059320
   4 H        0.150463        0.001921       -0.061242       -0.059320
   5 H        0.146258        0.032755        0.074470        0.107226
   6 H        0.146258        0.032755        0.074470        0.107226
   7 O       -1.111385        1.283841       -1.320089       -0.036248
   8 H        0.721341        0.177684        0.490618        0.668302
  --------------------------------------------------------------------
  Sum:       -1.000000        1.596176       -1.596176       -0.000000
  
  Multipole moment analysis of the density matrix
    Molecular charge:                      -1.000000
    Number of electrons:                   26.000000
      Center of electronic charge [Ang]: [  0.000000,  -0.000000,   0.024386]
    Total nuclear charge:                  25.000000
      Center of nuclear charge [Ang]:    [  0.000000,   0.000000,  -0.000000]
    Dipole moment [D]:                     3.045455
      Cartesian components [D]:          [ -0.000000,   0.000000,  -3.045455]
    RMS size of the density [Ang]:         1.921590
      Cartesian components [Ang]:        [  0.865682,   0.569697,   1.618193]
  
  Exciton analysis of the difference density matrix
    <r_h> [Ang]:                  [ -0.000000,  -0.000000,  -1.497094]
    <r_e> [Ang]:                  [  0.000000,  -0.000000,  -0.387136]
    |<r_e - r_h>| [Ang]:            1.109957
    Hole size [Ang]:                1.765721
      Cartesian components [Ang]: [  0.829622,   0.886245,   1.282212]
    Electron size [Ang]:            3.886611
      Cartesian components [Ang]: [  1.716565,   1.577918,   3.109554]

  Transition density matrix analysis:
  -----------------------------------
  
  CT numbers (Mulliken)
    omega =     0.8676
    <Phe> =    -0.0081
  
  Exciton analysis of the transition density matrix
    Trans. dipole moment [D]:             0.675808
      Cartesian components [D]:         [ -0.000000,  -0.675808,  -0.000000]
    <r_h> [Ang]:                        [ -0.000000,  -0.000000,  -1.740993]
    <r_e> [Ang]:                        [  0.000000,  -0.000000,   0.015213]
    |<r_e - r_h>| [Ang]:                  1.756206
    Hole size [Ang]:                      1.097344
      Cartesian components [Ang]:       [  0.476571,   0.821829,   0.549218]
    Electron size [Ang]:                  4.628659
      Cartesian components [Ang]:       [  2.035810,   1.892743,   3.701012]
    RMS electron-hole separation [Ang]:   5.063553
      Cartesian components [Ang]:       [  2.090497,   2.061749,   4.125358]
    Covariance(r_h, r_e) [Ang^2]:         0.036670
    Correlation coefficient:              0.007220
    Center-of-mass size [Ang]:            2.382330
      Cartesian components [Ang]:       [  1.045598,   1.032587,   1.875096]

  Decomposition into state-averaged NTOs
    H- 0 -> L+ 1:  0.4717 ( 44.5%)
    H- 0 -> L+ 6: -0.4037 ( 32.6%)
    H- 0 -> L+ 7:  0.1945 (  7.6%)
    H- 0 -> L+ 0:  0.0871 (  1.5%)
                   omega =  86.8%
  ----------------------------------------------------------------------------


  Excited state 8 (singlet, B2)                                    [converged]
  ----------------------------------------------------------------------------
  Term symbol:  8 (1) B2                                    R^2 =  3.29887e-08

  Total energy:                                           -153.7645917077 a.u.
  Excitation energy:                                               5.620415 eV

  Osc. strength:                                                      0.021832
  Trans. dip. moment [a.u.]:           [  -0.000000,    0.398184,    0.000000]
  <i|r^2|0> [a.u.]:                    [  -0.000000,    0.000000,   -0.000000]

  Dip. moment [a.u.]:                  [  -0.000000,    0.000000,   -1.406214]
  Total dipole [Debye]:                                               3.574240
  <r^2> [a.u.]:                        [  70.543721,   32.451770,  255.861425]
  Total <r^2> [a.u.]:                                               358.856915

  V1^2 = 0.9434, V2^2 = 0.0566

  Important amplitudes:
      occ i      occ j       vir a       vir b          v   
    ---------------------------------------------------------
     1 (B2) A               8 (A1) A                 -0.5916
     1 (B2) A              10 (A1) A                 -0.2928
    ---------------------------------------------------------

  Density matrix analysis:
  ------------------------
  NOs
    Occupation of frontier NOs:
       0.9895   0.9907
    Number of electrons: 26.000000
    Number of unpaired electrons: n_u =  2.62141, n_u,nl =  2.06840
    NO participation ratio (PR_NO):  3.473376
  
  
  Mulliken Population Analysis
  Atom      Charge (e)              h+              e-           Del q
  --------------------------------------------------------------------
   1 C       -0.423647        0.535484       -0.721364       -0.185880
   2 C       -0.423647        0.535484       -0.721364       -0.185880
   3 H        0.264127        0.062136       -0.007793        0.054343
   4 H        0.264127        0.062136       -0.007793        0.054343
   5 H        0.142574        0.125481       -0.021939        0.103542
   6 H        0.142574        0.125481       -0.021939        0.103542
   7 O       -1.022752        0.056933       -0.004548        0.052385
   8 H        0.056645        0.025447       -0.021842        0.003605
  --------------------------------------------------------------------
  Sum:       -1.000000        1.528583       -1.528583        0.000000
  
  Multipole moment analysis of the density matrix
    Molecular charge:                      -1.000000
    Number of electrons:                   26.000000
      Center of electronic charge [Ang]: [  0.000000,  -0.000000,   0.028621]
    Total nuclear charge:                  25.000000
      Center of nuclear charge [Ang]:    [  0.000000,   0.000000,  -0.000000]
    Dipole moment [D]:                     3.574239
      Cartesian components [D]:          [ -0.000000,   0.000000,  -3.574239]
    RMS size of the density [Ang]:         1.965754
      Cartesian components [Ang]:        [  0.871653,   0.591199,   1.659787]
  
  Exciton analysis of the difference density matrix
    <r_h> [Ang]:                  [ -0.000000,   0.000000,   0.898732]
    <r_e> [Ang]:                  [  0.000000,  -0.000000,   2.129792]
    |<r_e - r_h>| [Ang]:            1.231060
    Hole size [Ang]:                1.844882
      Cartesian components [Ang]: [  1.065319,   0.915457,   1.196086]
    Electron size [Ang]:            3.596307
      Cartesian components [Ang]: [  1.915603,   1.744250,   2.494290]

  Transition density matrix analysis:
  -----------------------------------
  
  CT numbers (Mulliken)
    omega =     0.9126
    <Phe> =    -0.0033
  
  Exciton analysis of the transition density matrix
    Trans. dipole moment [D]:             0.506042
      Cartesian components [D]:         [ -0.000000,   0.506042,   0.000000]
    <r_h> [Ang]:                        [  0.000000,   0.000000,   1.009091]
    <r_e> [Ang]:                        [  0.000000,  -0.000000,   2.908207]
    |<r_e - r_h>| [Ang]:                  1.899116
    Hole size [Ang]:                      1.317879
      Cartesian components [Ang]:       [  0.766231,   0.892949,   0.593580]
    Electron size [Ang]:                  4.045103
      Cartesian components [Ang]:       [  2.249765,   2.098807,   2.626105]
    RMS electron-hole separation [Ang]:   4.651743
      Cartesian components [Ang]:       [  2.373496,   2.277788,   3.288908]
    Covariance(r_h, r_e) [Ang^2]:         0.033798
    Correlation coefficient:              0.006340
    Center-of-mass size [Ang]:            2.131153
      Cartesian components [Ang]:       [  1.189918,   1.141970,   1.349746]

  Decomposition into state-averaged NTOs
    H- 2 -> L+ 0:  0.6732 ( 90.6%)
                   omega =  91.3%
  ----------------------------------------------------------------------------


  Excited state 9 (singlet, B2)                                    [converged]
  ----------------------------------------------------------------------------
  Term symbol:  9 (1) B2                                    R^2 =  5.10524e-06

  Total energy:                                           -153.7552758802 a.u.
  Excitation energy:                                               5.873911 eV

  Osc. strength:                                                      0.000140
  Trans. dip. moment [a.u.]:           [  -0.000000,    0.031218,   -0.000000]
  <i|r^2|0> [a.u.]:                    [   0.000000,    0.000000,   -0.000000]

  Dip. moment [a.u.]:                  [   0.000000,   -0.000000,   -2.855948]
  Total dipole [Debye]:                                               7.259096
  <r^2> [a.u.]:                        [  76.200832,   81.904180,  217.659517]
  Total <r^2> [a.u.]:                                               375.764530

  V1^2 = 0.8712, V2^2 = 0.1288

  Important amplitudes:
      occ i      occ j       vir a       vir b          v   
    ---------------------------------------------------------
     7 (A1) A               3 (B2) A                  0.6517
     7 (A1) A               4 (B2) A                  0.0708
    ---------------------------------------------------------

  Density matrix analysis:
  ------------------------
  NOs
    Occupation of frontier NOs:
       0.9840   0.9960
    Number of electrons: 26.000000
    Number of unpaired electrons: n_u =  2.80757, n_u,nl =  2.13315
    NO participation ratio (PR_NO):  3.949413
  
  
  Mulliken Population Analysis
  Atom      Charge (e)              h+              e-           Del q
  --------------------------------------------------------------------
   1 C       -0.722543        0.062394       -0.547170       -0.484776
   2 C       -0.722543        0.062394       -0.547170       -0.484776
   3 H        0.167127       -0.000545       -0.042111       -0.042656
   4 H        0.167127       -0.000545       -0.042111       -0.042656
   5 H        0.073259        0.036290       -0.002063        0.034227
   6 H        0.073259        0.036290       -0.002063        0.034227
   7 O       -0.367134        1.212963       -0.504960        0.708003
   8 H        0.331448        0.295100       -0.016691        0.278408
  --------------------------------------------------------------------
  Sum:       -1.000000        1.704341       -1.704341        0.000000
  
  Multipole moment analysis of the density matrix
    Molecular charge:                      -1.000000
    Number of electrons:                   26.000000
      Center of electronic charge [Ang]: [ -0.000000,   0.000000,   0.058127]
    Total nuclear charge:                  25.000000
      Center of nuclear charge [Ang]:    [  0.000000,   0.000000,  -0.000000]
    Dipole moment [D]:                     7.259094
      Cartesian components [D]:          [  0.000000,  -0.000000,  -7.259094]
    RMS size of the density [Ang]:         2.010902
      Cartesian components [Ang]:        [  0.905929,   0.939220,   1.529995]
  
  Exciton analysis of the difference density matrix
    <r_h> [Ang]:                  [  0.000000,  -0.000000,  -1.389896]
    <r_e> [Ang]:                  [ -0.000000,  -0.000000,   0.164337]
    |<r_e - r_h>| [Ang]:            1.554233
    Hole size [Ang]:                1.843199
      Cartesian components [Ang]: [  0.857143,   0.782199,   1.432080]
    Electron size [Ang]:            4.468900
      Cartesian components [Ang]: [  1.984295,   3.273232,   2.306424]

  Transition density matrix analysis:
  -----------------------------------
  
  CT numbers (Mulliken)
    omega =     0.8541
    <Phe> =     0.0002
  
  Exciton analysis of the transition density matrix
    Trans. dipole moment [D]:             0.039674
      Cartesian components [D]:         [ -0.000000,   0.039674,  -0.000000]
    <r_h> [Ang]:                        [ -0.000000,   0.000000,  -1.706852]
    <r_e> [Ang]:                        [ -0.000000,   0.000000,   1.079600]
    |<r_e - r_h>| [Ang]:                  2.786452
    Hole size [Ang]:                      1.152516
      Cartesian components [Ang]:       [  0.455789,   0.408802,   0.976438]
    Electron size [Ang]:                  5.450854
      Cartesian components [Ang]:       [  2.475011,   4.217121,   2.408739]
    RMS electron-hole separation [Ang]:   6.227945
      Cartesian components [Ang]:       [  2.515505,   4.236861,   3.809009]
    Covariance(r_h, r_e) [Ang^2]:         0.008559
    Correlation coefficient:              0.001362
    Center-of-mass size [Ang]:            2.786450
      Cartesian components [Ang]:       [  1.258877,   2.118458,   1.300642]

  Decomposition into state-averaged NTOs
    H- 3 -> L+ 4:  0.6519 ( 85.0%)
                   omega =  85.4%
  ----------------------------------------------------------------------------


  Excited state 10 (singlet, B2)                                    [converged]
  ----------------------------------------------------------------------------
  Term symbol:  10 (1) B2                                   R^2 =  9.43267e-07

  Total energy:                                           -153.7508254389 a.u.
  Excitation energy:                                               5.995014 eV

  Osc. strength:                                                      0.010087
  Trans. dip. moment [a.u.]:           [  -0.000000,   -0.262069,   -0.000000]
  <i|r^2|0> [a.u.]:                    [   0.000000,    0.000000,    0.000000]

  Dip. moment [a.u.]:                  [  -0.000000,    0.000000,   -2.890202]
  Total dipole [Debye]:                                               7.346163
  <r^2> [a.u.]:                        [  81.825646,   32.852972,  208.773982]
  Total <r^2> [a.u.]:                                               323.452600

  V1^2 = 0.8755, V2^2 = 0.1245

  Important amplitudes:
      occ i      occ j       vir a       vir b          v   
    ---------------------------------------------------------
     2 (B2) A              13 (A1) A                  0.6271
     2 (B2) A              11 (A1) A                  0.1383
    ---------------------------------------------------------

  Density matrix analysis:
  ------------------------
  NOs
    Occupation of frontier NOs:
       0.9740   0.9830
    Number of electrons: 26.000000
    Number of unpaired electrons: n_u =  2.76779, n_u,nl =  2.11932
    NO participation ratio (PR_NO):  3.934477
  
  
  Mulliken Population Analysis
  Atom      Charge (e)              h+              e-           Del q
  --------------------------------------------------------------------
   1 C       -0.849977        0.051299       -0.663509       -0.612209
   2 C       -0.849977        0.051299       -0.663509       -0.612209
   3 H        0.221027        0.000477        0.010766        0.011243
   4 H        0.221027        0.000477        0.010766        0.011243
   5 H        0.120537        0.016958        0.064547        0.081505
   6 H        0.120537        0.016958        0.064547        0.081505
   7 O       -0.141786        1.367841       -0.434490        0.933351
   8 H        0.158611        0.124462       -0.018891        0.105571
  --------------------------------------------------------------------
  Sum:       -1.000000        1.629771       -1.629771        0.000000
  
  Multipole moment analysis of the density matrix
    Molecular charge:                      -1.000000
    Number of electrons:                   26.000000
      Center of electronic charge [Ang]: [  0.000000,  -0.000000,   0.058824]
    Total nuclear charge:                  25.000000
      Center of nuclear charge [Ang]:    [  0.000000,   0.000000,  -0.000000]
    Dipole moment [D]:                     7.346161
      Cartesian components [D]:          [ -0.000000,   0.000000,  -7.346161]
    RMS size of the density [Ang]:         1.865538
      Cartesian components [Ang]:        [  0.938770,   0.594842,   1.498367]
  
  Exciton analysis of the difference density matrix
    <r_h> [Ang]:                  [  0.000000,  -0.000000,  -1.491160]
    <r_e> [Ang]:                  [  0.000000,   0.000000,   0.145309]
    |<r_e - r_h>| [Ang]:            1.636469
    Hole size [Ang]:                1.712852
      Cartesian components [Ang]: [  0.816818,   0.864534,   1.232578]
    Electron size [Ang]:            3.389407
      Cartesian components [Ang]: [  2.232246,   1.698187,   1.902975]

  Transition density matrix analysis:
  -----------------------------------
  
  CT numbers (Mulliken)
    omega =     0.8592
    <Phe> =    -0.0016
  
  Exciton analysis of the transition density matrix
    Trans. dipole moment [D]:             0.333057
      Cartesian components [D]:         [ -0.000000,  -0.333057,  -0.000000]
    <r_h> [Ang]:                        [ -0.000000,  -0.000000,  -1.707101]
    <r_e> [Ang]:                        [  0.000000,  -0.000000,   1.049256]
    |<r_e - r_h>| [Ang]:                  2.756357
    Hole size [Ang]:                      1.144513
      Cartesian components [Ang]:       [  0.481491,   0.822188,   0.634101]
    Electron size [Ang]:                  3.844726
      Cartesian components [Ang]:       [  2.746621,   2.094844,   1.688083]
    RMS electron-hole separation [Ang]:   4.858676
      Cartesian components [Ang]:       [  2.788261,   2.245735,   3.284663]
    Covariance(r_h, r_e) [Ang^2]:         0.041300
    Correlation coefficient:              0.009386
    Center-of-mass size [Ang]:            2.010872
      Cartesian components [Ang]:       [  1.394374,   1.127541,   0.909933]

  Decomposition into state-averaged NTOs
    H- 0 -> L+ 3: -0.4144 ( 34.3%)
    H- 0 -> L+ 2: -0.3654 ( 26.7%)
    H- 0 -> L+ 7: -0.2894 ( 16.8%)
    H- 0 -> L+ 6: -0.1836 (  6.7%)
                   omega =  85.9%
  ----------------------------------------------------------------------------


--------------------------------------------------------------------------------
  Time of ADC calculation:  CPU 229.78 s  wall 62.63 s
================================================================================
 
 --------------------------------------------------------------
             Orbital Energies (a.u.) and Symmetries
 --------------------------------------------------------------
 
 Alpha MOs, Restricted
 -- Occupied --                  
-20.213 -11.049 -11.047  -0.930  -0.854  -0.598  -0.473  -0.384
  1 A1    2 A1    1 B1    3 A1    4 A1    2 B1    5 A1    6 A1                 
 -0.328  -0.271  -0.194  -0.130  -0.129
  3 B1    7 A1    1 B2    4 B1    2 B2                                         
 -- Virtual --                   
  0.121   0.134   0.136   0.141   0.148   0.154   0.212   0.236
  5 B1    8 A1    3 B2    1 A2    9 A1    6 B1   10 A1    7 B1                 
  0.261   0.267   0.271   0.287   0.327   0.338   0.363   0.375
  2 A2   11 A1    4 B2    8 B1   12 A1   13 A1    3 A2    9 B1                 
  0.447   0.455   0.471   0.498   0.509   0.523   0.535   0.556
  5 B2   14 A1   10 B1   15 A1   11 B1   16 A1   12 B1    6 B2                 
  0.580   0.580   0.616   0.622   0.701   0.730   0.797   1.010
 17 A1   13 B1   18 A1    4 A2   19 A1   14 B1   15 B1   20 A1                 
  1.047   1.131   1.133   1.171   1.200   1.216   1.281   1.291
 21 A1   16 B1   22 A1   23 A1    7 B2   17 B1   24 A1    5 A2                 
  1.311   1.321   1.335   1.340   1.341   1.352   1.371   1.476
 18 B1    8 B2   25 A1   19 B1   26 A1    6 A2    9 B2   10 B2                 
  1.483   1.500   1.658   1.668   1.719   1.753   1.877   1.947
  7 A2   20 B1   21 B1   27 A1   11 B2   22 B1   28 A1   23 B1                 
  2.032   2.066   2.132   2.154   2.179   2.213   2.265   2.340
 29 A1    8 A2   12 B2   30 A1   24 B1   13 B2   31 A1   32 A1                 
  2.368   2.395   2.440   2.530   2.579   2.604   2.771   2.773
  9 A2   14 B2   25 B1   26 B1   33 A1   10 A2   34 A1   27 B1                 
  2.854   3.048   3.066   3.120   3.471   3.569   3.923   3.946
 28 B1   35 A1   36 A1   37 A1   29 B1   30 B1   15 B2   11 A2                 
  3.972   4.090   4.546
 38 A1   31 B1   39 A1                                                         
 
 Beta MOs, Restricted
 -- Occupied --                  
-20.213 -11.049 -11.047  -0.930  -0.854  -0.598  -0.473  -0.384
  1 A1    2 A1    1 B1    3 A1    4 A1    2 B1    5 A1    6 A1                 
 -0.328  -0.271  -0.194  -0.130  -0.129
  3 B1    7 A1    1 B2    4 B1    2 B2                                         
 -- Virtual --                   
  0.121   0.134   0.136   0.141   0.148   0.154   0.212   0.236
  5 B1    8 A1    3 B2    1 A2    9 A1    6 B1   10 A1    7 B1                 
  0.261   0.267   0.271   0.287   0.327   0.338   0.363   0.375
  2 A2   11 A1    4 B2    8 B1   12 A1   13 A1    3 A2    9 B1                 
  0.447   0.455   0.471   0.498   0.509   0.523   0.535   0.556
  5 B2   14 A1   10 B1   15 A1   11 B1   16 A1   12 B1    6 B2                 
  0.580   0.580   0.616   0.622   0.701   0.730   0.797   1.010
 17 A1   13 B1   18 A1    4 A2   19 A1   14 B1   15 B1   20 A1                 
  1.047   1.131   1.133   1.171   1.200   1.216   1.281   1.291
 21 A1   16 B1   22 A1   23 A1    7 B2   17 B1   24 A1    5 A2                 
  1.311   1.321   1.335   1.340   1.341   1.352   1.371   1.476
 18 B1    8 B2   25 A1   19 B1   26 A1    6 A2    9 B2   10 B2                 
  1.483   1.500   1.658   1.668   1.719   1.753   1.877   1.947
  7 A2   20 B1   21 B1   27 A1   11 B2   22 B1   28 A1   23 B1                 
  2.032   2.066   2.132   2.154   2.179   2.213   2.265   2.340
 29 A1    8 A2   12 B2   30 A1   24 B1   13 B2   31 A1   32 A1                 
  2.368   2.395   2.440   2.530   2.579   2.604   2.771   2.773
  9 A2   14 B2   25 B1   26 B1   33 A1   10 A2   34 A1   27 B1                 
  2.854   3.048   3.066   3.120   3.471   3.569   3.923   3.946
 28 B1   35 A1   36 A1   37 A1   29 B1   30 B1   15 B2   11 A2                 
  3.972   4.090   4.546
 38 A1   31 B1   39 A1                                                         
 --------------------------------------------------------------
 
          Ground-State Mulliken Net Atomic Charges

     Atom                 Charge (a.u.)
  ----------------------------------------
      1 C                    -0.234062
      2 C                    -0.234062
      3 H                     0.204055
      4 H                     0.204055
      5 H                     0.032248
      6 H                     0.032248
      7 O                    -1.074365
      8 H                     0.069880
  ----------------------------------------
  Sum of atomic charges =    -1.000000

 -----------------------------------------------------------------
                    Cartesian Multipole Moments
 -----------------------------------------------------------------
    Charge (ESU x 10^10)
                -4.8032
    Dipole Moment (Debye)
         X      -0.0000      Y      -0.0000      Z       5.2859
       Tot       5.2859
    Quadrupole Moments (Debye-Ang)
        XX     -23.6650     XY       0.0000     YY     -26.5200
        XZ      -0.0000     YZ      -0.0000     ZZ     -32.8985
    Octopole Moments (Debye-Ang^2)
       XXX      -0.0000    XXY      -0.0000    XYY       0.0000
       YYY      -0.0000    XXZ       1.0966    XYZ      -0.0000
       YYZ      -0.0867    XZZ      -0.0000    YZZ      -0.0000
       ZZZ       6.4262
    Hexadecapole Moments (Debye-Ang^3)
      XXXX     -88.0802   XXXY      -0.0000   XXYY     -21.8699
      XYYY       0.0000   YYYY     -40.2077   XXXZ      -0.0000
      XXYZ      -0.0000   XYYZ       0.0000   YYYZ      -0.0000
      XXZZ     -70.6320   XYZZ      -0.0000   YYZZ     -65.5408
      XZZZ      -0.0000   YZZZ      -0.0000   ZZZZ    -292.9361
 -----------------------------------------------------------------
 Total job time:  172.03s(wall), 279.56s(cpu) 
 Sat Mar  5 01:09:55 2022

        *************************************************************
        *                                                           *
        *  Thank you very much for using Q-Chem.  Have a nice day.  *
        *                                                           *
        *************************************************************


