/src/tsommerfeld/qchem/exe/qcprog.exe .input0.678788.17407.qcin.1 /src/jdavis/qchem.scratch/qchem17407/

                  Welcome to Q-Chem
     A Quantum Leap Into The Future Of Chemistry


 Q-Chem 5.4 (devel), Q-Chem, Inc., Pleasanton, CA (2021)

 E. Epifanovsky,  A. T. B. Gilbert,  Xintian Feng,  Joonho Lee,  Yuezhi Mao,  
 N. Mardirossian,  P. Pokhilko,  A. White,  M. Wormit,  M. P. Coons,  
 A. L. Dempwolff,  Zhengting Gan,  D. Hait,  P. R. Horn,  L. D. Jacobson,  
 I. Kaliman,  J. Kussmann,  A. W. Lange,  Ka Un Lao,  D. S. Levine,  Jie Liu,  
 S. C. McKenzie,  A. F. Morrison,  K. Nanda,  F. Plasser,  D. R. Rehn,  
 M. L. Vidal,  Zhi-Qiang You,  Ying Zhu,  B. Alam,  B. Albrecht,  
 A. Aldossary,  E. Alguire,  J. H. Andersen,  D. Barton,  K. Begam,  A. Behn,  
 Y. A. Bernard,  E. J. Berquist,  H. Burton,  A. Carreras,  K. Carter-Fenk,  
 R. Chakraborty,  A. D. Chien,  K. D. Closser,  V. Cofer-Shabica,  
 S. Dasgupta,  Jia Deng,  M. de Wergifosse,  M. Diedenhofen,  Hainam Do,  
 S. Ehlert,  Po-Tung Fang,  S. Fatehi,  Qingguo Feng,  T. Friedhoff,  
 J. Gayvert,  Qinghui Ge,  G. Gidofalvi,  M. Goldey,  J. Gomes,  
 C. Gonzalez-Espinoza,  S. Gulania,  A. Gunina,  M. W. D. Hanson-Heine,  
 P. H. P. Harbach,  A. W. Hauser,  M. F. Herbst,  M. Hernandez Vera,  
 M. Hodecker,  Z. C. Holden,  S. Houck,  Xunkun Huang,  Kerwin Hui,  
 B. C. Huynh,  M. Ivanov,  Hyunjun Ji,  Hanjie Jiang,  B. Kaduk,  S. Kaehler,  
 K. Khistyaev,  Jaehoon Kim,  P. Klunzinger,  Z. Koczor-Benda,  
 Joong Hoon Koh,  D. Kosenkov,  L. Koulias,  T. Kowalczyk,  C. M. Krauter,  
 K. Kue,  A. Kunitsa,  T. Kus,  A. Landau,  K. V. Lawler,  D. Lefrancois,  
 S. Lehtola,  Rain Li,  Yi-Pei Li,  Jiashu Liang,  M. Liebenthal,  
 Hung-Hsuan Lin,  You-Sheng Lin,  Fenglai Liu,  Kuan-Yu Liu,  
 M. Loipersberger,  A. Luenser,  A. Manjanath,  P. Manohar,  E. Mansoor,  
 S. F. Manzer,  Shan-Ping Mao,  A. V. Marenich,  T. Markovich,  S. Mason,  
 S. A. Maurer,  P. F. McLaughlin,  M. F. S. J. Menger,  J.-M. Mewes,  
 S. A. Mewes,  P. Morgante,  J. W. Mullinax,  K. J. Oosterbaan,  G. Paran,  
 Alexander C. Paul,  Suranjan K. Paul,  F. Pavosevic,  Zheng Pei,  S. Prager,  
 E. I. Proynov,  E. Ramos,  B. Rana,  A. E. Rask,  A. Rettig,  R. M. Richard,  
 F. Rob,  E. Rossomme,  T. Scheele,  M. Scheurer,  M. Schneider,  
 N. Sergueev,  S. M. Sharada,  W. Skomorowski,  D. W. Small,  C. J. Stein,  
 Yu-Chuan Su,  E. J. Sundstrom,  Zhen Tao,  J. Thirman,  T. Tsuchimochi,  
 N. M. Tubman,  S. P. Veccham,  O. Vydrov,  J. Wenzel,  J. Witte,  A. Yamada,  
 Kun Yao,  S. Yeganeh,  S. R. Yost,  A. Zech,  Igor Ying Zhang,  Xing Zhang,  
 Yu Zhang,  D. Zuev,  A. Aspuru-Guzik,  A. T. Bell,  N. A. Besley,  
 K. B. Bravaya,  B. R. Brooks,  D. Casanova,  Jeng-Da Chai,  S. Coriani,  
 C. J. Cramer,  A. E. DePrince, III,  R. A. DiStasio Jr.,  A. Dreuw,  
 B. D. Dunietz,  T. R. Furlani,  W. A. Goddard III,  S. Grimme,  
 S. Hammes-Schiffer,  T. Head-Gordon,  W. J. Hehre,  Chao-Ping Hsu,  
 T.-C. Jagau,  Yousung Jung,  A. Klamt,  Jing Kong,  D. S. Lambrecht,  
 WanZhen Liang,  N. J. Mayhall,  C. W. McCurdy,  J. B. Neaton,  
 C. Ochsenfeld,  J. A. Parkhill,  R. Peverati,  V. A. Rassolov,  Yihan Shao,  
 L. V. Slipchenko,  T. Stauch,  R. P. Steele,  J. E. Subotnik,  
 A. J. W. Thom,  A. Tkatchenko,  D. G. Truhlar,  T. Van Voorhis,  
 T. A. Wesolowski,  K. B. Whaley,  H. L. Woodcock III,  P. M. Zimmerman,  
 S. Faraji,  P. M. W. Gill,  M. Head-Gordon,  J. M. Herbert,  A. I. Krylov

 Additional authors for Version 5.4.1: 
 S. Kotaru,  Shaozhi Li,  Xiangyuan Li,  F. Matz,  A. Molle,  Haisheng Ren,  
 Yingli Su,  Hung-Yi Tsai,  C. Utku,  Fang Wang

 Contributors to earlier versions of Q-Chem not listed above: 
 R. D. Adamson,  B. Austin,  R. Baer,  J. Baker,  G. J. O. Beran,  
 K. Brandhorst,  S. T. Brown,  E. F. C. Byrd,  A. K. Chakraborty,  
 G. K. L. Chan,  Chun-Min Chang,  Yunqing Chen,  C.-L. Cheng,  
 Siu Hung Chien,  D. M. Chipman,  D. L. Crittenden,  H. Dachsel,  
 R. J. Doerksen,  A. D. Dutoi,  R. G. Edgar,  J. Fosso-Tande,  
 L. Fusti-Molnar,  D. Ghosh,  A. Ghysels,  A. Golubeva-Zadorozhnaya,  
 J. Gonthier,  M. S. Gordon,  S. R. Gwaltney,  G. Hawkins,  J. E. Herr,  
 A. Heyden,  S. Hirata,  E. G. Hohenstein,  G. Kedziora,  F. J. Keil,  
 C. Kelley,  Jihan Kim,  R. A. King,  R. Z. Khaliullin,  P. P. Korambath,  
 W. Kurlancheek,  A. Laurent,  A. M. Lee,  M. S. Lee,  S. V. Levchenko,  
 Ching Yeh Lin,  D. Liotard,  E. Livshits,  R. C. Lochan,  I. Lotan,  
 L. A. Martinez-Martinez,  P. E. Maslen,  N. Nair,  D. P. O'Neill,  
 D. Neuhauser,  E. Neuscamman,  C. M. Oana,  R. Olivares-Amaya,  R. Olson,  
 T. M. Perrine,  B. Peters,  P. A. Pieniazek,  A. Prociuk,  Y. M. Rhee,  
 J. Ritchie,  M. A. Rohrdanz,  E. Rosta,  N. J. Russ,  H. F. Schaefer III,  
 M. W. Schmidt,  N. E. Schultz,  S. Sharma,  N. Shenvi,  C. D. Sherrill,  
 A. C. Simmonett,  A. Sodt,  T. Stein,  D. Stuck,  K. S. Thanthiriwatte,  
 V. Vanovschi,  L. Vogt,  Tao Wang,  A. Warshel,  M. A. Watson,  
 C. F. Williams,  Q. Wu,  X. Xu,  Jun Yang,  W. Zhang,  Yan Zhao

 Please cite Q-Chem as follows:
 Y. Shao et al., Mol. Phys. 113, 184-215 (2015)
 DOI: 10.1080/00268976.2014.952696

 Q-Chem 5.4.1 for Intel X86 EM64T Linux

 Parts of Q-Chem use Armadillo 9.900.5 (Nocturnal Misbehaviour).
 http://arma.sourceforge.net/

 Q-Chem begins on Fri Mar  4 23:54:53 2022  

 Host: node01
0

     Scratch files written to /src/jdavis/qchem.scratch/qchem17407//
 Processing $rem in /src/tsommerfeld/qchem/config/preferences:
 Processing $rem in /home/jdavis/.qchemrc:

 Checking the input file for inconsistencies... 	...done.

--------------------------------------------------------------
User input:
--------------------------------------------------------------
$molecule
-1 1
C        -0.6645000000    0.0000000000    1.1619088658
C         0.6645000000    0.0000000000    1.1619088658
H        -1.1590800000    0.0000000000    0.1995598658
H         1.1590800000    0.0000000000    0.1995598658
H        -1.1590800000    0.0000000000    2.1242568658
H         1.1590800000    0.0000000000    2.1242568658
O         0.0000000000    0.0000000000   -1.5841414040
H         0.0000000000    0.0000000000   -2.5471307683
$end
$rem
   METHOD adc(2)
   BASIS gen
   PURECART 11
   EE_STATES [0,0,0,10]
   scf_convergence 8
   ADC_DAVIDSON_MAXITER 120
   ADC_DAVIDSON_MAXSUBSPACE 200
   adc_nguess_singles 100
   THRESH 14
   S2THRESH 14
   adc_davidson_conv 5
   adc_davidson_thresh 14
   THREADS 10
   MEM_TOTAL 95000
   STATE_ANALYSIS TRUE
$end
$basis
C 1
S   9   1.00
      6.665000D+03           6.920000D-04
      1.000000D+03           5.329000D-03
      2.280000D+02           2.707700D-02
      6.471000D+01           1.017180D-01
      2.106000D+01           2.747400D-01
      7.495000D+00           4.485640D-01
      2.797000D+00           2.850740D-01
      5.215000D-01           1.520400D-02
      1.596000D-01          -3.191000D-03
S   9   1.00
      6.665000D+03          -1.460000D-04
      1.000000D+03          -1.154000D-03
      2.280000D+02          -5.725000D-03
      6.471000D+01          -2.331200D-02
      2.106000D+01          -6.395500D-02
      7.495000D+00          -1.499810D-01
      2.797000D+00          -1.272620D-01
      5.215000D-01           5.445290D-01
      1.596000D-01           5.804960D-01
S   1   1.00
      1.596000D-01           1.000000D+00
S   1   1.00
      0.0469000              1.0000000
P   4   1.00
      9.439000D+00           3.810900D-02
      2.002000D+00           2.094800D-01
      5.456000D-01           5.085570D-01
      1.517000D-01           4.688420D-01
P   1   1.00
      1.517000D-01           1.000000D+00
P   1   1.00
      0.0294206      1.0000000
P   1   1.00
      0.0147103      1.0000000
P   1   1.00
      0.0073552      1.0000000
D   1   1.00
      5.500000D-01           1.0000000
****
C 2
S   9   1.00
      6.665000D+03           6.920000D-04
      1.000000D+03           5.329000D-03
      2.280000D+02           2.707700D-02
      6.471000D+01           1.017180D-01
      2.106000D+01           2.747400D-01
      7.495000D+00           4.485640D-01
      2.797000D+00           2.850740D-01
      5.215000D-01           1.520400D-02
      1.596000D-01          -3.191000D-03
S   9   1.00
      6.665000D+03          -1.460000D-04
      1.000000D+03          -1.154000D-03
      2.280000D+02          -5.725000D-03
      6.471000D+01          -2.331200D-02
      2.106000D+01          -6.395500D-02
      7.495000D+00          -1.499810D-01
      2.797000D+00          -1.272620D-01
      5.215000D-01           5.445290D-01
      1.596000D-01           5.804960D-01
S   1   1.00
      1.596000D-01           1.000000D+00
S   1   1.00
      0.0469000              1.0000000
P   4   1.00
      9.439000D+00           3.810900D-02
      2.002000D+00           2.094800D-01
      5.456000D-01           5.085570D-01
      1.517000D-01           4.688420D-01
P   1   1.00
      1.517000D-01           1.000000D+00
P   1   1.00
      0.0294206      1.0000000
P   1   1.00
      0.0147103      1.0000000
P   1   1.00
      0.0073552      1.0000000
D   1   1.00
      5.500000D-01           1.0000000
****
H 3
cc-pVDZ
****
H 4
cc-pVDZ
****
H 5
cc-pVDZ
****
H 6
cc-pVDZ
****
O 7
aug-cc-pVDZ
****
H 8
cc-pVDZ
****
$end
--------------------------------------------------------------
 ----------------------------------------------------------------
             Standard Nuclear Orientation (Angstroms)
    I     Atom           X                Y                Z
 ----------------------------------------------------------------
    1      C      -0.6645000000    -0.0000000000     1.0270977517
    2      C       0.6645000000     0.0000000000     1.0270977517
    3      H      -1.1590800000    -0.0000000000     0.0647487517
    4      H       1.1590800000     0.0000000000     0.0647487517
    5      H      -1.1590800000    -0.0000000000     1.9894457517
    6      H       1.1590800000     0.0000000000     1.9894457517
    7      O       0.0000000000    -0.0000000000    -1.7189525181
    8      H       0.0000000000    -0.0000000000    -2.6819418824
 ----------------------------------------------------------------
 Molecular Point Group                 C2v   NOp =  4
 Largest Abelian Subgroup              C2v   NOp =  4
 Nuclear Repulsion Energy =          64.38561153 hartrees
 There are       13 alpha and       13 beta electrons
 Requested basis set is non-standard
 There are 44 shells and 96 basis functions
 Total memory of 95000 MB is distributed as follows: 
   MEM_STATIC is set to 192 MB
   QALLOC/CCMAN JOB total memory use is  94808 MB
 Warning: actual memory use might exceed 95000 MB

 Total QAlloc Memory Limit  95000 MB
 Mega-Array Size       188 MB
 MEM_STATIC part       192 MB

                       Distance Matrix (Angstroms)
             C (  1)   C (  2)   H (  3)   H (  4)   H (  5)   H (  6)
   C (  2)  1.329000
   H (  3)  1.082000  2.061931
   H (  4)  2.061931  1.082000  2.318160
   H (  5)  1.082000  2.061931  1.924697  3.013026
   H (  6)  2.061931  1.082000  3.013026  1.924697  2.318160
   O (  7)  2.825306  2.825306  2.127218  2.127218  3.885316  3.885316
   H (  8)  3.768094  3.768094  2.981237  2.981237  4.813037  4.813037
             O (  7)
   H (  8)  0.962989
 
 A cutoff of  1.0D-14 yielded    990 shell pairs
 There are      4750 function pairs (      5164 Cartesian)
 Smallest overlap matrix eigenvalue = 8.24E-04

 Scale SEOQF with 1.000000e-02/1.000000e-02/1.000000e-02

 Standard Electronic Orientation quadrupole field applied
 Nucleus-field energy     =    -0.0000000005 hartrees
 ================ Generating on-the-fly SAD Guess ================
Attempting to make child job directory: /src/jdavis/qchem.scratch/qchem17407//Frg1/
Attempting to make child job directory: /src/jdavis/qchem.scratch/qchem17407//Frg2/
Attempting to make child job directory: /src/jdavis/qchem.scratch/qchem17407//Frg3/
Creating input file /src/jdavis/qchem.scratch/qchem17407/Frg1.input
using default PutDataFrgm: nothing
calling putenv with: QCSCRATCH=/src/jdavis/qchem.scratch/qchem17407/ 
Spawning Job For Fragment 0
Done Job For Fragment 0
calling putenv with: QCSCRATCH=/src/jdavis/qchem.scratch 
calling putenv with: QCTHREADS=1 
Creating input file /src/jdavis/qchem.scratch/qchem17407/Frg2.input
using default PutDataFrgm: nothing
calling putenv with: QCSCRATCH=/src/jdavis/qchem.scratch/qchem17407/ 
Spawning Job For Fragment 1
Done Job For Fragment 1
calling putenv with: QCSCRATCH=/src/jdavis/qchem.scratch 
calling putenv with: QCTHREADS=1 
Creating input file /src/jdavis/qchem.scratch/qchem17407/Frg3.input
using default PutDataFrgm: nothing
calling putenv with: QCSCRATCH=/src/jdavis/qchem.scratch/qchem17407/ 
Spawning Job For Fragment 2
Done Job For Fragment 2
calling putenv with: QCSCRATCH=/src/jdavis/qchem.scratch 
calling putenv with: QCTHREADS=1 
 Time for running child jobs:  CPU 1.76 s  wall 80.84 s
 ============= Method Specific SAD Guess Constructed =============
 Guess from on-the-fly superposition of atomic densities
 Warning: Energy on first SCF cycle will be non-variational
 A restricted Hartree-Fock SCF calculation will be
 performed using Pulay DIIS extrapolation
 SCF converges when DIIS error is below 1.0E-08
 using 10 threads for integral computing
 -------------------------------------------------------
 OpenMP Integral computing Module                
 Release: version 1.0, May 2013, Q-Chem Inc. Pittsburgh 
 -------------------------------------------------------
 ---------------------------------------
  Cycle       Energy         DIIS Error
 ---------------------------------------
    1    -153.5741900545      5.61E-02
    2    -153.2896874427      1.15E-02
    3    -153.3526912326      9.73E-03
    4    -153.4400266135      7.38E-04
    5    -153.4410160825      2.01E-04
    6    -153.4410932955      4.32E-05
    7    -153.4410987812      1.14E-05
    8    -153.4410993483      3.45E-06
    9    -153.4410993967      6.64E-07
   10    -153.4410993984      1.32E-07
   11    -153.4410993984      4.50E-08
   12    -153.4410993985      1.41E-08
   13    -153.4410993985      2.47E-09 Convergence criterion met
 ---------------------------------------
 SCF time:  CPU 15.88 s  wall 1.60 s
 SCF   energy in the final basis set = -153.44109940
 Total energy in the final basis set = -153.44109940
================================================================================
|                                                                              |
|                                 A D C  M A N                                 |
|                                                                              |
 ------------------------------------------------------------------------------ 
|                                                                              |
| Components:                                                                  |
|                                                                              |
| - libvmm - 1.3-trunk                                                         |
|   Authors:                                                                   |
|   Evgeny Epifanovsky, Ilya Kaliman                                           |
|                                                                              |
| - libtensor - 2.5-trunk                                                      |
|   Authors:                                                                   |
|   Evgeny Epifanovsky, Michael Wormit, Dmitry Zuev, Sam Manzer,               |
|   Ilya Kaliman                                                               |
|                                                                              |
| - libwfa - 1.1-trunk                                                         |
|   Authors:                                                                   |
|   Felix Plasser, Stefanie Mewes (Baeppler), Benjamin Thomitzni,              |
|   Michael Wormit, Feng Chen, Anna I. Krylov, Pavel Pokhilko                  |
|                                                                              |
| - libadc - 1.1-trunk                                                         |
|   Authors:                                                                   |
|   Michael Wormit, Adrian L. Dempwolff, Philipp H. P. Harbach,                |
|   Caroline Krauter, Dirk Rehn, Matthias Schneider, Jan Wenzel                |
|                                                                              |
| - adcman - 2.6-trunk                                                         |
|   Authors:                                                                   |
|   Michael Wormit, Adrian L. Dempwolff, Philipp H. P. Harbach,                |
|   Caroline Krauter, Daniel Lefrancois, Jan-Michael Mewes, Dirk Rehn,         |
|   Matthias Schneider, Jan Wenzel, Andreas Dreuw                              |
|                                                                              |
| Authors of earlier versions of ADCMAN:                                       |
| Andreas Dreuw, Jan Hendrik Starcke, Dirk Rehn, Michael Wormit                |
|                                                                              |
================================================================================

 
 Alpha MOs, Restricted
 -- Occupied --                  
-20.213 -11.049 -11.047  -0.930  -0.854  -0.598  -0.473  -0.384
  1 A1    2 A1    1 B1    3 A1    4 A1    2 B1    5 A1    6 A1                 
 -0.328  -0.271  -0.194  -0.129  -0.128
  3 B1    7 A1    1 B2    4 B1    2 B2                                         
 -- Virtual --                   
  0.071   0.079   0.079   0.079   0.083   0.098   0.129   0.144
  5 B1    1 A2    8 A1    3 B2    6 B1    9 A1    7 B1   10 A1                 
  0.148   0.149   0.150   0.160   0.221   0.229   0.260   0.270
 11 A1    2 A2    4 B2    8 B1   12 A1    9 B1    3 A2   13 A1                 
  0.283   0.294   0.326   0.359   0.393   0.430   0.450   0.471
 10 B1    5 B2   14 A1   15 A1    4 A2   11 B1    6 B2   16 A1                 
  0.473   0.530   0.538   0.580   0.620   0.651   0.690   0.832
 12 B1   17 A1   13 B1   18 A1   14 B1   19 A1   15 B1   20 A1                 
  0.959   0.994   1.055   1.059   1.083   1.132   1.184   1.200
 21 A1    7 B2   22 A1    5 A2   23 A1   16 B1   17 B1   18 B1                 
  1.203   1.216   1.290   1.291   1.331   1.331   1.370   1.467
  8 B2   24 A1   25 A1    6 A2   26 A1   19 B1    9 B2   10 B2                 
  1.470   1.483   1.561   1.643   1.691   1.719   1.850   1.927
 20 B1    7 A2   21 B1   27 A1   22 B1   11 B2   28 A1   23 B1                 
  1.963   2.031   2.123   2.124   2.140   2.192   2.212   2.284
 29 A1    8 A2   12 B2   30 A1   24 B1   31 A1   13 B2   32 A1                 
  2.356   2.393   2.436   2.473   2.552   2.604   2.722   2.749
  9 A2   14 B2   25 B1   26 B1   33 A1   10 A2   27 B1   34 A1                 
  2.847   3.008   3.036   3.086   3.455   3.562   3.921   3.945
 28 B1   35 A1   36 A1   37 A1   29 B1   30 B1   15 B2   11 A2                 
  3.970   4.087   4.536
 38 A1   31 B1   39 A1                                                         
 
 Beta MOs, Restricted
 -- Occupied --                  
-20.213 -11.049 -11.047  -0.930  -0.854  -0.598  -0.473  -0.384
  1 A1    2 A1    1 B1    3 A1    4 A1    2 B1    5 A1    6 A1                 
 -0.328  -0.271  -0.194  -0.129  -0.128
  3 B1    7 A1    1 B2    4 B1    2 B2                                         
 -- Virtual --                   
  0.071   0.079   0.079   0.079   0.083   0.098   0.129   0.144
  5 B1    1 A2    8 A1    3 B2    6 B1    9 A1    7 B1   10 A1                 
  0.148   0.149   0.150   0.160   0.221   0.229   0.260   0.270
 11 A1    2 A2    4 B2    8 B1   12 A1    9 B1    3 A2   13 A1                 
  0.283   0.294   0.326   0.359   0.393   0.430   0.450   0.471
 10 B1    5 B2   14 A1   15 A1    4 A2   11 B1    6 B2   16 A1                 
  0.473   0.530   0.538   0.580   0.620   0.651   0.690   0.832
 12 B1   17 A1   13 B1   18 A1   14 B1   19 A1   15 B1   20 A1                 
  0.959   0.994   1.055   1.059   1.083   1.132   1.184   1.200
 21 A1    7 B2   22 A1    5 A2   23 A1   16 B1   17 B1   18 B1                 
  1.203   1.216   1.290   1.291   1.331   1.331   1.370   1.467
  8 B2   24 A1   25 A1    6 A2   26 A1   19 B1    9 B2   10 B2                 
  1.470   1.483   1.561   1.643   1.691   1.719   1.850   1.927
 20 B1    7 A2   21 B1   27 A1   22 B1   11 B2   28 A1   23 B1                 
  1.963   2.031   2.123   2.124   2.140   2.192   2.212   2.284
 29 A1    8 A2   12 B2   30 A1   24 B1   31 A1   13 B2   32 A1                 
  2.356   2.393   2.436   2.473   2.552   2.604   2.722   2.749
  9 A2   14 B2   25 B1   26 B1   33 A1   10 A2   27 B1   34 A1                 
  2.847   3.008   3.036   3.086   3.455   3.562   3.921   3.945
 28 B1   35 A1   36 A1   37 A1   29 B1   30 B1   15 B2   11 A2                 
  3.970   4.087   4.536
 38 A1   31 B1   39 A1                                                         

--------------------------------------------------------------------------------
                                   HF Summary                                   
--------------------------------------------------------------------------------
  Energy:                                                 -153.4410993985 a.u.
  Dip. moment [a.u.]:                  [  -0.000000,    0.000000,    2.074325]
  Total dipole [Debye]:                                               5.272410
  <r^2> [a.u.]:                        [  55.722732,   19.716747,  208.027706]
  Total <r^2> [a.u.]:                                               283.467185
--------------------------------------------------------------------------------

--------------------------------------------------------------------------------
                                 MP(2) Summary                                  
--------------------------------------------------------------------------------
  MP energy contribution:                                   -0.5275424589 a.u.
  Total energy:                                           -153.9686418574 a.u.
  Dip. moment [a.u.]:                  [  -0.000000,    0.000000,    2.141259]
  Total dipole [Debye]:                                               5.442538
  <r^2> [a.u.]:                        [  56.722068,   20.432895,  209.293793]
  Total <r^2> [a.u.]:                                               286.448756

  Density matrix analysis:
  ------------------------
  NOs
    Occupation of frontier NOs:
       0.0446   1.9359
    Number of electrons: 26.000000
    Number of unpaired electrons: n_u =  0.71373, n_u,nl =  0.08508
    NO participation ratio (PR_NO): 22.994641
  
  
  Mulliken Population Analysis
  Atom      Charge (e)              h+              e-           Del q
  --------------------------------------------------------------------
   1 C       -0.184146        0.094807       -0.100868       -0.006062
   2 C       -0.184146        0.094807       -0.100868       -0.006062
   3 H        0.179968        0.017281       -0.009958        0.007323
   4 H        0.179968        0.017281       -0.009958        0.007323
   5 H        0.004901        0.018308       -0.013027        0.005280
   6 H        0.004901        0.018308       -0.013027        0.005280
   7 O       -1.052636        0.277130       -0.272823        0.004307
   8 H        0.051190        0.015559       -0.032950       -0.017391
  --------------------------------------------------------------------
  Sum:       -1.000000        0.553480       -0.553480       -0.000000
  
  Multipole moment analysis of the density matrix
    Molecular charge:                      -1.000000
    Number of electrons:                   26.000000
      Center of electronic charge [Ang]: [  0.000000,  -0.000000,  -0.043581]
    Total nuclear charge:                  25.000000
      Center of nuclear charge [Ang]:    [  0.000000,   0.000000,  -0.000000]
    Dipole moment [D]:                     5.442536
      Cartesian components [D]:          [ -0.000000,   0.000000,   5.442536]
    RMS size of the density [Ang]:         1.755918
      Cartesian components [Ang]:        [  0.781611,   0.469115,   1.500754]
  
  Exciton analysis of the difference density matrix
    <r_h> [Ang]:                  [ -0.000000,  -0.000000,  -0.481494]
    <r_e> [Ang]:                  [ -0.000000,  -0.000000,  -0.545489]
    |<r_e - r_h>| [Ang]:            0.063995
    Hole size [Ang]:                1.986710
      Cartesian components [Ang]: [  0.907104,   0.773757,   1.589175]
    Electron size [Ang]:            2.321593
      Cartesian components [Ang]: [  1.152581,   0.980321,   1.760773]
--------------------------------------------------------------------------------
  Starting Davidson for singlet states of irrep B2 ... 
--------------------------------------------------------------------------------
   It NVec Conv  Avg. Norm  Max. Norm  Conv. states           Remark
--------------------------------------------------------------------------------
       100    0  1.476e-01  5.246e-01  0.2089 n n n n n n n n Guess.
    1  110    0  1.871e-02  1.365e-01  0.0336 n n n n n n n n 
    2  120    0  2.129e-02  2.029e-01  0.0321 n n n n n n n n 
    3  130    0  5.484e-03  4.931e-02  0.0321 n n n n n n n n 
    4  140    0  6.029e-03  5.891e-02  0.0321 n n n n n n n n 
    5  150    4  1.632e-03  1.596e-02  0.0321 y y y n y n n n 
    6  160    5  2.739e-04  2.642e-03  0.0321 y y y y y n n n 
    7  170    7  3.894e-05  3.769e-04  0.0321 y y y y y y y n 
    8  180    8  5.381e-06  5.207e-05  0.0321 y y y y y y y n 
    9  190   10  7.696e-07  7.465e-06  0.0321 y y y y y y y y Converged.
--------------------------------------------------------------------------------
  Davidson Summary: 
 ------------------------------------------------------------
  State  0: excitation energy =   0.0321 a.u.   (converged)
  State  1: excitation energy =   0.0401 a.u.   (converged)
  State  2: excitation energy =   0.0452 a.u.   (converged)
  State  3: excitation energy =   0.0737 a.u.   (converged)
  State  4: excitation energy =   0.0798 a.u.   (converged)
  State  5: excitation energy =   0.0866 a.u.   (converged)
  State  6: excitation energy =   0.1290 a.u.   (converged)
  State  7: excitation energy =   0.1416 a.u.   (converged)
  State  8: excitation energy =   0.1701 a.u.   (converged)
  State  9: excitation energy =   0.1742 a.u.   (converged)
 ------------------------------------------------------------


--------------------------------------------------------------------------------
                   State-averaged natural transition orbitals
--------------------------------------------------------------------------------
--------------------------------------------------------------------------------

--------------------------------------------------------------------------------
                             Excited State Summary
--------------------------------------------------------------------------------
--------------------------------------------------------------------------------

  Excited state 1 (singlet, B2)                                    [converged]
  ----------------------------------------------------------------------------
  Term symbol:  1 (1) B2                                    R^2 =  6.37048e-10

  Total energy:                                           -153.9365212033 a.u.
  Excitation energy:                                               0.874047 eV

  Osc. strength:                                                      0.001018
  Trans. dip. moment [a.u.]:           [  -0.000000,   -0.218060,   -0.000000]
  <i|r^2|0> [a.u.]:                    [   0.000000,   -0.000000,    0.000000]

  Dip. moment [a.u.]:                  [  -0.000000,    0.000000,   -2.484322]
  Total dipole [Debye]:                                               6.314518
  <r^2> [a.u.]:                        [ 107.097833,   68.983831,  352.394342]
  Total <r^2> [a.u.]:                                               528.476006

  V1^2 = 0.8618, V2^2 = 0.1382

  Important amplitudes:
      occ i      occ j       vir a       vir b          v   
    ---------------------------------------------------------
     2 (B2) A               8 (A1) A                 -0.6015
     2 (B2) A               9 (A1) A                  0.1839
    ---------------------------------------------------------

  Density matrix analysis:
  ------------------------
  NOs
    Occupation of frontier NOs:
       0.9594   0.9998
    Number of electrons: 26.000000
    Number of unpaired electrons: n_u =  2.75237, n_u,nl =  2.11778
    NO participation ratio (PR_NO):  3.880937
  
  
  Mulliken Population Analysis
  Atom      Charge (e)              h+              e-           Del q
  --------------------------------------------------------------------
   1 C       -0.682382        0.042608       -0.540845       -0.498236
   2 C       -0.682382        0.042608       -0.540845       -0.498236
   3 H        0.142590       -0.003742       -0.033636       -0.037378
   4 H        0.142590       -0.003742       -0.033636       -0.037378
   5 H        0.040206        0.036376       -0.001070        0.035306
   6 H        0.040206        0.036376       -0.001070        0.035306
   7 O       -0.181471        1.407087       -0.535922        0.871165
   8 H        0.180642        0.150667       -0.021215        0.129452
  --------------------------------------------------------------------
  Sum:       -1.000000        1.708238       -1.708238       -0.000000
  
  Multipole moment analysis of the density matrix
    Molecular charge:                      -1.000000
    Number of electrons:                   26.000000
      Center of electronic charge [Ang]: [  0.000000,  -0.000000,   0.050563]
    Total nuclear charge:                  25.000000
      Center of nuclear charge [Ang]:    [  0.000000,   0.000000,  -0.000000]
    Dipole moment [D]:                     6.314516
      Cartesian components [D]:          [ -0.000000,   0.000000,  -6.314516]
    RMS size of the density [Ang]:         2.385226
      Cartesian components [Ang]:        [  1.074001,   0.861962,   1.947523]
  
  Exciton analysis of the difference density matrix
    <r_h> [Ang]:                  [  0.000000,  -0.000000,  -1.494535]
    <r_e> [Ang]:                  [  0.000000,  -0.000000,  -0.061624]
    |<r_e - r_h>| [Ang]:            1.432911
    Hole size [Ang]:                1.808012
      Cartesian components [Ang]: [  0.867919,   0.902059,   1.304574]
    Electron size [Ang]:            6.721150
      Cartesian components [Ang]: [  3.001882,   2.961855,   5.233544]

  Transition density matrix analysis:
  -----------------------------------
  
  CT numbers (Mulliken)
    omega =     0.8474
    <Phe> =    -0.0002
  
  Exciton analysis of the transition density matrix
    Trans. dipole moment [D]:             0.277126
      Cartesian components [D]:         [ -0.000000,  -0.277126,  -0.000000]
    <r_h> [Ang]:                        [ -0.000000,  -0.000000,  -1.746453]
    <r_e> [Ang]:                        [  0.000000,  -0.000000,   0.766469]
    |<r_e - r_h>| [Ang]:                  2.512922
    Hole size [Ang]:                      1.098494
      Cartesian components [Ang]:       [  0.479815,   0.828737,   0.538202]
    Electron size [Ang]:                  8.548590
      Cartesian components [Ang]:       [  3.842149,   3.813117,   6.616376]
    RMS electron-hole separation [Ang]:   8.977283
      Cartesian components [Ang]:       [  3.871890,   3.901987,   7.097504]
    Covariance(r_h, r_e) [Ang^2]:         0.004128
    Correlation coefficient:              0.000440
    Center-of-mass size [Ang]:            4.309679
      Cartesian components [Ang]:       [  1.936047,   1.951143,   3.319352]

  Decomposition into state-averaged NTOs
    H- 0 -> L+ 7: -0.4816 ( 46.4%)
    H- 0 -> L+ 2: -0.3719 ( 27.7%)
    H- 0 -> L+ 8:  0.1890 (  7.1%)
    H- 0 -> L+ 0:  0.1152 (  2.7%)
                   omega =  84.7%
  ----------------------------------------------------------------------------


  Excited state 2 (singlet, B2)                                    [converged]
  ----------------------------------------------------------------------------
  Term symbol:  2 (1) B2                                    R^2 =  1.08313e-09

  Total energy:                                           -153.9285580809 a.u.
  Excitation energy:                                               1.090735 eV

  Osc. strength:                                                      0.000192
  Trans. dip. moment [a.u.]:           [   0.000000,    0.084738,    0.000000]
  <i|r^2|0> [a.u.]:                    [  -0.000000,   -0.000000,   -0.000000]

  Dip. moment [a.u.]:                  [  -0.000000,   -0.000000,   -2.895892]
  Total dipole [Debye]:                                               7.360625
  <r^2> [a.u.]:                        [ 190.913206,  155.274196,  243.071086]
  Total <r^2> [a.u.]:                                               589.258488

  V1^2 = 0.8587, V2^2 = 0.1413

  Important amplitudes:
      occ i      occ j       vir a       vir b          v   
    ---------------------------------------------------------
     4 (B1) A               1 (A2) A                 -0.6481
     4 (B1) A               2 (A2) A                 -0.0933
    ---------------------------------------------------------

  Density matrix analysis:
  ------------------------
  NOs
    Occupation of frontier NOs:
       0.9590   0.9998
    Number of electrons: 26.000000
    Number of unpaired electrons: n_u =  2.75521, n_u,nl =  2.11863
    NO participation ratio (PR_NO):  3.890150
  
  
  Mulliken Population Analysis
  Atom      Charge (e)              h+              e-           Del q
  --------------------------------------------------------------------
   1 C       -0.673683        0.051712       -0.541250       -0.489537
   2 C       -0.673683        0.051712       -0.541250       -0.489537
   3 H        0.132566       -0.007279       -0.040122       -0.047401
   4 H        0.132566       -0.007279       -0.040122       -0.047401
   5 H        0.041069        0.038219       -0.002050        0.036169
   6 H        0.041069        0.038219       -0.002050        0.036169
   7 O       -0.169318        1.413695       -0.530377        0.883318
   8 H        0.169412        0.144705       -0.026484        0.118221
  --------------------------------------------------------------------
  Sum:       -1.000000        1.723706       -1.723706       -0.000000
  
  Multipole moment analysis of the density matrix
    Molecular charge:                      -1.000000
    Number of electrons:                   26.000000
      Center of electronic charge [Ang]: [  0.000000,   0.000000,   0.058940]
    Total nuclear charge:                  25.000000
      Center of nuclear charge [Ang]:    [  0.000000,   0.000000,  -0.000000]
    Dipole moment [D]:                     7.360622
      Cartesian components [D]:          [ -0.000000,  -0.000000,  -7.360622]
    RMS size of the density [Ang]:         2.518538
      Cartesian components [Ang]:        [  1.433945,   1.293195,   1.616936]
  
  Exciton analysis of the difference density matrix
    <r_h> [Ang]:                  [ -0.000000,  -0.000000,  -1.465077]
    <r_e> [Ang]:                  [  0.000000,   0.000000,   0.081327]
    |<r_e - r_h>| [Ang]:            1.546404
    Hole size [Ang]:                1.826082
      Cartesian components [Ang]: [  0.949292,   0.817506,   1.328572]
    Electron size [Ang]:            7.393785
      Cartesian components [Ang]: [  4.764607,   4.751238,   3.064687]

  Transition density matrix analysis:
  -----------------------------------
  
  CT numbers (Mulliken)
    omega =     0.8444
    <Phe> =     0.0000
  
  Exciton analysis of the transition density matrix
    Trans. dipole moment [D]:             0.107692
      Cartesian components [D]:         [  0.000000,   0.107692,   0.000000]
    <r_h> [Ang]:                        [  0.000000,  -0.000000,  -1.727170]
    <r_e> [Ang]:                        [  0.000000,   0.000000,   1.027235]
    |<r_e - r_h>| [Ang]:                  2.754405
    Hole size [Ang]:                      1.142704
      Cartesian components [Ang]:       [  0.828391,   0.475812,   0.627012]
    Electron size [Ang]:                  9.473001
      Cartesian components [Ang]:       [  6.210009,   6.195036,   3.577020]
    RMS electron-hole separation [Ang]:   9.930861
      Cartesian components [Ang]:       [  6.264398,   6.213240,   4.557956]
    Covariance(r_h, r_e) [Ang^2]:         0.004132
    Correlation coefficient:              0.000382
    Center-of-mass size [Ang]:            4.771053
      Cartesian components [Ang]:       [  3.132818,   3.106661,   1.815779]

  Decomposition into state-averaged NTOs
    H- 1 -> L+ 9:  0.5324 ( 56.7%)
    H- 1 -> L+ 6:  0.3006 ( 18.1%)
    H- 1 -> L+ 3: -0.2198 (  9.7%)
                   omega =  84.4%
  ----------------------------------------------------------------------------


  Excited state 3 (singlet, B2)                                    [converged]
  ----------------------------------------------------------------------------
  Term symbol:  3 (1) B2                                    R^2 =  2.01180e-09

  Total energy:                                           -153.9234702487 a.u.
  Excitation energy:                                               1.229182 eV

  Osc. strength:                                                      0.003576
  Trans. dip. moment [a.u.]:           [  -0.000000,    0.344619,   -0.000000]
  <i|r^2|0> [a.u.]:                    [   0.000000,    0.000000,    0.000000]

  Dip. moment [a.u.]:                  [   0.000000,   -0.000000,   -3.377127]
  Total dipole [Debye]:                                               8.583802
  <r^2> [a.u.]:                        [ 195.266237,   69.950926,  251.980513]
  Total <r^2> [a.u.]:                                               517.197676

  V1^2 = 0.8622, V2^2 = 0.1378

  Important amplitudes:
      occ i      occ j       vir a       vir b          v   
    ---------------------------------------------------------
     2 (B2) A               9 (A1) A                 -0.5943
     2 (B2) A               8 (A1) A                 -0.2172
    ---------------------------------------------------------

  Density matrix analysis:
  ------------------------
  NOs
    Occupation of frontier NOs:
       0.9596   0.9989
    Number of electrons: 26.000000
    Number of unpaired electrons: n_u =  2.75239, n_u,nl =  2.11767
    NO participation ratio (PR_NO):  3.883802
  
  
  Mulliken Population Analysis
  Atom      Charge (e)              h+              e-           Del q
  --------------------------------------------------------------------
   1 C       -0.680813        0.044556       -0.541223       -0.496667
   2 C       -0.680813        0.044556       -0.541223       -0.496667
   3 H        0.138358       -0.003325       -0.038284       -0.041609
   4 H        0.138358       -0.003325       -0.038284       -0.041609
   5 H        0.036849        0.036734       -0.004786        0.031948
   6 H        0.036849        0.036734       -0.004786        0.031948
   7 O       -0.155729        1.407246       -0.510338        0.896907
   8 H        0.166940        0.144766       -0.029017        0.115750
  --------------------------------------------------------------------
  Sum:       -1.000000        1.707941       -1.707941        0.000000
  
  Multipole moment analysis of the density matrix
    Molecular charge:                      -1.000000
    Number of electrons:                   26.000000
      Center of electronic charge [Ang]: [ -0.000000,   0.000000,   0.068735]
    Total nuclear charge:                  25.000000
      Center of nuclear charge [Ang]:    [  0.000000,   0.000000,  -0.000000]
    Dipole moment [D]:                     8.583800
      Cartesian components [D]:          [  0.000000,  -0.000000,  -8.583800]
    RMS size of the density [Ang]:         2.359166
      Cartesian components [Ang]:        [  1.450200,   0.867983,   1.645961]
  
  Exciton analysis of the difference density matrix
    <r_h> [Ang]:                  [  0.000000,  -0.000000,  -1.481882]
    <r_e> [Ang]:                  [ -0.000000,   0.000000,   0.227898]
    |<r_e - r_h>| [Ang]:            1.709780
    Hole size [Ang]:                1.810141
      Cartesian components [Ang]: [  0.872442,   0.899825,   1.306051]
    Electron size [Ang]:            6.576739
      Cartesian components [Ang]: [  4.845246,   2.988060,   3.293719]

  Transition density matrix analysis:
  -----------------------------------
  
  CT numbers (Mulliken)
    omega =     0.8477
    <Phe> =    -0.0004
  
  Exciton analysis of the transition density matrix
    Trans. dipole moment [D]:             0.437967
      Cartesian components [D]:         [ -0.000000,   0.437967,  -0.000000]
    <r_h> [Ang]:                        [ -0.000000,  -0.000000,  -1.744418]
    <r_e> [Ang]:                        [ -0.000000,   0.000000,   1.250350]
    |<r_e - r_h>| [Ang]:                  2.994768
    Hole size [Ang]:                      1.101000
      Cartesian components [Ang]:       [  0.479851,   0.828330,   0.543888]
    Electron size [Ang]:                  8.303112
      Cartesian components [Ang]:       [  6.276942,   3.849250,   3.837310]
    RMS electron-hole separation [Ang]:   8.893693
      Cartesian components [Ang]:       [  6.295184,   3.935924,   4.896625]
    Covariance(r_h, r_e) [Ang^2]:         0.012368
    Correlation coefficient:              0.001353
    Center-of-mass size [Ang]:            4.188634
      Cartesian components [Ang]:       [  3.147665,   1.969405,   1.938634]

  Decomposition into state-averaged NTOs
    H- 0 -> L+ 5: -0.4500 ( 40.5%)
    H- 0 -> L+ 8:  0.3994 ( 31.9%)
    H- 0 -> L+ 4:  0.1719 (  5.9%)
    H- 0 -> L+ 1: -0.1229 (  3.0%)
    H- 0 -> L+ 0: -0.1087 (  2.4%)
                   omega =  84.8%
  ----------------------------------------------------------------------------


  Excited state 4 (singlet, B2)                                    [converged]
  ----------------------------------------------------------------------------
  Term symbol:  4 (1) B2                                    R^2 =  3.74681e-09

  Total energy:                                           -153.8949716986 a.u.
  Excitation energy:                                               2.004667 eV

  Osc. strength:                                                      0.012177
  Trans. dip. moment [a.u.]:           [  -0.000000,    0.497942,   -0.000000]
  <i|r^2|0> [a.u.]:                    [   0.000000,   -0.000000,    0.000000]

  Dip. moment [a.u.]:                  [  -0.000000,    0.000000,   -3.541406]
  Total dipole [Debye]:                                               9.001357
  <r^2> [a.u.]:                        [  90.365432,   51.086147,  295.252879]
  Total <r^2> [a.u.]:                                               436.704458

  V1^2 = 0.8669, V2^2 = 0.1331

  Important amplitudes:
      occ i      occ j       vir a       vir b          v   
    ---------------------------------------------------------
     2 (B2) A              11 (A1) A                  0.5686
     2 (B2) A              10 (A1) A                 -0.2040
    ---------------------------------------------------------

  Density matrix analysis:
  ------------------------
  NOs
    Occupation of frontier NOs:
       0.9607   0.9982
    Number of electrons: 26.000000
    Number of unpaired electrons: n_u =  2.74796, n_u,nl =  2.11551
    NO participation ratio (PR_NO):  3.871281
  
  
  Mulliken Population Analysis
  Atom      Charge (e)              h+              e-           Del q
  --------------------------------------------------------------------
   1 C       -0.692182        0.039521       -0.547558       -0.508036
   2 C       -0.692182        0.039521       -0.547558       -0.508036
   3 H        0.138060       -0.003069       -0.038839       -0.041908
   4 H        0.138060       -0.003069       -0.038839       -0.041908
   5 H        0.032558        0.039818       -0.012160        0.027658
   6 H        0.032558        0.039818       -0.012160        0.027658
   7 O       -0.081228        1.401472       -0.430065        0.971408
   8 H        0.124355        0.139661       -0.066496        0.073165
  --------------------------------------------------------------------
  Sum:       -1.000000        1.693674       -1.693674       -0.000000
  
  Multipole moment analysis of the density matrix
    Molecular charge:                      -1.000000
    Number of electrons:                   26.000000
      Center of electronic charge [Ang]: [  0.000000,  -0.000000,   0.072078]
    Total nuclear charge:                  25.000000
      Center of nuclear charge [Ang]:    [  0.000000,   0.000000,  -0.000000]
    Dipole moment [D]:                     9.001355
      Cartesian components [D]:          [ -0.000000,   0.000000,  -9.001355]
    RMS size of the density [Ang]:         2.167546
      Cartesian components [Ang]:        [  0.986542,   0.741764,   1.781790]
  
  Exciton analysis of the difference density matrix
    <r_h> [Ang]:                  [  0.000000,  -0.000000,  -1.471165]
    <r_e> [Ang]:                  [  0.000000,  -0.000000,   0.304345]
    |<r_e - r_h>| [Ang]:            1.775511
    Hole size [Ang]:                1.821376
      Cartesian components [Ang]: [  0.862782,   0.900616,   1.327369]
    Electron size [Ang]:            5.498370
      Cartesian components [Ang]: [  2.511357,   2.424717,   4.248047]

  Transition density matrix analysis:
  -----------------------------------
  
  CT numbers (Mulliken)
    omega =     0.8520
    <Phe> =    -0.0013
  
  Exciton analysis of the transition density matrix
    Trans. dipole moment [D]:             0.632821
      Cartesian components [D]:         [ -0.000000,   0.632821,  -0.000000]
    <r_h> [Ang]:                        [ -0.000000,  -0.000000,  -1.743924]
    <r_e> [Ang]:                        [  0.000000,  -0.000000,   1.333698]
    |<r_e - r_h>| [Ang]:                  3.077623
    Hole size [Ang]:                      1.100225
      Cartesian components [Ang]:       [  0.479363,   0.827148,   0.544547]
    Electron size [Ang]:                  6.786872
      Cartesian components [Ang]:       [  3.168961,   3.082354,   5.149603]
    RMS electron-hole separation [Ang]:   7.531225
      Cartesian components [Ang]:       [  3.204833,   3.190509,   6.022378]
    Covariance(r_h, r_e) [Ang^2]:         0.012273
    Correlation coefficient:              0.001644
    Center-of-mass size [Ang]:            3.438629
      Cartesian components [Ang]:       [  1.602596,   1.596153,   2.590010]

  Decomposition into state-averaged NTOs
    H- 0 -> L+ 2:  0.4113 ( 33.8%)
    H- 0 -> L+ 7: -0.3628 ( 26.3%)
    H- 0 -> L+ 0: -0.2136 (  9.1%)
    H- 0 -> L+ 5:  0.1810 (  6.6%)
    H- 0 -> L+ 4:  0.1583 (  5.0%)
    H- 0 -> L+ 1: -0.1463 (  4.3%)
                   omega =  85.2%
  ----------------------------------------------------------------------------


  Excited state 5 (singlet, B2)                                    [converged]
  ----------------------------------------------------------------------------
  Term symbol:  5 (1) B2                                    R^2 =  9.46649e-10

  Total energy:                                           -153.8888229342 a.u.
  Excitation energy:                                               2.171983 eV

  Osc. strength:                                                      0.000109
  Trans. dip. moment [a.u.]:           [   0.000000,   -0.045221,   -0.000000]
  <i|r^2|0> [a.u.]:                    [   0.000000,    0.000000,    0.000000]

  Dip. moment [a.u.]:                  [   0.000000,   -0.000000,   -3.202353]
  Total dipole [Debye]:                                               8.139572
  <r^2> [a.u.]:                        [ 144.733725,   36.602275,  217.985972]
  Total <r^2> [a.u.]:                                               399.321972

  V1^2 = 0.8653, V2^2 = 0.1347

  Important amplitudes:
      occ i      occ j       vir a       vir b          v   
    ---------------------------------------------------------
     2 (B2) A              10 (A1) A                  0.6107
     2 (B2) A              11 (A1) A                  0.2068
    ---------------------------------------------------------

  Density matrix analysis:
  ------------------------
  NOs
    Occupation of frontier NOs:
       0.9604   0.9989
    Number of electrons: 26.000000
    Number of unpaired electrons: n_u =  2.75006, n_u,nl =  2.11656
    NO participation ratio (PR_NO):  3.875012
  
  
  Mulliken Population Analysis
  Atom      Charge (e)              h+              e-           Del q
  --------------------------------------------------------------------
   1 C       -0.685537        0.044194       -0.545586       -0.501391
   2 C       -0.685537        0.044194       -0.545586       -0.501391
   3 H        0.146924       -0.001363       -0.031681       -0.033044
   4 H        0.146924       -0.001363       -0.031681       -0.033044
   5 H        0.042205        0.036738        0.000565        0.037304
   6 H        0.042205        0.036738        0.000565        0.037304
   7 O       -0.178694        1.402899       -0.528957        0.873942
   8 H        0.171512        0.141452       -0.021130        0.120322
  --------------------------------------------------------------------
  Sum:       -1.000000        1.703489       -1.703489        0.000000
  
  Multipole moment analysis of the density matrix
    Molecular charge:                      -1.000000
    Number of electrons:                   26.000000
      Center of electronic charge [Ang]: [ -0.000000,   0.000000,   0.065177]
    Total nuclear charge:                  25.000000
      Center of nuclear charge [Ang]:    [  0.000000,   0.000000,  -0.000000]
    Dipole moment [D]:                     8.139569
      Cartesian components [D]:          [  0.000000,  -0.000000,  -8.139569]
    RMS size of the density [Ang]:         2.072819
      Cartesian components [Ang]:        [  1.248531,   0.627868,   1.530860]
  
  Exciton analysis of the difference density matrix
    <r_h> [Ang]:                  [  0.000000,  -0.000000,  -1.478330]
    <r_e> [Ang]:                  [ -0.000000,   0.000000,   0.181627]
    |<r_e - r_h>| [Ang]:            1.659957
    Hole size [Ang]:                1.800977
      Cartesian components [Ang]: [  0.869207,   0.894585,   1.299120]
    Electron size [Ang]:            4.893944
      Cartesian components [Ang]: [  3.901710,   1.859648,   2.295441]

  Transition density matrix analysis:
  -----------------------------------
  
  CT numbers (Mulliken)
    omega =     0.8507
    <Phe> =     0.0001
  
  Exciton analysis of the transition density matrix
    Trans. dipole moment [D]:             0.057470
      Cartesian components [D]:         [  0.000000,  -0.057470,  -0.000000]
    <r_h> [Ang]:                        [ -0.000000,  -0.000000,  -1.743933]
    <r_e> [Ang]:                        [ -0.000000,   0.000000,   1.171820]
    |<r_e - r_h>| [Ang]:                  2.915753
    Hole size [Ang]:                      1.100768
      Cartesian components [Ang]:       [  0.479559,   0.827673,   0.544676]
    Electron size [Ang]:                  6.015483
      Cartesian components [Ang]:       [  5.031250,   2.342698,   2.320414]
    RMS electron-hole separation [Ang]:   6.774614
      Cartesian components [Ang]:       [  5.053847,   2.484426,   3.765854]
    Covariance(r_h, r_e) [Ang^2]:         0.001973
    Correlation coefficient:              0.000298
    Center-of-mass size [Ang]:            3.057845
      Cartesian components [Ang]:       [  2.527130,   1.242395,   1.191842]

  Decomposition into state-averaged NTOs
    H- 0 -> L+ 4: -0.5981 ( 71.6%)
    H- 0 -> L+ 1: -0.1653 (  5.5%)
    H- 0 -> L+ 8:  0.1363 (  3.7%)
    H- 0 -> L+ 2:  0.1210 (  2.9%)
                   omega =  85.1%
  ----------------------------------------------------------------------------


  Excited state 6 (singlet, B2)                                    [converged]
  ----------------------------------------------------------------------------
  Term symbol:  6 (1) B2                                    R^2 =  2.71350e-08

  Total energy:                                           -153.8820156614 a.u.
  Excitation energy:                                               2.357219 eV

  Osc. strength:                                                      0.002206
  Trans. dip. moment [a.u.]:           [  -0.000000,   -0.195428,   -0.000000]
  <i|r^2|0> [a.u.]:                    [   0.000000,    0.000000,   -0.000000]

  Dip. moment [a.u.]:                  [  -0.000000,    0.000000,   -2.882866]
  Total dipole [Debye]:                                               7.327515
  <r^2> [a.u.]:                        [ 125.153733,   89.760919,  221.419425]
  Total <r^2> [a.u.]:                                               436.334076

  V1^2 = 0.8650, V2^2 = 0.1350

  Important amplitudes:
      occ i      occ j       vir a       vir b          v   
    ---------------------------------------------------------
     4 (B1) A               2 (A2) A                  0.6390
     4 (B1) A               3 (A2) A                 -0.1226
    ---------------------------------------------------------

  Density matrix analysis:
  ------------------------
  NOs
    Occupation of frontier NOs:
       0.9608   0.9986
    Number of electrons: 26.000000
    Number of unpaired electrons: n_u =  2.74989, n_u,nl =  2.11588
    NO participation ratio (PR_NO):  3.874584
  
  
  Mulliken Population Analysis
  Atom      Charge (e)              h+              e-           Del q
  --------------------------------------------------------------------
   1 C       -0.670094        0.051080       -0.537029       -0.485948
   2 C       -0.670094        0.051080       -0.537029       -0.485948
   3 H        0.132510       -0.006510       -0.040948       -0.047458
   4 H        0.132510       -0.006510       -0.040948       -0.047458
   5 H        0.038406        0.035547       -0.002042        0.033505
   6 H        0.038406        0.035547       -0.002042        0.033505
   7 O       -0.166719        1.402093       -0.516176        0.885917
   8 H        0.165075        0.139097       -0.025212        0.113885
  --------------------------------------------------------------------
  Sum:       -1.000000        1.701426       -1.701426       -0.000000
  
  Multipole moment analysis of the density matrix
    Molecular charge:                      -1.000000
    Number of electrons:                   26.000000
      Center of electronic charge [Ang]: [  0.000000,  -0.000000,   0.058675]
    Total nuclear charge:                  25.000000
      Center of nuclear charge [Ang]:    [  0.000000,   0.000000,  -0.000000]
    Dipole moment [D]:                     7.327513
      Cartesian components [D]:          [ -0.000000,   0.000000,  -7.327513]
    RMS size of the density [Ang]:         2.167030
      Cartesian components [Ang]:        [  1.161011,   0.983237,   1.543152]
  
  Exciton analysis of the difference density matrix
    <r_h> [Ang]:                  [ -0.000000,  -0.000000,  -1.468885]
    <r_e> [Ang]:                  [  0.000000,   0.000000,   0.093717]
    |<r_e - r_h>| [Ang]:            1.562602
    Hole size [Ang]:                1.803389
      Cartesian components [Ang]: [  0.942664,   0.804893,   1.309864]
    Electron size [Ang]:            5.483599
      Cartesian components [Ang]: [  3.485887,   3.472488,   2.420801]

  Transition density matrix analysis:
  -----------------------------------
  
  CT numbers (Mulliken)
    omega =     0.8501
    <Phe> =     0.0001
  
  Exciton analysis of the transition density matrix
    Trans. dipole moment [D]:             0.248364
      Cartesian components [D]:         [ -0.000000,  -0.248364,  -0.000000]
    <r_h> [Ang]:                        [  0.000000,  -0.000000,  -1.724473]
    <r_e> [Ang]:                        [  0.000000,  -0.000000,   1.026606]
    |<r_e - r_h>| [Ang]:                  2.751079
    Hole size [Ang]:                      1.144338
      Cartesian components [Ang]:       [  0.827062,   0.475102,   0.632263]
    Electron size [Ang]:                  6.838908
      Cartesian components [Ang]:       [  4.484222,   4.470937,   2.583241]
    RMS electron-hole separation [Ang]:   7.458974
      Cartesian components [Ang]:       [  4.558598,   4.496020,   3.826392]
    Covariance(r_h, r_e) [Ang^2]:         0.006161
    Correlation coefficient:              0.000787
    Center-of-mass size [Ang]:            3.467438
      Cartesian components [Ang]:       [  2.280556,   2.248100,   1.329750]

  Decomposition into state-averaged NTOs
    H- 1 -> L+ 3:  0.6057 ( 73.4%)
    H- 1 -> L+ 9:  0.2403 ( 11.5%)
                   omega =  85.0%
  ----------------------------------------------------------------------------


  Excited state 7 (singlet, B2)                                    [converged]
  ----------------------------------------------------------------------------
  Term symbol:  7 (1) B2                                    R^2 =  4.30710e-08

  Total energy:                                           -153.8396025290 a.u.
  Excitation energy:                                               3.511339 eV

  Osc. strength:                                                      0.004961
  Trans. dip. moment [a.u.]:           [   0.000000,   -0.240131,   -0.000000]
  <i|r^2|0> [a.u.]:                    [   0.000000,    0.000000,    0.000000]

  Dip. moment [a.u.]:                  [  -0.000000,   -0.000000,   -3.505847]
  Total dipole [Debye]:                                               8.910975
  <r^2> [a.u.]:                        [ 110.169291,   36.234920,  224.091687]
  Total <r^2> [a.u.]:                                               370.495898

  V1^2 = 0.8692, V2^2 = 0.1308

  Important amplitudes:
      occ i      occ j       vir a       vir b          v   
    ---------------------------------------------------------
     2 (B2) A              12 (A1) A                  0.6049
     2 (B2) A              14 (A1) A                  0.1786
    ---------------------------------------------------------

  Density matrix analysis:
  ------------------------
  NOs
    Occupation of frontier NOs:
       0.9632   0.9925
    Number of electrons: 26.000000
    Number of unpaired electrons: n_u =  2.75093, n_u,nl =  2.11606
    NO participation ratio (PR_NO):  3.892296
  
  
  Mulliken Population Analysis
  Atom      Charge (e)              h+              e-           Del q
  --------------------------------------------------------------------
   1 C       -0.734317        0.046953       -0.597124       -0.550172
   2 C       -0.734317        0.046953       -0.597124       -0.550172
   3 H        0.161320       -0.000349       -0.018299       -0.018648
   4 H        0.161320       -0.000349       -0.018299       -0.018648
   5 H        0.115210        0.036197        0.074112        0.110309
   6 H        0.115210        0.036197        0.074112        0.110309
   7 O       -0.306847        1.369919       -0.624130        0.745789
   8 H        0.222423        0.136705        0.034528        0.171233
  --------------------------------------------------------------------
  Sum:       -1.000000        1.672225       -1.672225        0.000000
  
  Multipole moment analysis of the density matrix
    Molecular charge:                      -1.000000
    Number of electrons:                   26.000000
      Center of electronic charge [Ang]: [  0.000000,   0.000000,   0.071354]
    Total nuclear charge:                  25.000000
      Center of nuclear charge [Ang]:    [  0.000000,   0.000000,  -0.000000]
    Dipole moment [D]:                     8.910972
      Cartesian components [D]:          [ -0.000000,  -0.000000,  -8.910972]
    RMS size of the density [Ang]:         1.996314
      Cartesian components [Ang]:        [  1.089293,   0.624710,   1.551918]
  
  Exciton analysis of the difference density matrix
    <r_h> [Ang]:                  [  0.000000,  -0.000000,  -1.460478]
    <r_e> [Ang]:                  [  0.000000,   0.000000,   0.326554]
    |<r_e - r_h>| [Ang]:            1.787032
    Hole size [Ang]:                1.773204
      Cartesian components [Ang]: [  0.851962,   0.870686,   1.288534]
    Electron size [Ang]:            4.386916
      Cartesian components [Ang]: [  3.110633,   1.845069,   2.482884]

  Transition density matrix analysis:
  -----------------------------------
  
  CT numbers (Mulliken)
    omega =     0.8529
    <Phe> =    -0.0018
  
  Exciton analysis of the transition density matrix
    Trans. dipole moment [D]:             0.305177
      Cartesian components [D]:         [  0.000000,  -0.305177,  -0.000000]
    <r_h> [Ang]:                        [ -0.000000,  -0.000000,  -1.731839]
    <r_e> [Ang]:                        [  0.000000,   0.000000,   1.351461]
    |<r_e - r_h>| [Ang]:                  3.083300
    Hole size [Ang]:                      1.114864
      Cartesian components [Ang]:       [  0.479729,   0.824796,   0.576622]
    Electron size [Ang]:                  5.235834
      Cartesian components [Ang]:       [  3.941646,   2.307252,   2.560073]
    RMS electron-hole separation [Ang]:   6.174484
      Cartesian components [Ang]:       [  3.970426,   2.448340,   4.045443]
    Covariance(r_h, r_e) [Ang^2]:         0.019682
    Correlation coefficient:              0.003372
    Center-of-mass size [Ang]:            2.678444
      Cartesian components [Ang]:       [  1.985519,   1.226074,   1.314731]

  Decomposition into state-averaged NTOs
    H- 0 -> L+ 8:  0.3981 ( 31.7%)
    H- 0 -> L+ 1:  0.3438 ( 23.6%)
    H- 0 -> L+ 5:  0.2553 ( 13.0%)
    H- 0 -> L+ 2:  0.1995 (  8.0%)
    H- 0 -> L+ 0:  0.1829 (  6.7%)
    H- 0 -> L+ 7:  0.1023 (  2.1%)
                   omega =  85.3%
  ----------------------------------------------------------------------------


  Excited state 8 (singlet, B2)                                    [converged]
  ----------------------------------------------------------------------------
  Term symbol:  8 (1) B2                                    R^2 =  7.46517e-06

  Total energy:                                           -153.8270069711 a.u.
  Excitation energy:                                               3.854081 eV

  Osc. strength:                                                      0.000643
  Trans. dip. moment [a.u.]:           [   0.000000,   -0.082515,   -0.000000]
  <i|r^2|0> [a.u.]:                    [  -0.000000,   -0.000000,    0.000000]

  Dip. moment [a.u.]:                  [  -0.000000,   -0.000000,   -2.816929]
  Total dipole [Debye]:                                               7.159920
  <r^2> [a.u.]:                        [  77.364969,   41.340610,  206.552530]
  Total <r^2> [a.u.]:                                               325.258108

  V1^2 = 0.8694, V2^2 = 0.1306

  Important amplitudes:
      occ i      occ j       vir a       vir b          v   
    ---------------------------------------------------------
     4 (B1) A               3 (A2) A                 -0.6085
     4 (B1) A               4 (A2) A                 -0.2226
    ---------------------------------------------------------

  Density matrix analysis:
  ------------------------
  NOs
    Occupation of frontier NOs:
       0.9652   0.9946
    Number of electrons: 26.000000
    Number of unpaired electrons: n_u =  2.72777, n_u,nl =  2.10387
    NO participation ratio (PR_NO):  3.818147
  
  
  Mulliken Population Analysis
  Atom      Charge (e)              h+              e-           Del q
  --------------------------------------------------------------------
   1 C       -0.611041        0.087724       -0.514619       -0.426895
   2 C       -0.611041        0.087724       -0.514619       -0.426895
   3 H        0.110707       -0.001757       -0.067504       -0.069260
   4 H        0.110707       -0.001757       -0.067504       -0.069260
   5 H        0.004301        0.012249       -0.012848       -0.000600
   6 H        0.004301        0.012249       -0.012848       -0.000600
   7 O       -0.157281        1.356649       -0.461294        0.895355
   8 H        0.149346        0.119660       -0.021504        0.098156
  --------------------------------------------------------------------
  Sum:       -1.000000        1.672741       -1.672741       -0.000000
  
  Multipole moment analysis of the density matrix
    Molecular charge:                      -1.000000
    Number of electrons:                   26.000000
      Center of electronic charge [Ang]: [  0.000000,   0.000000,   0.057333]
    Total nuclear charge:                  25.000000
      Center of nuclear charge [Ang]:    [  0.000000,   0.000000,  -0.000000]
    Dipole moment [D]:                     7.159917
      Cartesian components [D]:          [ -0.000000,  -0.000000,  -7.159917]
    RMS size of the density [Ang]:         1.870788
      Cartesian components [Ang]:        [  0.912823,   0.667272,   1.490420]
  
  Exciton analysis of the difference density matrix
    <r_h> [Ang]:                  [  0.000000,  -0.000000,  -1.424081]
    <r_e> [Ang]:                  [  0.000000,   0.000000,   0.144458]
    |<r_e - r_h>| [Ang]:            1.568539
    Hole size [Ang]:                1.711185
      Cartesian components [Ang]: [  0.902224,   0.750758,   1.245194]
    Electron size [Ang]:            3.381161
      Cartesian components [Ang]: [  2.066343,   2.015871,   1.760324]

  Transition density matrix analysis:
  -----------------------------------
  
  CT numbers (Mulliken)
    omega =     0.8452
    <Phe> =    -0.0006
  
  Exciton analysis of the transition density matrix
    Trans. dipole moment [D]:             0.104867
      Cartesian components [D]:         [  0.000000,  -0.104867,  -0.000000]
    <r_h> [Ang]:                        [  0.000000,  -0.000000,  -1.696160]
    <r_e> [Ang]:                        [  0.000000,   0.000000,   1.026678]
    |<r_e - r_h>| [Ang]:                  2.722838
    Hole size [Ang]:                      1.176765
      Cartesian components [Ang]:       [  0.825135,   0.471987,   0.693654]
    Electron size [Ang]:                  3.889700
      Cartesian components [Ang]:       [  2.570825,   2.523993,   1.466318]
    RMS electron-hole separation [Ang]:   4.889867
      Cartesian components [Ang]:       [  2.697123,   2.567529,   3.169247]
    Covariance(r_h, r_e) [Ang^2]:         0.008794
    Correlation coefficient:              0.001921
    Center-of-mass size [Ang]:            2.032986
      Cartesian components [Ang]:       [  1.351434,   1.283980,   0.811205]

  Decomposition into state-averaged NTOs
    H- 1 -> L+ 6:  0.5756 ( 66.3%)
    H- 1 -> L+ 9: -0.2831 ( 16.0%)
    H- 1 -> L+ 3:  0.1008 (  2.0%)
                   omega =  84.5%
  ----------------------------------------------------------------------------


  Excited state 9 (singlet, B2)                                    [converged]
  ----------------------------------------------------------------------------
  Term symbol:  9 (1) B2                                    R^2 =  1.60409e-06

  Total energy:                                           -153.7985057868 a.u.
  Excitation energy:                                               4.629638 eV

  Osc. strength:                                                      0.019728
  Trans. dip. moment [a.u.]:           [  -0.000000,    0.417046,   -0.000000]
  <i|r^2|0> [a.u.]:                    [  -0.000000,   -0.000000,   -0.000000]

  Dip. moment [a.u.]:                  [   0.000000,    0.000000,   -3.561560]
  Total dipole [Debye]:                                               9.052585
  <r^2> [a.u.]:                        [  77.331302,   35.499410,  246.418903]
  Total <r^2> [a.u.]:                                               359.249615

  V1^2 = 0.8708, V2^2 = 0.1292

  Important amplitudes:
      occ i      occ j       vir a       vir b          v   
    ---------------------------------------------------------
     2 (B2) A              13 (A1) A                  0.6002
     2 (B2) A              14 (A1) A                 -0.1836
    ---------------------------------------------------------

  Density matrix analysis:
  ------------------------
  NOs
    Occupation of frontier NOs:
       0.9637   0.9933
    Number of electrons: 26.000000
    Number of unpaired electrons: n_u =  2.74900, n_u,nl =  2.11518
    NO participation ratio (PR_NO):  3.882179
  
  
  Mulliken Population Analysis
  Atom      Charge (e)              h+              e-           Del q
  --------------------------------------------------------------------
   1 C       -0.819300        0.041134       -0.676288       -0.635154
   2 C       -0.819300        0.041134       -0.676288       -0.635154
   3 H        0.156105       -0.000493       -0.023370       -0.023863
   4 H        0.156105       -0.000493       -0.023370       -0.023863
   5 H        0.069162        0.038641        0.025620        0.064261
   6 H        0.069162        0.038641        0.025620        0.064261
   7 O        0.003394        1.379925       -0.323894        1.056030
   8 H        0.184671        0.133327        0.000154        0.133481
  --------------------------------------------------------------------
  Sum:       -1.000000        1.671816       -1.671816        0.000000
  
  Multipole moment analysis of the density matrix
    Molecular charge:                      -1.000000
    Number of electrons:                   26.000000
      Center of electronic charge [Ang]: [ -0.000000,  -0.000000,   0.072488]
    Total nuclear charge:                  25.000000
      Center of nuclear charge [Ang]:    [  0.000000,   0.000000,  -0.000000]
    Dipole moment [D]:                     9.052582
      Cartesian components [D]:          [  0.000000,   0.000000,  -9.052582]
    RMS size of the density [Ang]:         1.965701
      Cartesian components [Ang]:        [  0.912624,   0.618337,   1.627500]
  
  Exciton analysis of the difference density matrix
    <r_h> [Ang]:                  [  0.000000,  -0.000000,  -1.456650]
    <r_e> [Ang]:                  [ -0.000000,   0.000000,   0.348454]
    |<r_e - r_h>| [Ang]:            1.805104
    Hole size [Ang]:                1.779212
      Cartesian components [Ang]: [  0.833331,   0.873967,   1.306651]
    Electron size [Ang]:            4.166548
      Cartesian components [Ang]: [  2.036290,   1.813134,   3.150585]

  Transition density matrix analysis:
  -----------------------------------
  
  CT numbers (Mulliken)
    omega =     0.8547
    <Phe> =    -0.0013
  
  Exciton analysis of the transition density matrix
    Trans. dipole moment [D]:             0.530012
      Cartesian components [D]:         [ -0.000000,   0.530012,  -0.000000]
    <r_h> [Ang]:                        [ -0.000000,  -0.000000,  -1.728293]
    <r_e> [Ang]:                        [ -0.000000,   0.000000,   1.396711]
    |<r_e - r_h>| [Ang]:                  3.125004
    Hole size [Ang]:                      1.119370
      Cartesian components [Ang]:       [  0.479894,   0.824934,   0.584958]
    Electron size [Ang]:                  4.914433
      Cartesian components [Ang]:       [  2.524210,   2.264670,   3.556865]
    RMS electron-hole separation [Ang]:   5.926832
      Cartesian components [Ang]:       [  2.569099,   2.408967,   4.766965]
    Covariance(r_h, r_e) [Ang^2]:         0.021476
    Correlation coefficient:              0.003904
    Center-of-mass size [Ang]:            2.522280
      Cartesian components [Ang]:       [  1.284873,   1.205754,   1.804759]

  Decomposition into state-averaged NTOs
    H- 0 -> L+ 1: -0.3898 ( 30.4%)
    H- 0 -> L+ 5:  0.3432 ( 23.6%)
    H- 0 -> L+ 8:  0.2195 (  9.6%)
    H- 0 -> L+ 7:  0.2062 (  8.5%)
    H- 0 -> L+ 2: -0.2007 (  8.1%)
    H- 0 -> L+ 0: -0.1413 (  4.0%)
    H- 0 -> L+ 4:  0.0746 (  1.1%)
                   omega =  85.5%
  ----------------------------------------------------------------------------


  Excited state 10 (singlet, B2)                                    [converged]
  ----------------------------------------------------------------------------
  Term symbol:  10 (1) B2                                   R^2 =  9.59944e-07

  Total energy:                                           -153.7944609177 a.u.
  Excitation energy:                                               4.739704 eV

  Osc. strength:                                                      0.022098
  Trans. dip. moment [a.u.]:           [   0.000000,   -0.436234,    0.000000]
  <i|r^2|0> [a.u.]:                    [   0.000000,   -0.000000,   -0.000000]

  Dip. moment [a.u.]:                  [  -0.000000,   -0.000000,    1.749274]
  Total dipole [Debye]:                                               4.446212
  <r^2> [a.u.]:                        [  78.003556,   28.495214,  230.167391]
  Total <r^2> [a.u.]:                                               336.666161

  V1^2 = 0.8962, V2^2 = 0.1038

  Important amplitudes:
      occ i      occ j       vir a       vir b          v   
    ---------------------------------------------------------
     2 (B2) A              15 (A1) A                 -0.4453
     2 (B2) A              14 (A1) A                  0.4073
    ---------------------------------------------------------

  Density matrix analysis:
  ------------------------
  NOs
    Occupation of frontier NOs:
       0.9668   0.9962
    Number of electrons: 26.000000
    Number of unpaired electrons: n_u =  2.71588, n_u,nl =  2.10199
    NO participation ratio (PR_NO):  3.773631
  
  
  Mulliken Population Analysis
  Atom      Charge (e)              h+              e-           Del q
  --------------------------------------------------------------------
   1 C       -0.289488        0.031450       -0.136792       -0.105342
   2 C       -0.289488        0.031450       -0.136792       -0.105342
   3 H        0.141517        0.001639       -0.040089       -0.038450
   4 H        0.141517        0.001639       -0.040089       -0.038450
   5 H        0.022770        0.021434       -0.003565        0.017869
   6 H        0.022770        0.021434       -0.003565        0.017869
   7 O       -1.662711        1.239992       -1.850066       -0.610075
   8 H        0.913111        0.189854        0.672067        0.861921
  --------------------------------------------------------------------
  Sum:       -1.000000        1.538892       -1.538892        0.000000
  
  Multipole moment analysis of the density matrix
    Molecular charge:                      -1.000000
    Number of electrons:                   26.000000
      Center of electronic charge [Ang]: [  0.000000,   0.000000,  -0.035603]
    Total nuclear charge:                  25.000000
      Center of nuclear charge [Ang]:    [  0.000000,   0.000000,  -0.000000]
    Dipole moment [D]:                     4.446211
      Cartesian components [D]:          [ -0.000000,  -0.000000,   4.446211]
    RMS size of the density [Ang]:         1.903874
      Cartesian components [Ang]:        [  0.916583,   0.553988,   1.574075]
  
  Exciton analysis of the difference density matrix
    <r_h> [Ang]:                  [ -0.000000,  -0.000000,  -1.570379]
    <r_e> [Ang]:                  [  0.000000,   0.000000,  -1.435587]
    |<r_e - r_h>| [Ang]:            0.134791
    Hole size [Ang]:                1.706611
      Cartesian components [Ang]: [  0.853937,   0.897099,   1.174106]
    Electron size [Ang]:            3.529255
      Cartesian components [Ang]: [  2.145169,   1.507272,   2.362630]

  Transition density matrix analysis:
  -----------------------------------
  
  CT numbers (Mulliken)
    omega =     0.8778
    <Phe> =    -0.0111
  
  Exciton analysis of the transition density matrix
    Trans. dipole moment [D]:             0.554398
      Cartesian components [D]:         [  0.000000,  -0.554398,   0.000000]
    <r_h> [Ang]:                        [ -0.000000,  -0.000000,  -1.745719]
    <r_e> [Ang]:                        [  0.000000,   0.000000,  -1.583705]
    |<r_e - r_h>| [Ang]:                  0.162014
    Hole size [Ang]:                      1.088225
      Cartesian components [Ang]:       [  0.475365,   0.820763,   0.533487]
    Electron size [Ang]:                  4.134604
      Cartesian components [Ang]:       [  2.530629,   1.764297,   2.752839]
    RMS electron-hole separation [Ang]:   4.269657
      Cartesian components [Ang]:       [  2.574549,   1.944551,   2.796496]
    Covariance(r_h, r_e) [Ang^2]:         0.037731
    Correlation coefficient:              0.008386
    Center-of-mass size [Ang]:            2.142116
      Cartesian components [Ang]:       [  1.287615,   0.973591,   1.408130]

  Decomposition into state-averaged NTOs
    H- 0 -> L+ 0:  0.5630 ( 63.4%)
    H- 0 -> L+ 1: -0.3052 ( 18.6%)
    H- 0 -> L+ 2:  0.1357 (  3.7%)
    H- 0 -> L+ 4:  0.0851 (  1.4%)
                   omega =  87.8%
  ----------------------------------------------------------------------------


--------------------------------------------------------------------------------
  Time of ADC calculation:  CPU 237.52 s  wall 64.00 s
================================================================================
 
 --------------------------------------------------------------
             Orbital Energies (a.u.) and Symmetries
 --------------------------------------------------------------
 
 Alpha MOs, Restricted
 -- Occupied --                  
-20.213 -11.049 -11.047  -0.930  -0.854  -0.598  -0.473  -0.384
  1 A1    2 A1    1 B1    3 A1    4 A1    2 B1    5 A1    6 A1                 
 -0.328  -0.271  -0.194  -0.129  -0.128
  3 B1    7 A1    1 B2    4 B1    2 B2                                         
 -- Virtual --                   
  0.071   0.079   0.079   0.079   0.083   0.098   0.129   0.144
  5 B1    1 A2    8 A1    3 B2    6 B1    9 A1    7 B1   10 A1                 
  0.148   0.149   0.150   0.160   0.221   0.229   0.260   0.270
 11 A1    2 A2    4 B2    8 B1   12 A1    9 B1    3 A2   13 A1                 
  0.283   0.294   0.326   0.359   0.393   0.430   0.450   0.471
 10 B1    5 B2   14 A1   15 A1    4 A2   11 B1    6 B2   16 A1                 
  0.473   0.530   0.538   0.580   0.620   0.651   0.690   0.832
 12 B1   17 A1   13 B1   18 A1   14 B1   19 A1   15 B1   20 A1                 
  0.959   0.994   1.055   1.059   1.083   1.132   1.184   1.200
 21 A1    7 B2   22 A1    5 A2   23 A1   16 B1   17 B1   18 B1                 
  1.203   1.216   1.290   1.291   1.331   1.331   1.370   1.467
  8 B2   24 A1   25 A1    6 A2   26 A1   19 B1    9 B2   10 B2                 
  1.470   1.483   1.561   1.643   1.691   1.719   1.850   1.927
 20 B1    7 A2   21 B1   27 A1   22 B1   11 B2   28 A1   23 B1                 
  1.963   2.031   2.123   2.124   2.140   2.192   2.212   2.284
 29 A1    8 A2   12 B2   30 A1   24 B1   31 A1   13 B2   32 A1                 
  2.356   2.393   2.436   2.473   2.552   2.604   2.722   2.749
  9 A2   14 B2   25 B1   26 B1   33 A1   10 A2   27 B1   34 A1                 
  2.847   3.008   3.036   3.086   3.455   3.562   3.921   3.945
 28 B1   35 A1   36 A1   37 A1   29 B1   30 B1   15 B2   11 A2                 
  3.970   4.087   4.536
 38 A1   31 B1   39 A1                                                         
 
 Beta MOs, Restricted
 -- Occupied --                  
-20.213 -11.049 -11.047  -0.930  -0.854  -0.598  -0.473  -0.384
  1 A1    2 A1    1 B1    3 A1    4 A1    2 B1    5 A1    6 A1                 
 -0.328  -0.271  -0.194  -0.129  -0.128
  3 B1    7 A1    1 B2    4 B1    2 B2                                         
 -- Virtual --                   
  0.071   0.079   0.079   0.079   0.083   0.098   0.129   0.144
  5 B1    1 A2    8 A1    3 B2    6 B1    9 A1    7 B1   10 A1                 
  0.148   0.149   0.150   0.160   0.221   0.229   0.260   0.270
 11 A1    2 A2    4 B2    8 B1   12 A1    9 B1    3 A2   13 A1                 
  0.283   0.294   0.326   0.359   0.393   0.430   0.450   0.471
 10 B1    5 B2   14 A1   15 A1    4 A2   11 B1    6 B2   16 A1                 
  0.473   0.530   0.538   0.580   0.620   0.651   0.690   0.832
 12 B1   17 A1   13 B1   18 A1   14 B1   19 A1   15 B1   20 A1                 
  0.959   0.994   1.055   1.059   1.083   1.132   1.184   1.200
 21 A1    7 B2   22 A1    5 A2   23 A1   16 B1   17 B1   18 B1                 
  1.203   1.216   1.290   1.291   1.331   1.331   1.370   1.467
  8 B2   24 A1   25 A1    6 A2   26 A1   19 B1    9 B2   10 B2                 
  1.470   1.483   1.561   1.643   1.691   1.719   1.850   1.927
 20 B1    7 A2   21 B1   27 A1   22 B1   11 B2   28 A1   23 B1                 
  1.963   2.031   2.123   2.124   2.140   2.192   2.212   2.284
 29 A1    8 A2   12 B2   30 A1   24 B1   31 A1   13 B2   32 A1                 
  2.356   2.393   2.436   2.473   2.552   2.604   2.722   2.749
  9 A2   14 B2   25 B1   26 B1   33 A1   10 A2   27 B1   34 A1                 
  2.847   3.008   3.036   3.086   3.455   3.562   3.921   3.945
 28 B1   35 A1   36 A1   37 A1   29 B1   30 B1   15 B2   11 A2                 
  3.970   4.087   4.536
 38 A1   31 B1   39 A1                                                         
 --------------------------------------------------------------
 
          Ground-State Mulliken Net Atomic Charges

     Atom                 Charge (a.u.)
  ----------------------------------------
      1 C                    -0.178084
      2 C                    -0.178084
      3 H                     0.172644
      4 H                     0.172644
      5 H                    -0.000380
      6 H                    -0.000380
      7 O                    -1.056943
      8 H                     0.068581
  ----------------------------------------
  Sum of atomic charges =    -1.000000

 -----------------------------------------------------------------
                    Cartesian Multipole Moments
 -----------------------------------------------------------------
    Charge (ESU x 10^10)
                -4.8032
    Dipole Moment (Debye)
         X       0.0000      Y       0.0000      Z       5.2724
       Tot       5.2724
    Quadrupole Moments (Debye-Ang)
        XX     -23.6864     XY       0.0000     YY     -26.5197
        XZ       0.0000     YZ      -0.0000     ZZ     -32.8499
    Octopole Moments (Debye-Ang^2)
       XXX       0.0000    XXY      -0.0000    XYY       0.0000
       YYY       0.0000    XXZ       1.0047    XYZ       0.0000
       YYZ      -0.0821    XZZ       0.0000    YZZ       0.0000
       ZZZ       6.0585
    Hexadecapole Moments (Debye-Ang^3)
      XXXX     -89.2458   XXXY      -0.0000   XXYY     -22.3544
      XYYY      -0.0000   YYYY     -42.2806   XXXZ       0.0000
      XXYZ      -0.0000   XYYZ       0.0000   YYYZ       0.0000
      XXZZ     -71.0911   XYZZ      -0.0000   YYZZ     -65.9659
      XZZZ       0.0000   YZZZ      -0.0000   ZZZZ    -293.3743
 -----------------------------------------------------------------
 Total job time:  173.37s(wall), 287.30s(cpu) 
 Fri Mar  4 23:57:46 2022

        *************************************************************
        *                                                           *
        *  Thank you very much for using Q-Chem.  Have a nice day.  *
        *                                                           *
        *************************************************************


