/src/tsommerfeld/qchem/exe/qcprog.exe .input1.909091.19686.qcin.1 /src/jdavis/qchem.scratch/qchem19686/

                  Welcome to Q-Chem
     A Quantum Leap Into The Future Of Chemistry


 Q-Chem 5.4 (devel), Q-Chem, Inc., Pleasanton, CA (2021)

 E. Epifanovsky,  A. T. B. Gilbert,  Xintian Feng,  Joonho Lee,  Yuezhi Mao,  
 N. Mardirossian,  P. Pokhilko,  A. White,  M. Wormit,  M. P. Coons,  
 A. L. Dempwolff,  Zhengting Gan,  D. Hait,  P. R. Horn,  L. D. Jacobson,  
 I. Kaliman,  J. Kussmann,  A. W. Lange,  Ka Un Lao,  D. S. Levine,  Jie Liu,  
 S. C. McKenzie,  A. F. Morrison,  K. Nanda,  F. Plasser,  D. R. Rehn,  
 M. L. Vidal,  Zhi-Qiang You,  Ying Zhu,  B. Alam,  B. Albrecht,  
 A. Aldossary,  E. Alguire,  J. H. Andersen,  D. Barton,  K. Begam,  A. Behn,  
 Y. A. Bernard,  E. J. Berquist,  H. Burton,  A. Carreras,  K. Carter-Fenk,  
 R. Chakraborty,  A. D. Chien,  K. D. Closser,  V. Cofer-Shabica,  
 S. Dasgupta,  Jia Deng,  M. de Wergifosse,  M. Diedenhofen,  Hainam Do,  
 S. Ehlert,  Po-Tung Fang,  S. Fatehi,  Qingguo Feng,  T. Friedhoff,  
 J. Gayvert,  Qinghui Ge,  G. Gidofalvi,  M. Goldey,  J. Gomes,  
 C. Gonzalez-Espinoza,  S. Gulania,  A. Gunina,  M. W. D. Hanson-Heine,  
 P. H. P. Harbach,  A. W. Hauser,  M. F. Herbst,  M. Hernandez Vera,  
 M. Hodecker,  Z. C. Holden,  S. Houck,  Xunkun Huang,  Kerwin Hui,  
 B. C. Huynh,  M. Ivanov,  Hyunjun Ji,  Hanjie Jiang,  B. Kaduk,  S. Kaehler,  
 K. Khistyaev,  Jaehoon Kim,  P. Klunzinger,  Z. Koczor-Benda,  
 Joong Hoon Koh,  D. Kosenkov,  L. Koulias,  T. Kowalczyk,  C. M. Krauter,  
 K. Kue,  A. Kunitsa,  T. Kus,  A. Landau,  K. V. Lawler,  D. Lefrancois,  
 S. Lehtola,  Rain Li,  Yi-Pei Li,  Jiashu Liang,  M. Liebenthal,  
 Hung-Hsuan Lin,  You-Sheng Lin,  Fenglai Liu,  Kuan-Yu Liu,  
 M. Loipersberger,  A. Luenser,  A. Manjanath,  P. Manohar,  E. Mansoor,  
 S. F. Manzer,  Shan-Ping Mao,  A. V. Marenich,  T. Markovich,  S. Mason,  
 S. A. Maurer,  P. F. McLaughlin,  M. F. S. J. Menger,  J.-M. Mewes,  
 S. A. Mewes,  P. Morgante,  J. W. Mullinax,  K. J. Oosterbaan,  G. Paran,  
 Alexander C. Paul,  Suranjan K. Paul,  F. Pavosevic,  Zheng Pei,  S. Prager,  
 E. I. Proynov,  E. Ramos,  B. Rana,  A. E. Rask,  A. Rettig,  R. M. Richard,  
 F. Rob,  E. Rossomme,  T. Scheele,  M. Scheurer,  M. Schneider,  
 N. Sergueev,  S. M. Sharada,  W. Skomorowski,  D. W. Small,  C. J. Stein,  
 Yu-Chuan Su,  E. J. Sundstrom,  Zhen Tao,  J. Thirman,  T. Tsuchimochi,  
 N. M. Tubman,  S. P. Veccham,  O. Vydrov,  J. Wenzel,  J. Witte,  A. Yamada,  
 Kun Yao,  S. Yeganeh,  S. R. Yost,  A. Zech,  Igor Ying Zhang,  Xing Zhang,  
 Yu Zhang,  D. Zuev,  A. Aspuru-Guzik,  A. T. Bell,  N. A. Besley,  
 K. B. Bravaya,  B. R. Brooks,  D. Casanova,  Jeng-Da Chai,  S. Coriani,  
 C. J. Cramer,  A. E. DePrince, III,  R. A. DiStasio Jr.,  A. Dreuw,  
 B. D. Dunietz,  T. R. Furlani,  W. A. Goddard III,  S. Grimme,  
 S. Hammes-Schiffer,  T. Head-Gordon,  W. J. Hehre,  Chao-Ping Hsu,  
 T.-C. Jagau,  Yousung Jung,  A. Klamt,  Jing Kong,  D. S. Lambrecht,  
 WanZhen Liang,  N. J. Mayhall,  C. W. McCurdy,  J. B. Neaton,  
 C. Ochsenfeld,  J. A. Parkhill,  R. Peverati,  V. A. Rassolov,  Yihan Shao,  
 L. V. Slipchenko,  T. Stauch,  R. P. Steele,  J. E. Subotnik,  
 A. J. W. Thom,  A. Tkatchenko,  D. G. Truhlar,  T. Van Voorhis,  
 T. A. Wesolowski,  K. B. Whaley,  H. L. Woodcock III,  P. M. Zimmerman,  
 S. Faraji,  P. M. W. Gill,  M. Head-Gordon,  J. M. Herbert,  A. I. Krylov

 Additional authors for Version 5.4.1: 
 S. Kotaru,  Shaozhi Li,  Xiangyuan Li,  F. Matz,  A. Molle,  Haisheng Ren,  
 Yingli Su,  Hung-Yi Tsai,  C. Utku,  Fang Wang

 Contributors to earlier versions of Q-Chem not listed above: 
 R. D. Adamson,  B. Austin,  R. Baer,  J. Baker,  G. J. O. Beran,  
 K. Brandhorst,  S. T. Brown,  E. F. C. Byrd,  A. K. Chakraborty,  
 G. K. L. Chan,  Chun-Min Chang,  Yunqing Chen,  C.-L. Cheng,  
 Siu Hung Chien,  D. M. Chipman,  D. L. Crittenden,  H. Dachsel,  
 R. J. Doerksen,  A. D. Dutoi,  R. G. Edgar,  J. Fosso-Tande,  
 L. Fusti-Molnar,  D. Ghosh,  A. Ghysels,  A. Golubeva-Zadorozhnaya,  
 J. Gonthier,  M. S. Gordon,  S. R. Gwaltney,  G. Hawkins,  J. E. Herr,  
 A. Heyden,  S. Hirata,  E. G. Hohenstein,  G. Kedziora,  F. J. Keil,  
 C. Kelley,  Jihan Kim,  R. A. King,  R. Z. Khaliullin,  P. P. Korambath,  
 W. Kurlancheek,  A. Laurent,  A. M. Lee,  M. S. Lee,  S. V. Levchenko,  
 Ching Yeh Lin,  D. Liotard,  E. Livshits,  R. C. Lochan,  I. Lotan,  
 L. A. Martinez-Martinez,  P. E. Maslen,  N. Nair,  D. P. O'Neill,  
 D. Neuhauser,  E. Neuscamman,  C. M. Oana,  R. Olivares-Amaya,  R. Olson,  
 T. M. Perrine,  B. Peters,  P. A. Pieniazek,  A. Prociuk,  Y. M. Rhee,  
 J. Ritchie,  M. A. Rohrdanz,  E. Rosta,  N. J. Russ,  H. F. Schaefer III,  
 M. W. Schmidt,  N. E. Schultz,  S. Sharma,  N. Shenvi,  C. D. Sherrill,  
 A. C. Simmonett,  A. Sodt,  T. Stein,  D. Stuck,  K. S. Thanthiriwatte,  
 V. Vanovschi,  L. Vogt,  Tao Wang,  A. Warshel,  M. A. Watson,  
 C. F. Williams,  Q. Wu,  X. Xu,  Jun Yang,  W. Zhang,  Yan Zhao

 Please cite Q-Chem as follows:
 Y. Shao et al., Mol. Phys. 113, 184-215 (2015)
 DOI: 10.1080/00268976.2014.952696

 Q-Chem 5.4.1 for Intel X86 EM64T Linux

 Parts of Q-Chem use Armadillo 9.900.5 (Nocturnal Misbehaviour).
 http://arma.sourceforge.net/

 Q-Chem begins on Sat Mar  5 01:18:33 2022  

 Host: node01
0

     Scratch files written to /src/jdavis/qchem.scratch/qchem19686//
 Processing $rem in /src/tsommerfeld/qchem/config/preferences:
 Processing $rem in /home/jdavis/.qchemrc:

 Checking the input file for inconsistencies... 	...done.

--------------------------------------------------------------
User input:
--------------------------------------------------------------
$molecule
-1 1
C        -0.6645000000    0.0000000000    1.1619088658
C         0.6645000000    0.0000000000    1.1619088658
H        -1.1590800000    0.0000000000    0.1995598658
H         1.1590800000    0.0000000000    0.1995598658
H        -1.1590800000    0.0000000000    2.1242568658
H         1.1590800000    0.0000000000    2.1242568658
O         0.0000000000    0.0000000000   -1.5841414040
H         0.0000000000    0.0000000000   -2.5471307683
$end
$rem
   METHOD adc(2)
   BASIS gen
   PURECART 11
   EE_STATES [0,0,0,10]
   scf_convergence 8
   ADC_DAVIDSON_MAXITER 120
   ADC_DAVIDSON_MAXSUBSPACE 200
   adc_nguess_singles 100
   THRESH 14
   S2THRESH 14
   adc_davidson_conv 5
   adc_davidson_thresh 14
   THREADS 10
   MEM_TOTAL 95000
   STATE_ANALYSIS TRUE
$end
$basis
C 1
S   9   1.00
      6.665000D+03           6.920000D-04
      1.000000D+03           5.329000D-03
      2.280000D+02           2.707700D-02
      6.471000D+01           1.017180D-01
      2.106000D+01           2.747400D-01
      7.495000D+00           4.485640D-01
      2.797000D+00           2.850740D-01
      5.215000D-01           1.520400D-02
      1.596000D-01          -3.191000D-03
S   9   1.00
      6.665000D+03          -1.460000D-04
      1.000000D+03          -1.154000D-03
      2.280000D+02          -5.725000D-03
      6.471000D+01          -2.331200D-02
      2.106000D+01          -6.395500D-02
      7.495000D+00          -1.499810D-01
      2.797000D+00          -1.272620D-01
      5.215000D-01           5.445290D-01
      1.596000D-01           5.804960D-01
S   1   1.00
      1.596000D-01           1.000000D+00
S   1   1.00
      0.0469000              1.0000000
P   4   1.00
      9.439000D+00           3.810900D-02
      2.002000D+00           2.094800D-01
      5.456000D-01           5.085570D-01
      1.517000D-01           4.688420D-01
P   1   1.00
      1.517000D-01           1.000000D+00
P   1   1.00
      0.0827455      1.0000000
P   1   1.00
      0.0413727      1.0000000
P   1   1.00
      0.0206864      1.0000000
D   1   1.00
      5.500000D-01           1.0000000
****
C 2
S   9   1.00
      6.665000D+03           6.920000D-04
      1.000000D+03           5.329000D-03
      2.280000D+02           2.707700D-02
      6.471000D+01           1.017180D-01
      2.106000D+01           2.747400D-01
      7.495000D+00           4.485640D-01
      2.797000D+00           2.850740D-01
      5.215000D-01           1.520400D-02
      1.596000D-01          -3.191000D-03
S   9   1.00
      6.665000D+03          -1.460000D-04
      1.000000D+03          -1.154000D-03
      2.280000D+02          -5.725000D-03
      6.471000D+01          -2.331200D-02
      2.106000D+01          -6.395500D-02
      7.495000D+00          -1.499810D-01
      2.797000D+00          -1.272620D-01
      5.215000D-01           5.445290D-01
      1.596000D-01           5.804960D-01
S   1   1.00
      1.596000D-01           1.000000D+00
S   1   1.00
      0.0469000              1.0000000
P   4   1.00
      9.439000D+00           3.810900D-02
      2.002000D+00           2.094800D-01
      5.456000D-01           5.085570D-01
      1.517000D-01           4.688420D-01
P   1   1.00
      1.517000D-01           1.000000D+00
P   1   1.00
      0.0827455      1.0000000
P   1   1.00
      0.0413727      1.0000000
P   1   1.00
      0.0206864      1.0000000
D   1   1.00
      5.500000D-01           1.0000000
****
H 3
cc-pVDZ
****
H 4
cc-pVDZ
****
H 5
cc-pVDZ
****
H 6
cc-pVDZ
****
O 7
aug-cc-pVDZ
****
H 8
cc-pVDZ
****
$end
--------------------------------------------------------------
 ----------------------------------------------------------------
             Standard Nuclear Orientation (Angstroms)
    I     Atom           X                Y                Z
 ----------------------------------------------------------------
    1      C      -0.6645000000    -0.0000000000     1.0270977517
    2      C       0.6645000000     0.0000000000     1.0270977517
    3      H      -1.1590800000    -0.0000000000     0.0647487517
    4      H       1.1590800000     0.0000000000     0.0647487517
    5      H      -1.1590800000    -0.0000000000     1.9894457517
    6      H       1.1590800000     0.0000000000     1.9894457517
    7      O       0.0000000000    -0.0000000000    -1.7189525181
    8      H       0.0000000000    -0.0000000000    -2.6819418824
 ----------------------------------------------------------------
 Molecular Point Group                 C2v   NOp =  4
 Largest Abelian Subgroup              C2v   NOp =  4
 Nuclear Repulsion Energy =          64.38561153 hartrees
 There are       13 alpha and       13 beta electrons
 Requested basis set is non-standard
 There are 44 shells and 96 basis functions
 Total memory of 95000 MB is distributed as follows: 
   MEM_STATIC is set to 192 MB
   QALLOC/CCMAN JOB total memory use is  94808 MB
 Warning: actual memory use might exceed 95000 MB

 Total QAlloc Memory Limit  95000 MB
 Mega-Array Size       188 MB
 MEM_STATIC part       192 MB

                       Distance Matrix (Angstroms)
             C (  1)   C (  2)   H (  3)   H (  4)   H (  5)   H (  6)
   C (  2)  1.329000
   H (  3)  1.082000  2.061931
   H (  4)  2.061931  1.082000  2.318160
   H (  5)  1.082000  2.061931  1.924697  3.013026
   H (  6)  2.061931  1.082000  3.013026  1.924697  2.318160
   O (  7)  2.825306  2.825306  2.127218  2.127218  3.885316  3.885316
   H (  8)  3.768094  3.768094  2.981237  2.981237  4.813037  4.813037
             O (  7)
   H (  8)  0.962989
 
 A cutoff of  1.0D-14 yielded    990 shell pairs
 There are      4750 function pairs (      5164 Cartesian)
 Smallest overlap matrix eigenvalue = 1.63E-04

 Scale SEOQF with 1.000000e-01/1.000000e-01/1.000000e-01

 Standard Electronic Orientation quadrupole field applied
 Nucleus-field energy     =    -0.0000000051 hartrees
 ================ Generating on-the-fly SAD Guess ================
Attempting to make child job directory: /src/jdavis/qchem.scratch/qchem19686//Frg1/
Attempting to make child job directory: /src/jdavis/qchem.scratch/qchem19686//Frg2/
Attempting to make child job directory: /src/jdavis/qchem.scratch/qchem19686//Frg3/
Creating input file /src/jdavis/qchem.scratch/qchem19686/Frg1.input
using default PutDataFrgm: nothing
calling putenv with: QCSCRATCH=/src/jdavis/qchem.scratch/qchem19686/ 
Spawning Job For Fragment 0
Done Job For Fragment 0
calling putenv with: QCSCRATCH=/src/jdavis/qchem.scratch 
calling putenv with: QCTHREADS=1 
Creating input file /src/jdavis/qchem.scratch/qchem19686/Frg2.input
using default PutDataFrgm: nothing
calling putenv with: QCSCRATCH=/src/jdavis/qchem.scratch/qchem19686/ 
Spawning Job For Fragment 1
Done Job For Fragment 1
calling putenv with: QCSCRATCH=/src/jdavis/qchem.scratch 
calling putenv with: QCTHREADS=1 
Creating input file /src/jdavis/qchem.scratch/qchem19686/Frg3.input
using default PutDataFrgm: nothing
calling putenv with: QCSCRATCH=/src/jdavis/qchem.scratch/qchem19686/ 
Spawning Job For Fragment 2
Done Job For Fragment 2
calling putenv with: QCSCRATCH=/src/jdavis/qchem.scratch 
calling putenv with: QCTHREADS=1 
 Time for running child jobs:  CPU 1.80 s  wall 80.87 s
 ============= Method Specific SAD Guess Constructed =============
 Guess from on-the-fly superposition of atomic densities
 Warning: Energy on first SCF cycle will be non-variational
 A restricted Hartree-Fock SCF calculation will be
 performed using Pulay DIIS extrapolation
 SCF converges when DIIS error is below 1.0E-08
 using 10 threads for integral computing
 -------------------------------------------------------
 OpenMP Integral computing Module                
 Release: version 1.0, May 2013, Q-Chem Inc. Pittsburgh 
 -------------------------------------------------------
 ---------------------------------------
  Cycle       Energy         DIIS Error
 ---------------------------------------
    1    -153.5759431658      5.61E-02
    2    -153.2900982213      1.15E-02
    3    -153.3543457056      9.70E-03
    4    -153.4405374294      7.25E-04
    5    -153.4414924114      2.00E-04
    6    -153.4415678567      4.37E-05
    7    -153.4415733729      1.16E-05
    8    -153.4415739606      3.49E-06
    9    -153.4415740106      6.82E-07
   10    -153.4415740122      1.23E-07
   11    -153.4415740123      3.89E-08
   12    -153.4415740123      1.27E-08
   13    -153.4415740123      2.58E-09 Convergence criterion met
 ---------------------------------------
 SCF time:  CPU 15.76 s  wall 1.58 s
 SCF   energy in the final basis set = -153.44157401
 Total energy in the final basis set = -153.44157401
================================================================================
|                                                                              |
|                                 A D C  M A N                                 |
|                                                                              |
 ------------------------------------------------------------------------------ 
|                                                                              |
| Components:                                                                  |
|                                                                              |
| - libvmm - 1.3-trunk                                                         |
|   Authors:                                                                   |
|   Evgeny Epifanovsky, Ilya Kaliman                                           |
|                                                                              |
| - libtensor - 2.5-trunk                                                      |
|   Authors:                                                                   |
|   Evgeny Epifanovsky, Michael Wormit, Dmitry Zuev, Sam Manzer,               |
|   Ilya Kaliman                                                               |
|                                                                              |
| - libwfa - 1.1-trunk                                                         |
|   Authors:                                                                   |
|   Felix Plasser, Stefanie Mewes (Baeppler), Benjamin Thomitzni,              |
|   Michael Wormit, Feng Chen, Anna I. Krylov, Pavel Pokhilko                  |
|                                                                              |
| - libadc - 1.1-trunk                                                         |
|   Authors:                                                                   |
|   Michael Wormit, Adrian L. Dempwolff, Philipp H. P. Harbach,                |
|   Caroline Krauter, Dirk Rehn, Matthias Schneider, Jan Wenzel                |
|                                                                              |
| - adcman - 2.6-trunk                                                         |
|   Authors:                                                                   |
|   Michael Wormit, Adrian L. Dempwolff, Philipp H. P. Harbach,                |
|   Caroline Krauter, Daniel Lefrancois, Jan-Michael Mewes, Dirk Rehn,         |
|   Matthias Schneider, Jan Wenzel, Andreas Dreuw                              |
|                                                                              |
| Authors of earlier versions of ADCMAN:                                       |
| Andreas Dreuw, Jan Hendrik Starcke, Dirk Rehn, Michael Wormit                |
|                                                                              |
================================================================================

 
 Alpha MOs, Restricted
 -- Occupied --                  
-20.213 -11.049 -11.047  -0.930  -0.854  -0.598  -0.473  -0.384
  1 A1    2 A1    1 B1    3 A1    4 A1    2 B1    5 A1    6 A1                 
 -0.328  -0.271  -0.194  -0.130  -0.129
  3 B1    7 A1    1 B2    4 B1    2 B2                                         
 -- Virtual --                   
  0.128   0.140   0.144   0.150   0.153   0.164   0.223   0.252
  5 B1    8 A1    3 B2    1 A2    9 A1    6 B1   10 A1    7 B1                 
  0.271   0.283   0.289   0.304   0.327   0.347   0.377   0.378
  2 A2   11 A1    4 B2    8 B1   12 A1   13 A1    9 B1    3 A2                 
  0.448   0.469   0.475   0.507   0.533   0.544   0.547   0.580
  5 B2   14 A1   10 B1   15 A1   11 B1   12 B1   16 A1   17 A1                 
  0.592   0.614   0.636   0.658   0.706   0.721   0.804   1.010
  6 B2   13 B1   18 A1    4 A2   19 A1   14 B1   15 B1   20 A1                 
  1.050   1.129   1.145   1.200   1.220   1.223   1.291   1.302
 21 A1   16 B1   22 A1    7 B2   23 A1   17 B1    5 A2   24 A1                 
  1.319   1.337   1.348   1.349   1.361   1.377   1.403   1.483
 18 B1   25 A1   26 A1   19 B1    8 B2    9 B2    6 A2   10 B2                 
  1.483   1.530   1.665   1.675   1.719   1.790   1.880   1.966
  7 A2   20 B1   21 B1   27 A1   11 B2   22 B1   28 A1   23 B1                 
  2.038   2.069   2.132   2.159   2.187   2.213   2.273   2.349
 29 A1    8 A2   12 B2   30 A1   24 B1   13 B2   31 A1   32 A1                 
  2.370   2.396   2.440   2.533   2.582   2.604   2.766   2.773
  9 A2   14 B2   25 B1   26 B1   33 A1   10 A2   27 B1   34 A1                 
  2.855   3.056   3.083   3.129   3.487   3.574   3.923   3.946
 28 B1   35 A1   36 A1   37 A1   29 B1   30 B1   15 B2   11 A2                 
  3.972   4.090   4.547
 38 A1   31 B1   39 A1                                                         
 
 Beta MOs, Restricted
 -- Occupied --                  
-20.213 -11.049 -11.047  -0.930  -0.854  -0.598  -0.473  -0.384
  1 A1    2 A1    1 B1    3 A1    4 A1    2 B1    5 A1    6 A1                 
 -0.328  -0.271  -0.194  -0.130  -0.129
  3 B1    7 A1    1 B2    4 B1    2 B2                                         
 -- Virtual --                   
  0.128   0.140   0.144   0.150   0.153   0.164   0.223   0.252
  5 B1    8 A1    3 B2    1 A2    9 A1    6 B1   10 A1    7 B1                 
  0.271   0.283   0.289   0.304   0.327   0.347   0.377   0.378
  2 A2   11 A1    4 B2    8 B1   12 A1   13 A1    9 B1    3 A2                 
  0.448   0.469   0.475   0.507   0.533   0.544   0.547   0.580
  5 B2   14 A1   10 B1   15 A1   11 B1   12 B1   16 A1   17 A1                 
  0.592   0.614   0.636   0.658   0.706   0.721   0.804   1.010
  6 B2   13 B1   18 A1    4 A2   19 A1   14 B1   15 B1   20 A1                 
  1.050   1.129   1.145   1.200   1.220   1.223   1.291   1.302
 21 A1   16 B1   22 A1    7 B2   23 A1   17 B1    5 A2   24 A1                 
  1.319   1.337   1.348   1.349   1.361   1.377   1.403   1.483
 18 B1   25 A1   26 A1   19 B1    8 B2    9 B2    6 A2   10 B2                 
  1.483   1.530   1.665   1.675   1.719   1.790   1.880   1.966
  7 A2   20 B1   21 B1   27 A1   11 B2   22 B1   28 A1   23 B1                 
  2.038   2.069   2.132   2.159   2.187   2.213   2.273   2.349
 29 A1    8 A2   12 B2   30 A1   24 B1   13 B2   31 A1   32 A1                 
  2.370   2.396   2.440   2.533   2.582   2.604   2.766   2.773
  9 A2   14 B2   25 B1   26 B1   33 A1   10 A2   27 B1   34 A1                 
  2.855   3.056   3.083   3.129   3.487   3.574   3.923   3.946
 28 B1   35 A1   36 A1   37 A1   29 B1   30 B1   15 B2   11 A2                 
  3.972   4.090   4.547
 38 A1   31 B1   39 A1                                                         

--------------------------------------------------------------------------------
                                   HF Summary                                   
--------------------------------------------------------------------------------
  Energy:                                                 -153.4415740123 a.u.
  Dip. moment [a.u.]:                  [   0.000000,   -0.000000,    2.080012]
  Total dipole [Debye]:                                               5.286863
  <r^2> [a.u.]:                        [  55.700527,   19.718797,  208.060734]
  Total <r^2> [a.u.]:                                               283.480058
--------------------------------------------------------------------------------

--------------------------------------------------------------------------------
                                 MP(2) Summary                                  
--------------------------------------------------------------------------------
  MP energy contribution:                                   -0.5300418563 a.u.
  Total energy:                                           -153.9716158686 a.u.
  Dip. moment [a.u.]:                  [  -0.000000,    0.000000,    2.150303]
  Total dipole [Debye]:                                               5.465527
  <r^2> [a.u.]:                        [  56.698832,   20.419762,  209.353642]
  Total <r^2> [a.u.]:                                               286.472236

  Density matrix analysis:
  ------------------------
  NOs
    Occupation of frontier NOs:
       0.0447   1.9355
    Number of electrons: 26.000000
    Number of unpaired electrons: n_u =  0.71602, n_u,nl =  0.08553
    NO participation ratio (PR_NO): 23.016315
  
  
  Mulliken Population Analysis
  Atom      Charge (e)              h+              e-           Del q
  --------------------------------------------------------------------
   1 C       -0.252655        0.094439       -0.098581       -0.004142
   2 C       -0.252655        0.094439       -0.098581       -0.004142
   3 H        0.217494        0.017423       -0.011332        0.006091
   4 H        0.217494        0.017423       -0.011332        0.006091
   5 H        0.046672        0.019256       -0.012323        0.006932
   6 H        0.046672        0.019256       -0.012323        0.006932
   7 O       -1.075953        0.278710       -0.279621       -0.000911
   8 H        0.052929        0.015292       -0.032142       -0.016850
  --------------------------------------------------------------------
  Sum:       -1.000000        0.556237       -0.556237       -0.000000
  
  Multipole moment analysis of the density matrix
    Molecular charge:                      -1.000000
    Number of electrons:                   26.000000
      Center of electronic charge [Ang]: [  0.000000,  -0.000000,  -0.043765]
    Total nuclear charge:                  25.000000
      Center of nuclear charge [Ang]:    [  0.000000,   0.000000,  -0.000000]
    Dipole moment [D]:                     5.465526
      Cartesian components [D]:          [ -0.000000,   0.000000,   5.465526]
    RMS size of the density [Ang]:         1.755985
      Cartesian components [Ang]:        [  0.781451,   0.468964,   1.500964]
  
  Exciton analysis of the difference density matrix
    <r_h> [Ang]:                  [ -0.000000,  -0.000000,  -0.482517]
    <r_e> [Ang]:                  [  0.000000,  -0.000000,  -0.549389]
    |<r_e - r_h>| [Ang]:            0.066872
    Hole size [Ang]:                1.971548
      Cartesian components [Ang]: [  0.890650,   0.760416,   1.586036]
    Electron size [Ang]:            2.307457
      Cartesian components [Ang]: [  1.138349,   0.964947,   1.759943]
--------------------------------------------------------------------------------
  Starting Davidson for singlet states of irrep B2 ... 
--------------------------------------------------------------------------------
   It NVec Conv  Avg. Norm  Max. Norm  Conv. states           Remark
--------------------------------------------------------------------------------
       100    0  1.526e-01  5.664e-01  0.2366 n n n n n n n n Guess.
    1  110    0  1.568e-02  8.318e-02  0.0657 n n n n n n n n 
    2  120    0  4.913e-03  3.497e-02  0.0645 n n n n n n n n 
    3  130    0  5.859e-03  5.755e-02  0.0645 n n n n n n n n 
    4  140    0  1.296e-02  1.253e-01  0.0645 n n n n n n n n 
    5  150    2  2.081e-03  2.064e-02  0.0645 y n y n n n n n 
    6  160    6  3.073e-04  3.046e-03  0.0645 y y y y n y n y 
    7  170    8  3.676e-05  3.631e-04  0.0645 y y y y y y y y 
    8  180    9  6.693e-06  6.636e-05  0.0645 y y y y y y y y 
    9  190   10  5.976e-07  5.868e-06  0.0645 y y y y y y y y Converged.
--------------------------------------------------------------------------------
  Davidson Summary: 
 ------------------------------------------------------------
  State  0: excitation energy =   0.0645 a.u.   (converged)
  State  1: excitation energy =   0.0819 a.u.   (converged)
  State  2: excitation energy =   0.0844 a.u.   (converged)
  State  3: excitation energy =   0.1132 a.u.   (converged)
  State  4: excitation energy =   0.1463 a.u.   (converged)
  State  5: excitation energy =   0.1673 a.u.   (converged)
  State  6: excitation energy =   0.1784 a.u.   (converged)
  State  7: excitation energy =   0.2081 a.u.   (converged)
  State  8: excitation energy =   0.2205 a.u.   (converged)
  State  9: excitation energy =   0.2298 a.u.   (converged)
 ------------------------------------------------------------


--------------------------------------------------------------------------------
                   State-averaged natural transition orbitals
--------------------------------------------------------------------------------
--------------------------------------------------------------------------------

--------------------------------------------------------------------------------
                             Excited State Summary
--------------------------------------------------------------------------------
--------------------------------------------------------------------------------

  Excited state 1 (singlet, B2)                                    [converged]
  ----------------------------------------------------------------------------
  Term symbol:  1 (1) B2                                    R^2 =  6.41987e-10

  Total energy:                                           -153.9071266131 a.u.
  Excitation energy:                                               1.754842 eV

  Osc. strength:                                                      0.011329
  Trans. dip. moment [a.u.]:           [   0.000000,   -0.513338,    0.000000]
  <i|r^2|0> [a.u.]:                    [   0.000000,    0.000000,    0.000000]

  Dip. moment [a.u.]:                  [  -0.000000,    0.000000,   -3.954584]
  Total dipole [Debye]:                                              10.051553
  <r^2> [a.u.]:                        [  75.634984,   37.552068,  258.683844]
  Total <r^2> [a.u.]:                                               371.870896

  V1^2 = 0.8691, V2^2 = 0.1309

  Important amplitudes:
      occ i      occ j       vir a       vir b          v   
    ---------------------------------------------------------
     2 (B2) A               8 (A1) A                 -0.6328
     2 (B2) A              12 (A1) A                 -0.1380
    ---------------------------------------------------------

  Density matrix analysis:
  ------------------------
  NOs
    Occupation of frontier NOs:
       0.9610   0.9983
    Number of electrons: 26.000000
    Number of unpaired electrons: n_u =  2.74815, n_u,nl =  2.11494
    NO participation ratio (PR_NO):  3.870332
  
  
  Mulliken Population Analysis
  Atom      Charge (e)              h+              e-           Del q
  --------------------------------------------------------------------
   1 C       -0.773391        0.032092       -0.552829       -0.520737
   2 C       -0.773391        0.032092       -0.552829       -0.520737
   3 H        0.176408       -0.001104       -0.039982       -0.041086
   4 H        0.176408       -0.001104       -0.039982       -0.041086
   5 H        0.084922        0.041334       -0.003084        0.038250
   6 H        0.084922        0.041334       -0.003084        0.038250
   7 O       -0.120624        1.406247       -0.450918        0.955329
   8 H        0.144747        0.138905       -0.047088        0.091818
  --------------------------------------------------------------------
  Sum:       -1.000000        1.689797       -1.689797       -0.000000
  
  Multipole moment analysis of the density matrix
    Molecular charge:                      -1.000000
    Number of electrons:                   26.000000
      Center of electronic charge [Ang]: [  0.000000,  -0.000000,   0.080488]
    Total nuclear charge:                  25.000000
      Center of nuclear charge [Ang]:    [  0.000000,   0.000000,  -0.000000]
    Dipole moment [D]:                     10.051550
      Cartesian components [D]:          [ -0.000000,   0.000000, -10.051550]
    RMS size of the density [Ang]:         1.999673
      Cartesian components [Ang]:        [  0.902559,   0.635962,   1.667223]
  
  Exciton analysis of the difference density matrix
    <r_h> [Ang]:                  [ -0.000000,  -0.000000,  -1.464744]
    <r_e> [Ang]:                  [  0.000000,  -0.000000,   0.447064]
    |<r_e - r_h>| [Ang]:            1.911808
    Hole size [Ang]:                1.807039
      Cartesian components [Ang]: [  0.850012,   0.888471,   1.324193]
    Electron size [Ang]:            4.400344
      Cartesian components [Ang]: [  1.964833,   1.904862,   3.445862]

  Transition density matrix analysis:
  -----------------------------------
  
  CT numbers (Mulliken)
    omega =     0.8539
    <Phe> =    -0.0014
  
  Exciton analysis of the transition density matrix
    Trans. dipole moment [D]:             0.652387
      Cartesian components [D]:         [  0.000000,  -0.652387,   0.000000]
    <r_h> [Ang]:                        [  0.000000,   0.000000,  -1.744148]
    <r_e> [Ang]:                        [  0.000000,   0.000000,   1.552509]
    |<r_e - r_h>| [Ang]:                  3.296657
    Hole size [Ang]:                      1.098690
      Cartesian components [Ang]:       [  0.478679,   0.826052,   0.543713]
    Electron size [Ang]:                  5.237349
      Cartesian components [Ang]:       [  2.438666,   2.395668,   3.967809]
    RMS electron-hole separation [Ang]:   6.283423
      Cartesian components [Ang]:       [  2.484951,   2.532910,   5.185633]
    Covariance(r_h, r_e) [Ang^2]:         0.011745
    Correlation coefficient:              0.002041
    Center-of-mass size [Ang]:            2.676772
      Cartesian components [Ang]:       [  1.242726,   1.267630,   2.003460]

  Decomposition into state-averaged NTOs
    H- 0 -> L+ 0: -0.5474 ( 59.9%)
    H- 0 -> L+ 6: -0.2248 ( 10.1%)
    H- 0 -> L+ 1:  0.1917 (  7.3%)
    H- 0 -> L+ 7: -0.1579 (  5.0%)
    H- 0 -> L+ 2: -0.1211 (  2.9%)
                   omega =  85.4%
  ----------------------------------------------------------------------------


  Excited state 2 (singlet, B2)                                    [converged]
  ----------------------------------------------------------------------------
  Term symbol:  2 (1) B2                                    R^2 =  1.47032e-09

  Total energy:                                           -153.8897002944 a.u.
  Excitation energy:                                               2.229036 eV

  Osc. strength:                                                      0.002326
  Trans. dip. moment [a.u.]:           [  -0.000000,    0.206398,   -0.000000]
  <i|r^2|0> [a.u.]:                    [  -0.000000,   -0.000000,   -0.000000]

  Dip. moment [a.u.]:                  [   0.000000,    0.000000,   -2.878553]
  Total dipole [Debye]:                                               7.316552
  <r^2> [a.u.]:                        [ 101.480363,   65.801272,  213.484549]
  Total <r^2> [a.u.]:                                               380.766184

  V1^2 = 0.8664, V2^2 = 0.1336

  Important amplitudes:
      occ i      occ j       vir a       vir b          v   
    ---------------------------------------------------------
     4 (B1) A               1 (A2) A                  0.6483
     4 (B1) A               2 (A2) A                 -0.1094
    ---------------------------------------------------------

  Density matrix analysis:
  ------------------------
  NOs
    Occupation of frontier NOs:
       0.9615   0.9980
    Number of electrons: 26.000000
    Number of unpaired electrons: n_u =  2.75202, n_u,nl =  2.11610
    NO participation ratio (PR_NO):  3.880258
  
  
  Mulliken Population Analysis
  Atom      Charge (e)              h+              e-           Del q
  --------------------------------------------------------------------
   1 C       -0.740487        0.044962       -0.532794       -0.487832
   2 C       -0.740487        0.044962       -0.532794       -0.487832
   3 H        0.167154       -0.005433       -0.044908       -0.050341
   4 H        0.167154       -0.005433       -0.044908       -0.050341
   5 H        0.080106        0.034634       -0.001200        0.033434
   6 H        0.080106        0.034634       -0.001200        0.033434
   7 O       -0.178346        1.412006       -0.514398        0.897607
   8 H        0.164800        0.136271       -0.024400        0.111871
  --------------------------------------------------------------------
  Sum:       -1.000000        1.696603       -1.696603       -0.000000
  
  Multipole moment analysis of the density matrix
    Molecular charge:                      -1.000000
    Number of electrons:                   26.000000
      Center of electronic charge [Ang]: [ -0.000000,  -0.000000,   0.058587]
    Total nuclear charge:                  25.000000
      Center of nuclear charge [Ang]:    [  0.000000,   0.000000,  -0.000000]
    Dipole moment [D]:                     7.316550
      Cartesian components [D]:          [  0.000000,   0.000000,  -7.316550]
    RMS size of the density [Ang]:         2.024239
      Cartesian components [Ang]:        [  1.045455,   0.841844,   1.515212]
  
  Exciton analysis of the difference density matrix
    <r_h> [Ang]:                  [ -0.000000,  -0.000000,  -1.472977]
    <r_e> [Ang]:                  [ -0.000000,  -0.000000,   0.095543]
    |<r_e - r_h>| [Ang]:            1.568521
    Hole size [Ang]:                1.792767
      Cartesian components [Ang]: [  0.937699,   0.795315,   1.304687]
    Electron size [Ang]:            4.575806
      Cartesian components [Ang]: [  2.875862,   2.850063,   2.131797]

  Transition density matrix analysis:
  -----------------------------------
  
  CT numbers (Mulliken)
    omega =     0.8513
    <Phe> =     0.0001
  
  Exciton analysis of the transition density matrix
    Trans. dipole moment [D]:             0.262306
      Cartesian components [D]:         [ -0.000000,   0.262306,  -0.000000]
    <r_h> [Ang]:                        [  0.000000,  -0.000000,  -1.725986]
    <r_e> [Ang]:                        [ -0.000000,  -0.000000,   1.027504]
    |<r_e - r_h>| [Ang]:                  2.753490
    Hole size [Ang]:                      1.142080
      Cartesian components [Ang]:       [  0.826574,   0.472411,   0.630833]
    Electron size [Ang]:                  5.595900
      Cartesian components [Ang]:       [  3.679227,   3.650897,   2.109108]
    RMS electron-hole separation [Ang]:   6.339306
      Cartesian components [Ang]:       [  3.769308,   3.681186,   3.525334]
    Covariance(r_h, r_e) [Ang^2]:         0.006679
    Correlation coefficient:              0.001045
    Center-of-mass size [Ang]:            2.856213
      Cartesian components [Ang]:       [  1.886279,   1.840741,   1.100716]

  Decomposition into state-averaged NTOs
    H- 1 -> L+ 5:  0.6509 ( 84.7%)
                   omega =  85.1%
  ----------------------------------------------------------------------------


  Excited state 3 (singlet, B2)                                    [converged]
  ----------------------------------------------------------------------------
  Term symbol:  3 (1) B2                                    R^2 =  3.23045e-10

  Total energy:                                           -153.8872502491 a.u.
  Excitation energy:                                               2.295705 eV

  Osc. strength:                                                      0.001318
  Trans. dip. moment [a.u.]:           [   0.000000,   -0.153074,    0.000000]
  <i|r^2|0> [a.u.]:                    [  -0.000000,    0.000000,   -0.000000]

  Dip. moment [a.u.]:                  [  -0.000000,    0.000000,   -3.169395]
  Total dipole [Debye]:                                               8.055800
  <r^2> [a.u.]:                        [ 132.751379,   34.243541,  213.499497]
  Total <r^2> [a.u.]:                                               380.494416

  V1^2 = 0.8658, V2^2 = 0.1342

  Important amplitudes:
      occ i      occ j       vir a       vir b          v   
    ---------------------------------------------------------
     2 (B2) A               9 (A1) A                 -0.6485
     1 (B2) A               9 (A1) A                 -0.0652
    ---------------------------------------------------------

  Density matrix analysis:
  ------------------------
  NOs
    Occupation of frontier NOs:
       0.9609   0.9980
    Number of electrons: 26.000000
    Number of unpaired electrons: n_u =  2.75336, n_u,nl =  2.11726
    NO participation ratio (PR_NO):  3.885213
  
  
  Mulliken Population Analysis
  Atom      Charge (e)              h+              e-           Del q
  --------------------------------------------------------------------
   1 C       -0.771435        0.035545       -0.554326       -0.518781
   2 C       -0.771435        0.035545       -0.554326       -0.518781
   3 H        0.186950        0.001463       -0.032008       -0.030545
   4 H        0.186950        0.001463       -0.032008       -0.030545
   5 H        0.087927        0.038469        0.002786        0.041255
   6 H        0.087927        0.038469        0.002786        0.041255
   7 O       -0.165903        1.413616       -0.503565        0.910050
   8 H        0.159020        0.137293       -0.031203        0.106091
  --------------------------------------------------------------------
  Sum:       -1.000000        1.701865       -1.701865        0.000000
  
  Multipole moment analysis of the density matrix
    Molecular charge:                      -1.000000
    Number of electrons:                   26.000000
      Center of electronic charge [Ang]: [  0.000000,  -0.000000,   0.064507]
    Total nuclear charge:                  25.000000
      Center of nuclear charge [Ang]:    [  0.000000,   0.000000,  -0.000000]
    Dipole moment [D]:                     8.055798
      Cartesian components [D]:          [ -0.000000,   0.000000,  -8.055798]
    RMS size of the density [Ang]:         2.023336
      Cartesian components [Ang]:        [  1.195732,   0.607301,   1.515024]
  
  Exciton analysis of the difference density matrix
    <r_h> [Ang]:                  [ -0.000000,  -0.000000,  -1.478885]
    <r_e> [Ang]:                  [  0.000000,  -0.000000,   0.175220]
    |<r_e - r_h>| [Ang]:            1.654105
    Hole size [Ang]:                1.793550
      Cartesian components [Ang]: [  0.863484,   0.888076,   1.297127]
    Electron size [Ang]:            4.565505
      Cartesian components [Ang]: [  3.641353,   1.750221,   2.126289]

  Transition density matrix analysis:
  -----------------------------------
  
  CT numbers (Mulliken)
    omega =     0.8511
    <Phe> =     0.0001
  
  Exciton analysis of the transition density matrix
    Trans. dipole moment [D]:             0.194538
      Cartesian components [D]:         [  0.000000,  -0.194538,   0.000000]
    <r_h> [Ang]:                        [  0.000000,   0.000000,  -1.743915]
    <r_e> [Ang]:                        [  0.000000,   0.000000,   1.160380]
    |<r_e - r_h>| [Ang]:                  2.904295
    Hole size [Ang]:                      1.099942
      Cartesian components [Ang]:       [  0.479324,   0.826712,   0.544674]
    Electron size [Ang]:                  5.564384
      Cartesian components [Ang]:       [  4.688620,   2.198305,   2.036335]
    RMS electron-hole separation [Ang]:   6.372053
      Cartesian components [Ang]:       [  4.712803,   2.348317,   3.588587]
    Covariance(r_h, r_e) [Ang^2]:         0.002052
    Correlation coefficient:              0.000335
    Center-of-mass size [Ang]:            2.836210
      Cartesian components [Ang]:       [  2.356656,   1.174457,   1.053996]

  Decomposition into state-averaged NTOs
    H- 0 -> L+ 3: -0.5133 ( 52.7%)
    H- 0 -> L+ 7:  0.3554 ( 25.3%)
    H- 0 -> L+ 6: -0.1450 (  4.2%)
    H- 0 -> L+ 2: -0.1171 (  2.7%)
                   omega =  85.1%
  ----------------------------------------------------------------------------


  Excited state 4 (singlet, B2)                                    [converged]
  ----------------------------------------------------------------------------
  Term symbol:  4 (1) B2                                    R^2 =  3.24845e-09

  Total energy:                                           -153.8583920530 a.u.
  Excitation energy:                                               3.080977 eV

  Osc. strength:                                                      0.018267
  Trans. dip. moment [a.u.]:           [  -0.000000,    0.491942,   -0.000000]
  <i|r^2|0> [a.u.]:                    [   0.000000,    0.000000,    0.000000]

  Dip. moment [a.u.]:                  [  -0.000000,    0.000000,   -1.764950]
  Total dipole [Debye]:                                               4.486057
  <r^2> [a.u.]:                        [  72.046517,   27.760629,  221.486346]
  Total <r^2> [a.u.]:                                               321.293492

  V1^2 = 0.8770, V2^2 = 0.1230

  Important amplitudes:
      occ i      occ j       vir a       vir b          v   
    ---------------------------------------------------------
     2 (B2) A              10 (A1) A                 -0.5916
     2 (B2) A              12 (A1) A                  0.2312
    ---------------------------------------------------------

  Density matrix analysis:
  ------------------------
  NOs
    Occupation of frontier NOs:
       0.9638   0.9928
    Number of electrons: 26.000000
    Number of unpaired electrons: n_u =  2.74406, n_u,nl =  2.11269
    NO participation ratio (PR_NO):  3.871610
  
  
  Mulliken Population Analysis
  Atom      Charge (e)              h+              e-           Del q
  --------------------------------------------------------------------
   1 C       -0.682283        0.035164       -0.464792       -0.429628
   2 C       -0.682283        0.035164       -0.464792       -0.429628
   3 H        0.179916        0.000586       -0.038165       -0.037579
   4 H        0.179916        0.000586       -0.038165       -0.037579
   5 H        0.060091        0.032638       -0.019219        0.013419
   6 H        0.060091        0.032638       -0.019219        0.013419
   7 O       -0.555530        1.341391       -0.820968        0.520423
   8 H        0.440082        0.153620        0.233533        0.387152
  --------------------------------------------------------------------
  Sum:       -1.000000        1.631787       -1.631787       -0.000000
  
  Multipole moment analysis of the density matrix
    Molecular charge:                      -1.000000
    Number of electrons:                   26.000000
      Center of electronic charge [Ang]: [  0.000000,  -0.000000,   0.035922]
    Total nuclear charge:                  25.000000
      Center of nuclear charge [Ang]:    [  0.000000,   0.000000,  -0.000000]
    Dipole moment [D]:                     4.486056
      Cartesian components [D]:          [ -0.000000,   0.000000,  -4.486056]
    RMS size of the density [Ang]:         1.859878
      Cartesian components [Ang]:        [  0.880889,   0.546801,   1.544082]
  
  Exciton analysis of the difference density matrix
    <r_h> [Ang]:                  [ -0.000000,  -0.000000,  -1.488176]
    <r_e> [Ang]:                  [ -0.000000,  -0.000000,  -0.218486]
    |<r_e - r_h>| [Ang]:            1.269690
    Hole size [Ang]:                1.735660
      Cartesian components [Ang]: [  0.824450,   0.864898,   1.258868]
    Electron size [Ang]:            3.339921
      Cartesian components [Ang]: [  1.820305,   1.416970,   2.415317]

  Transition density matrix analysis:
  -----------------------------------
  
  CT numbers (Mulliken)
    omega =     0.8601
    <Phe> =    -0.0045
  
  Exciton analysis of the transition density matrix
    Trans. dipole moment [D]:             0.625196
      Cartesian components [D]:         [ -0.000000,   0.625196,  -0.000000]
    <r_h> [Ang]:                        [  0.000000,   0.000000,  -1.734864]
    <r_e> [Ang]:                        [ -0.000000,   0.000000,   0.380870]
    |<r_e - r_h>| [Ang]:                  2.115734
    Hole size [Ang]:                      1.108061
      Cartesian components [Ang]:       [  0.477979,   0.822865,   0.567651]
    Electron size [Ang]:                  3.921476
      Cartesian components [Ang]:       [  2.210546,   1.720425,   2.744376]
    RMS electron-hole separation [Ang]:   4.582918
      Cartesian components [Ang]:       [  2.261224,   1.903704,   3.502274]
    Covariance(r_h, r_e) [Ang^2]:         0.039481
    Correlation coefficient:              0.009086
    Center-of-mass size [Ang]:            2.042347
      Cartesian components [Ang]:       [  1.131020,   0.955229,   1.406953]

  Decomposition into state-averaged NTOs
    H- 0 -> L+ 1: -0.3797 ( 28.8%)
    H- 0 -> L+ 0: -0.3294 ( 21.7%)
    H- 0 -> L+ 2:  0.2872 ( 16.5%)
    H- 0 -> L+ 6:  0.2801 ( 15.7%)
    H- 0 -> L+ 3: -0.0939 (  1.8%)
    H- 0 -> L+ 7:  0.0836 (  1.4%)
                   omega =  86.0%
  ----------------------------------------------------------------------------


  Excited state 5 (singlet, B2)                                    [converged]
  ----------------------------------------------------------------------------
  Term symbol:  5 (1) B2                                    R^2 =  2.34122e-08

  Total energy:                                           -153.8253536716 a.u.
  Excitation energy:                                               3.979997 eV

  Osc. strength:                                                      0.000289
  Trans. dip. moment [a.u.]:           [   0.000000,   -0.054471,    0.000000]
  <i|r^2|0> [a.u.]:                    [  -0.000000,   -0.000000,    0.000000]

  Dip. moment [a.u.]:                  [  -0.000000,    0.000000,   -2.802616]
  Total dipole [Debye]:                                               7.123541
  <r^2> [a.u.]:                        [  69.554484,   33.417477,  204.077927]
  Total <r^2> [a.u.]:                                               307.049889

  V1^2 = 0.8690, V2^2 = 0.1310

  Important amplitudes:
      occ i      occ j       vir a       vir b          v   
    ---------------------------------------------------------
     4 (B1) A               2 (A2) A                  0.5998
     4 (B1) A               3 (A2) A                  0.2488
    ---------------------------------------------------------

  Density matrix analysis:
  ------------------------
  NOs
    Occupation of frontier NOs:
       0.9651   0.9951
    Number of electrons: 26.000000
    Number of unpaired electrons: n_u =  2.72584, n_u,nl =  2.10247
    NO participation ratio (PR_NO):  3.811904
  
  
  Mulliken Population Analysis
  Atom      Charge (e)              h+              e-           Del q
  --------------------------------------------------------------------
   1 C       -0.676998        0.093569       -0.517912       -0.424344
   2 C       -0.676998        0.093569       -0.517912       -0.424344
   3 H        0.144690        0.001168       -0.073972       -0.072804
   4 H        0.144690        0.001168       -0.073972       -0.072804
   5 H        0.043702        0.011079       -0.014049       -0.002970
   6 H        0.043702        0.011079       -0.014049       -0.002970
   7 O       -0.172366        1.358422       -0.454834        0.903587
   8 H        0.149579        0.117518       -0.020868        0.096650
  --------------------------------------------------------------------
  Sum:       -1.000000        1.687570       -1.687570        0.000000
  
  Multipole moment analysis of the density matrix
    Molecular charge:                      -1.000000
    Number of electrons:                   26.000000
      Center of electronic charge [Ang]: [  0.000000,  -0.000000,   0.057042]
    Total nuclear charge:                  25.000000
      Center of nuclear charge [Ang]:    [  0.000000,   0.000000,  -0.000000]
    Dipole moment [D]:                     7.123539
      Cartesian components [D]:          [ -0.000000,   0.000000,  -7.123539]
    RMS size of the density [Ang]:         1.817629
      Cartesian components [Ang]:        [  0.865520,   0.599931,   1.481463]
  
  Exciton analysis of the difference density matrix
    <r_h> [Ang]:                  [ -0.000000,  -0.000000,  -1.389288]
    <r_e> [Ang]:                  [  0.000000,  -0.000000,   0.163816]
    |<r_e - r_h>| [Ang]:            1.553104
    Hole size [Ang]:                1.719519
      Cartesian components [Ang]: [  0.897661,   0.736945,   1.268015]
    Electron size [Ang]:            2.876561
      Cartesian components [Ang]: [  1.714354,   1.643130,   1.623489]

  Transition density matrix analysis:
  -----------------------------------
  
  CT numbers (Mulliken)
    omega =     0.8435
    <Phe> =    -0.0007
  
  Exciton analysis of the transition density matrix
    Trans. dipole moment [D]:             0.069225
      Cartesian components [D]:         [  0.000000,  -0.069225,   0.000000]
    <r_h> [Ang]:                        [  0.000000,  -0.000000,  -1.694180]
    <r_e> [Ang]:                        [  0.000000,  -0.000000,   1.024821]
    |<r_e - r_h>| [Ang]:                  2.719002
    Hole size [Ang]:                      1.178926
      Cartesian components [Ang]:       [  0.825040,   0.468684,   0.699651]
    Electron size [Ang]:                  3.147805
      Cartesian components [Ang]:       [  2.094585,   2.030606,   1.182385]
    RMS electron-hole separation [Ang]:   4.321257
      Cartesian components [Ang]:       [  2.247760,   2.083660,   3.046178]
    Covariance(r_h, r_e) [Ang^2]:         0.009125
    Correlation coefficient:              0.002459
    Center-of-mass size [Ang]:            1.682022
      Cartesian components [Ang]:       [  1.127334,   1.042162,   0.687179]

  Decomposition into state-averaged NTOs
    H- 1 -> L+ 8: -0.6478 ( 83.9%)
                   omega =  84.3%
  ----------------------------------------------------------------------------


  Excited state 6 (singlet, B2)                                    [converged]
  ----------------------------------------------------------------------------
  Term symbol:  6 (1) B2                                    R^2 =  9.79067e-09

  Total energy:                                           -153.8042972156 a.u.
  Excitation energy:                                               4.552972 eV

  Osc. strength:                                                      0.002411
  Trans. dip. moment [a.u.]:           [   0.000000,   -0.147028,   -0.000000]
  <i|r^2|0> [a.u.]:                    [   0.000000,   -0.000000,   -0.000000]

  Dip. moment [a.u.]:                  [  -0.000000,    0.000000,    1.349768]
  Total dipole [Debye]:                                               3.430769
  <r^2> [a.u.]:                        [  73.241304,   27.681796,  223.048721]
  Total <r^2> [a.u.]:                                               323.971821

  V1^2 = 0.8901, V2^2 = 0.1099

  Important amplitudes:
      occ i      occ j       vir a       vir b          v   
    ---------------------------------------------------------
     2 (B2) A              12 (A1) A                 -0.5212
     2 (B2) A              11 (A1) A                  0.3186
    ---------------------------------------------------------

  Density matrix analysis:
  ------------------------
  NOs
    Occupation of frontier NOs:
       0.9655   0.9968
    Number of electrons: 26.000000
    Number of unpaired electrons: n_u =  2.72542, n_u,nl =  2.10481
    NO participation ratio (PR_NO):  3.801533
  
  
  Mulliken Population Analysis
  Atom      Charge (e)              h+              e-           Del q
  --------------------------------------------------------------------
   1 C       -0.408111        0.033437       -0.188894       -0.155457
   2 C       -0.408111        0.033437       -0.188894       -0.155457
   3 H        0.240537        0.004496        0.018547        0.023043
   4 H        0.240537        0.004496        0.018547        0.023043
   5 H        0.102338        0.019880        0.035786        0.055666
   6 H        0.102338        0.019880        0.035786        0.055666
   7 O       -1.602341        1.262686       -1.789074       -0.526388
   8 H        0.732813        0.185214        0.494669        0.679883
  --------------------------------------------------------------------
  Sum:       -1.000000        1.563527       -1.563527       -0.000000
  
  Multipole moment analysis of the density matrix
    Molecular charge:                      -1.000000
    Number of electrons:                   26.000000
      Center of electronic charge [Ang]: [  0.000000,  -0.000000,  -0.027472]
    Total nuclear charge:                  25.000000
      Center of nuclear charge [Ang]:    [  0.000000,   0.000000,  -0.000000]
    Dipole moment [D]:                     3.430768
      Cartesian components [D]:          [ -0.000000,   0.000000,   3.430768]
    RMS size of the density [Ang]:         1.867760
      Cartesian components [Ang]:        [  0.888163,   0.546024,   1.549695]
  
  Exciton analysis of the difference density matrix
    <r_h> [Ang]:                  [ -0.000000,  -0.000000,  -1.562777]
    <r_e> [Ang]:                  [  0.000000,  -0.000000,  -1.291835]
    |<r_e - r_h>| [Ang]:            0.270942
    Hole size [Ang]:                1.681487
      Cartesian components [Ang]: [  0.840865,   0.881244,   1.159204]
    Electron size [Ang]:            3.212013
      Cartesian components [Ang]: [  1.915677,   1.441258,   2.137752]

  Transition density matrix analysis:
  -----------------------------------
  
  CT numbers (Mulliken)
    omega =     0.8723
    <Phe> =    -0.0052
  
  Exciton analysis of the transition density matrix
    Trans. dipole moment [D]:             0.186854
      Cartesian components [D]:         [  0.000000,  -0.186854,  -0.000000]
    <r_h> [Ang]:                        [  0.000000,   0.000000,  -1.746550]
    <r_e> [Ang]:                        [  0.000000,  -0.000000,  -1.345059]
    |<r_e - r_h>| [Ang]:                  0.401492
    Hole size [Ang]:                      1.088060
      Cartesian components [Ang]:       [  0.475560,   0.821155,   0.532373]
    Electron size [Ang]:                  3.791885
      Cartesian components [Ang]:       [  2.273124,   1.707842,   2.508900]
    RMS electron-hole separation [Ang]:   3.959758
      Cartesian components [Ang]:       [  2.321917,   1.892366,   2.589852]
    Covariance(r_h, r_e) [Ang^2]:         0.021892
    Correlation coefficient:              0.005306
    Center-of-mass size [Ang]:            1.975225
      Cartesian components [Ang]:       [  1.161379,   0.948814,   1.285482]

  Decomposition into state-averaged NTOs
    H- 0 -> L+ 1:  0.4674 ( 43.7%)
    H- 0 -> L+ 2:  0.4017 ( 32.3%)
    H- 0 -> L+ 6:  0.1764 (  6.2%)
    H- 0 -> L+ 3: -0.1512 (  4.6%)
                   omega =  87.2%
  ----------------------------------------------------------------------------


  Excited state 7 (singlet, B2)                                    [converged]
  ----------------------------------------------------------------------------
  Term symbol:  7 (1) B2                                    R^2 =  1.51183e-08

  Total energy:                                           -153.7931712030 a.u.
  Excitation energy:                                               4.855726 eV

  Osc. strength:                                                      0.028649
  Trans. dip. moment [a.u.]:           [   0.000000,   -0.490735,    0.000000]
  <i|r^2|0> [a.u.]:                    [   0.000000,    0.000000,    0.000000]

  Dip. moment [a.u.]:                  [   0.000000,    0.000000,   -4.000102]
  Total dipole [Debye]:                                              10.167247
  <r^2> [a.u.]:                        [  69.689869,   30.627402,  239.120787]
  Total <r^2> [a.u.]:                                               339.438058

  V1^2 = 0.8726, V2^2 = 0.1274

  Important amplitudes:
      occ i      occ j       vir a       vir b          v   
    ---------------------------------------------------------
     2 (B2) A              11 (A1) A                 -0.5439
     2 (B2) A              12 (A1) A                 -0.2851
    ---------------------------------------------------------

  Density matrix analysis:
  ------------------------
  NOs
    Occupation of frontier NOs:
       0.9645   0.9918
    Number of electrons: 26.000000
    Number of unpaired electrons: n_u =  2.75058, n_u,nl =  2.11520
    NO participation ratio (PR_NO):  3.889853
  
  
  Mulliken Population Analysis
  Atom      Charge (e)              h+              e-           Del q
  --------------------------------------------------------------------
   1 C       -0.805862        0.035617       -0.588824       -0.553207
   2 C       -0.805862        0.035617       -0.588824       -0.553207
   3 H        0.143936        0.000930       -0.074488       -0.073558
   4 H        0.143936        0.000930       -0.074488       -0.073558
   5 H        0.088525        0.040915        0.000938        0.041853
   6 H        0.088525        0.040915        0.000938        0.041853
   7 O       -0.122266        1.369511       -0.415825        0.953687
   8 H        0.269067        0.137192        0.078945        0.216137
  --------------------------------------------------------------------
  Sum:       -1.000000        1.661629       -1.661629       -0.000000
  
  Multipole moment analysis of the density matrix
    Molecular charge:                      -1.000000
    Number of electrons:                   26.000000
      Center of electronic charge [Ang]: [ -0.000000,  -0.000000,   0.081414]
    Total nuclear charge:                  25.000000
      Center of nuclear charge [Ang]:    [  0.000000,   0.000000,  -0.000000]
    Dipole moment [D]:                     10.167244
      Cartesian components [D]:          [  0.000000,   0.000000, -10.167244]
    RMS size of the density [Ang]:         1.910296
      Cartesian components [Ang]:        [  0.866362,   0.574341,   1.602742]
  
  Exciton analysis of the difference density matrix
    <r_h> [Ang]:                  [ -0.000000,  -0.000000,  -1.449075]
    <r_e> [Ang]:                  [ -0.000000,  -0.000000,   0.509638]
    |<r_e - r_h>| [Ang]:            1.958713
    Hole size [Ang]:                1.780710
      Cartesian components [Ang]: [  0.826185,   0.869950,   1.315877]
    Electron size [Ang]:            3.733250
      Cartesian components [Ang]: [  1.694673,   1.573871,   2.930558]

  Transition density matrix analysis:
  -----------------------------------
  
  CT numbers (Mulliken)
    omega =     0.8560
    <Phe> =    -0.0031
  
  Exciton analysis of the transition density matrix
    Trans. dipole moment [D]:             0.623661
      Cartesian components [D]:         [  0.000000,  -0.623661,   0.000000]
    <r_h> [Ang]:                        [  0.000000,   0.000000,  -1.726596]
    <r_e> [Ang]:                        [ -0.000000,   0.000000,   1.618427]
    |<r_e - r_h>| [Ang]:                  3.345023
    Hole size [Ang]:                      1.120166
      Cartesian components [Ang]:       [  0.479315,   0.823561,   0.588877]
    Electron size [Ang]:                  4.236755
      Cartesian components [Ang]:       [  2.055901,   1.938914,   3.156576]
    RMS electron-hole separation [Ang]:   5.508561
      Cartesian components [Ang]:       [  2.110640,   2.105146,   4.632257]
    Covariance(r_h, r_e) [Ang^2]:         0.024898
    Correlation coefficient:              0.005246
    Center-of-mass size [Ang]:            2.194006
      Cartesian components [Ang]:       [  1.055715,   1.053998,   1.608794]

  Decomposition into state-averaged NTOs
    H- 0 -> L+ 7:  0.3800 ( 28.9%)
    H- 0 -> L+ 6:  0.3311 ( 21.9%)
    H- 0 -> L+ 2: -0.2458 ( 12.1%)
    H- 0 -> L+ 3:  0.2379 ( 11.3%)
    H- 0 -> L+ 1:  0.2022 (  8.2%)
    H- 0 -> L+ 0: -0.1218 (  3.0%)
                   omega =  85.6%
  ----------------------------------------------------------------------------


  Excited state 8 (singlet, B2)                                    [converged]
  ----------------------------------------------------------------------------
  Term symbol:  8 (1) B2                                    R^2 =  1.40669e-08

  Total energy:                                           -153.7635335535 a.u.
  Excitation energy:                                               5.662208 eV

  Osc. strength:                                                      0.023402
  Trans. dip. moment [a.u.]:           [  -0.000000,    0.410724,   -0.000000]
  <i|r^2|0> [a.u.]:                    [  -0.000000,   -0.000000,    0.000000]

  Dip. moment [a.u.]:                  [  -0.000000,    0.000000,   -1.439097]
  Total dipole [Debye]:                                               3.657820
  <r^2> [a.u.]:                        [  69.490165,   31.561911,  253.581996]
  Total <r^2> [a.u.]:                                               354.634071

  V1^2 = 0.9437, V2^2 = 0.0563

  Important amplitudes:
      occ i      occ j       vir a       vir b          v   
    ---------------------------------------------------------
     1 (B2) A               8 (A1) A                 -0.6004
     1 (B2) A              10 (A1) A                 -0.2840
    ---------------------------------------------------------

  Density matrix analysis:
  ------------------------
  NOs
    Occupation of frontier NOs:
       0.9872   0.9931
    Number of electrons: 26.000000
    Number of unpaired electrons: n_u =  2.61628, n_u,nl =  2.06724
    NO participation ratio (PR_NO):  3.460153
  
  
  Mulliken Population Analysis
  Atom      Charge (e)              h+              e-           Del q
  --------------------------------------------------------------------
   1 C       -0.437216        0.537787       -0.722348       -0.184561
   2 C       -0.437216        0.537787       -0.722348       -0.184561
   3 H        0.270383        0.060243       -0.007354        0.052889
   4 H        0.270383        0.060243       -0.007354        0.052889
   5 H        0.149105        0.124614       -0.022181        0.102433
   6 H        0.149105        0.124614       -0.022181        0.102433
   7 O       -1.019212        0.055425        0.001316        0.056741
   8 H        0.054666        0.024631       -0.022894        0.001737
  --------------------------------------------------------------------
  Sum:       -1.000000        1.525344       -1.525344       -0.000000
  
  Multipole moment analysis of the density matrix
    Molecular charge:                      -1.000000
    Number of electrons:                   26.000000
      Center of electronic charge [Ang]: [  0.000000,  -0.000000,   0.029290]
    Total nuclear charge:                  25.000000
      Center of nuclear charge [Ang]:    [  0.000000,   0.000000,  -0.000000]
    Dipole moment [D]:                     3.657819
      Cartesian components [D]:          [ -0.000000,   0.000000,  -3.657819]
    RMS size of the density [Ang]:         1.954141
      Cartesian components [Ang]:        [  0.865120,   0.583037,   1.652363]
  
  Exciton analysis of the difference density matrix
    <r_h> [Ang]:                  [ -0.000000,  -0.000000,   0.905356]
    <r_e> [Ang]:                  [  0.000000,   0.000000,   2.150602]
    |<r_e - r_h>| [Ang]:            1.245246
    Hole size [Ang]:                1.835235
      Cartesian components [Ang]: [  1.061642,   0.914512,   1.185189]
    Electron size [Ang]:            3.475065
      Cartesian components [Ang]: [  1.864233,   1.697601,   2.391415]

  Transition density matrix analysis:
  -----------------------------------
  
  CT numbers (Mulliken)
    omega =     0.9129
    <Phe> =    -0.0035
  
  Exciton analysis of the transition density matrix
    Trans. dipole moment [D]:             0.521978
      Cartesian components [D]:         [ -0.000000,   0.521978,  -0.000000]
    <r_h> [Ang]:                        [ -0.000000,  -0.000000,   1.012791]
    <r_e> [Ang]:                        [  0.000000,   0.000000,   2.932957]
    |<r_e - r_h>| [Ang]:                  1.920166
    Hole size [Ang]:                      1.313689
      Cartesian components [Ang]:       [  0.766569,   0.892977,   0.583731]
    Electron size [Ang]:                  3.876835
      Cartesian components [Ang]:       [  2.183731,   2.038411,   2.471043]
    RMS electron-hole separation [Ang]:   4.516420
      Cartesian components [Ang]:       [  2.310919,   2.222290,   3.181058]
    Covariance(r_h, r_e) [Ang^2]:         0.022308
    Correlation coefficient:              0.004380
    Center-of-mass size [Ang]:            2.049405
      Cartesian components [Ang]:       [  1.158908,   1.114280,   1.270974]

  Decomposition into state-averaged NTOs
    H- 2 -> L+ 0:  0.6741 ( 90.9%)
                   omega =  91.3%
  ----------------------------------------------------------------------------


  Excited state 9 (singlet, B2)                                    [converged]
  ----------------------------------------------------------------------------
  Term symbol:  9 (1) B2                                    R^2 =  5.86828e-06

  Total energy:                                           -153.7511288575 a.u.
  Excitation energy:                                               5.999757 eV

  Osc. strength:                                                      0.000293
  Trans. dip. moment [a.u.]:           [  -0.000000,    0.044671,   -0.000000]
  <i|r^2|0> [a.u.]:                    [  -0.000000,    0.000000,   -0.000000]

  Dip. moment [a.u.]:                  [  -0.000000,    0.000000,   -2.880749]
  Total dipole [Debye]:                                               7.322136
  <r^2> [a.u.]:                        [  74.469432,   76.956357,  215.989204]
  Total <r^2> [a.u.]:                                               367.414993

  V1^2 = 0.8718, V2^2 = 0.1282

  Important amplitudes:
      occ i      occ j       vir a       vir b          v   
    ---------------------------------------------------------
     7 (A1) A               3 (B2) A                  0.6535
     7 (A1) A               4 (B2) A                  0.0657
    ---------------------------------------------------------

  Density matrix analysis:
  ------------------------
  NOs
    Occupation of frontier NOs:
       0.9808   0.9994
    Number of electrons: 26.000000
    Number of unpaired electrons: n_u =  2.80021, n_u,nl =  2.13045
    NO participation ratio (PR_NO):  3.929013
  
  
  Mulliken Population Analysis
  Atom      Charge (e)              h+              e-           Del q
  --------------------------------------------------------------------
   1 C       -0.735771        0.064106       -0.547222       -0.483116
   2 C       -0.735771        0.064106       -0.547222       -0.483116
   3 H        0.173171       -0.001611       -0.042712       -0.044323
   4 H        0.173171       -0.001611       -0.042712       -0.044323
   5 H        0.080061        0.035550       -0.002162        0.033389
   6 H        0.080061        0.035550       -0.002162        0.033389
   7 O       -0.366258        1.211584       -0.501889        0.709695
   8 H        0.331335        0.295063       -0.016658        0.278406
  --------------------------------------------------------------------
  Sum:       -1.000000        1.702738       -1.702738       -0.000000
  
  Multipole moment analysis of the density matrix
    Molecular charge:                      -1.000000
    Number of electrons:                   26.000000
      Center of electronic charge [Ang]: [  0.000000,  -0.000000,   0.058632]
    Total nuclear charge:                  25.000000
      Center of nuclear charge [Ang]:    [  0.000000,   0.000000,  -0.000000]
    Dipole moment [D]:                     7.322134
      Cartesian components [D]:          [ -0.000000,   0.000000,  -7.322134]
    RMS size of the density [Ang]:         1.988402
      Cartesian components [Ang]:        [  0.895578,   0.910409,   1.524086]
  
  Exciton analysis of the difference density matrix
    <r_h> [Ang]:                  [  0.000000,  -0.000000,  -1.389102]
    <r_e> [Ang]:                  [  0.000000,  -0.000000,   0.174450]
    |<r_e - r_h>| [Ang]:            1.563552
    Hole size [Ang]:                1.839026
      Cartesian components [Ang]: [  0.853688,   0.778005,   1.431063]
    Electron size [Ang]:            4.311944
      Cartesian components [Ang]: [  1.910837,   3.146931,   2.244634]

  Transition density matrix analysis:
  -----------------------------------
  
  CT numbers (Mulliken)
    omega =     0.8547
    <Phe> =     0.0001
  
  Exciton analysis of the transition density matrix
    Trans. dipole moment [D]:             0.056772
      Cartesian components [D]:         [ -0.000000,   0.056772,  -0.000000]
    <r_h> [Ang]:                        [ -0.000000,  -0.000000,  -1.705364]
    <r_e> [Ang]:                        [  0.000000,  -0.000000,   1.094717]
    |<r_e - r_h>| [Ang]:                  2.800081
    Hole size [Ang]:                      1.153871
      Cartesian components [Ang]:       [  0.456066,   0.406653,   0.978803]
    Electron size [Ang]:                  5.228712
      Cartesian components [Ang]:       [  2.375227,   4.049560,   2.301910]
    RMS electron-hole separation [Ang]:   6.041048
      Cartesian components [Ang]:       [  2.417515,   4.069971,   3.753028]
    Covariance(r_h, r_e) [Ang^2]:         0.008523
    Correlation coefficient:              0.001413
    Center-of-mass size [Ang]:            2.678054
      Cartesian components [Ang]:       [  1.209857,   2.034941,   1.251891]

  Decomposition into state-averaged NTOs
    H- 3 -> L+ 4:  0.6532 ( 85.3%)
                   omega =  85.5%
  ----------------------------------------------------------------------------


  Excited state 10 (singlet, B2)                                    [converged]
  ----------------------------------------------------------------------------
  Term symbol:  10 (1) B2                                   R^2 =  1.12746e-06

  Total energy:                                           -153.7418155866 a.u.
  Excitation energy:                                               6.253184 eV

  Osc. strength:                                                      0.006630
  Trans. dip. moment [a.u.]:           [   0.000000,    0.208027,   -0.000000]
  <i|r^2|0> [a.u.]:                    [  -0.000000,    0.000000,    0.000000]

  Dip. moment [a.u.]:                  [   0.000000,   -0.000000,   -2.942855]
  Total dipole [Debye]:                                               7.479993
  <r^2> [a.u.]:                        [  81.996312,   31.545616,  207.674325]
  Total <r^2> [a.u.]:                                               321.216253

  V1^2 = 0.8752, V2^2 = 0.1248

  Important amplitudes:
      occ i      occ j       vir a       vir b          v   
    ---------------------------------------------------------
     2 (B2) A              13 (A1) A                 -0.6285
     2 (B2) A              11 (A1) A                 -0.1397
    ---------------------------------------------------------

  Density matrix analysis:
  ------------------------
  NOs
    Occupation of frontier NOs:
       0.9699   0.9873
    Number of electrons: 26.000000
    Number of unpaired electrons: n_u =  2.75994, n_u,nl =  2.11720
    NO participation ratio (PR_NO):  3.912558
  
  
  Mulliken Population Analysis
  Atom      Charge (e)              h+              e-           Del q
  --------------------------------------------------------------------
   1 C       -0.841004        0.051805       -0.640154       -0.588349
   2 C       -0.841004        0.051805       -0.640154       -0.588349
   3 H        0.216972       -0.000110       -0.000412       -0.000522
   4 H        0.216972       -0.000110       -0.000412       -0.000522
   5 H        0.109100        0.016984        0.045444        0.062428
   6 H        0.109100        0.016984        0.045444        0.062428
   7 O       -0.128268        1.372314       -0.424629        0.947685
   8 H        0.158131        0.123952       -0.018751        0.105201
  --------------------------------------------------------------------
  Sum:       -1.000000        1.633624       -1.633624       -0.000000
  
  Multipole moment analysis of the density matrix
    Molecular charge:                      -1.000000
    Number of electrons:                   26.000000
      Center of electronic charge [Ang]: [ -0.000000,   0.000000,   0.059896]
    Total nuclear charge:                  25.000000
      Center of nuclear charge [Ang]:    [  0.000000,   0.000000,  -0.000000]
    Dipole moment [D]:                     7.479991
      Cartesian components [D]:          [  0.000000,  -0.000000,  -7.479991]
    RMS size of the density [Ang]:         1.859037
      Cartesian components [Ang]:        [  0.939748,   0.582886,   1.494367]
  
  Exciton analysis of the difference density matrix
    <r_h> [Ang]:                  [ -0.000000,  -0.000000,  -1.491872]
    <r_e> [Ang]:                  [ -0.000000,   0.000000,   0.157946]
    |<r_e - r_h>| [Ang]:            1.649819
    Hole size [Ang]:                1.709145
      Cartesian components [Ang]: [  0.814643,   0.863175,   1.229822]
    Electron size [Ang]:            3.328299
      Cartesian components [Ang]: [  2.236073,   1.628562,   1.850766]

  Transition density matrix analysis:
  -----------------------------------
  
  CT numbers (Mulliken)
    omega =     0.8589
    <Phe> =    -0.0012
  
  Exciton analysis of the transition density matrix
    Trans. dipole moment [D]:             0.264375
      Cartesian components [D]:         [  0.000000,   0.264375,  -0.000000]
    <r_h> [Ang]:                        [  0.000000,   0.000000,  -1.708573]
    <r_e> [Ang]:                        [ -0.000000,   0.000000,   1.077949]
    |<r_e - r_h>| [Ang]:                  2.786522
    Hole size [Ang]:                      1.142687
      Cartesian components [Ang]:       [  0.481192,   0.822879,   0.630126]
    Electron size [Ang]:                  3.755773
      Cartesian components [Ang]:       [  2.757118,   2.006105,   1.574698]
    RMS electron-hole separation [Ang]:   4.809452
      Cartesian components [Ang]:       [  2.798514,   2.163978,   3.258273]
    Covariance(r_h, r_e) [Ang^2]:         0.022721
    Correlation coefficient:              0.005294
    Center-of-mass size [Ang]:            1.965770
      Cartesian components [Ang]:       [  1.399536,   1.086321,   0.851737]

  Decomposition into state-averaged NTOs
    H- 0 -> L+ 6: -0.3638 ( 26.5%)
    H- 0 -> L+ 7:  0.3461 ( 24.0%)
    H- 0 -> L+ 2:  0.3135 ( 19.7%)
    H- 0 -> L+ 3:  0.2735 ( 15.0%)
                   omega =  85.9%
  ----------------------------------------------------------------------------


--------------------------------------------------------------------------------
  Time of ADC calculation:  CPU 232.86 s  wall 63.22 s
================================================================================
 
 --------------------------------------------------------------
             Orbital Energies (a.u.) and Symmetries
 --------------------------------------------------------------
 
 Alpha MOs, Restricted
 -- Occupied --                  
-20.213 -11.049 -11.047  -0.930  -0.854  -0.598  -0.473  -0.384
  1 A1    2 A1    1 B1    3 A1    4 A1    2 B1    5 A1    6 A1                 
 -0.328  -0.271  -0.194  -0.130  -0.129
  3 B1    7 A1    1 B2    4 B1    2 B2                                         
 -- Virtual --                   
  0.128   0.140   0.144   0.150   0.153   0.164   0.223   0.252
  5 B1    8 A1    3 B2    1 A2    9 A1    6 B1   10 A1    7 B1                 
  0.271   0.283   0.289   0.304   0.327   0.347   0.377   0.378
  2 A2   11 A1    4 B2    8 B1   12 A1   13 A1    9 B1    3 A2                 
  0.448   0.469   0.475   0.507   0.533   0.544   0.547   0.580
  5 B2   14 A1   10 B1   15 A1   11 B1   12 B1   16 A1   17 A1                 
  0.592   0.614   0.636   0.658   0.706   0.721   0.804   1.010
  6 B2   13 B1   18 A1    4 A2   19 A1   14 B1   15 B1   20 A1                 
  1.050   1.129   1.145   1.200   1.220   1.223   1.291   1.302
 21 A1   16 B1   22 A1    7 B2   23 A1   17 B1    5 A2   24 A1                 
  1.319   1.337   1.348   1.349   1.361   1.377   1.403   1.483
 18 B1   25 A1   26 A1   19 B1    8 B2    9 B2    6 A2   10 B2                 
  1.483   1.530   1.665   1.675   1.719   1.790   1.880   1.966
  7 A2   20 B1   21 B1   27 A1   11 B2   22 B1   28 A1   23 B1                 
  2.038   2.069   2.132   2.159   2.187   2.213   2.273   2.349
 29 A1    8 A2   12 B2   30 A1   24 B1   13 B2   31 A1   32 A1                 
  2.370   2.396   2.440   2.533   2.582   2.604   2.766   2.773
  9 A2   14 B2   25 B1   26 B1   33 A1   10 A2   27 B1   34 A1                 
  2.855   3.056   3.083   3.129   3.487   3.574   3.923   3.946
 28 B1   35 A1   36 A1   37 A1   29 B1   30 B1   15 B2   11 A2                 
  3.972   4.090   4.547
 38 A1   31 B1   39 A1                                                         
 
 Beta MOs, Restricted
 -- Occupied --                  
-20.213 -11.049 -11.047  -0.930  -0.854  -0.598  -0.473  -0.384
  1 A1    2 A1    1 B1    3 A1    4 A1    2 B1    5 A1    6 A1                 
 -0.328  -0.271  -0.194  -0.130  -0.129
  3 B1    7 A1    1 B2    4 B1    2 B2                                         
 -- Virtual --                   
  0.128   0.140   0.144   0.150   0.153   0.164   0.223   0.252
  5 B1    8 A1    3 B2    1 A2    9 A1    6 B1   10 A1    7 B1                 
  0.271   0.283   0.289   0.304   0.327   0.347   0.377   0.378
  2 A2   11 A1    4 B2    8 B1   12 A1   13 A1    9 B1    3 A2                 
  0.448   0.469   0.475   0.507   0.533   0.544   0.547   0.580
  5 B2   14 A1   10 B1   15 A1   11 B1   12 B1   16 A1   17 A1                 
  0.592   0.614   0.636   0.658   0.706   0.721   0.804   1.010
  6 B2   13 B1   18 A1    4 A2   19 A1   14 B1   15 B1   20 A1                 
  1.050   1.129   1.145   1.200   1.220   1.223   1.291   1.302
 21 A1   16 B1   22 A1    7 B2   23 A1   17 B1    5 A2   24 A1                 
  1.319   1.337   1.348   1.349   1.361   1.377   1.403   1.483
 18 B1   25 A1   26 A1   19 B1    8 B2    9 B2    6 A2   10 B2                 
  1.483   1.530   1.665   1.675   1.719   1.790   1.880   1.966
  7 A2   20 B1   21 B1   27 A1   11 B2   22 B1   28 A1   23 B1                 
  2.038   2.069   2.132   2.159   2.187   2.213   2.273   2.349
 29 A1    8 A2   12 B2   30 A1   24 B1   13 B2   31 A1   32 A1                 
  2.370   2.396   2.440   2.533   2.582   2.604   2.766   2.773
  9 A2   14 B2   25 B1   26 B1   33 A1   10 A2   27 B1   34 A1                 
  2.855   3.056   3.083   3.129   3.487   3.574   3.923   3.946
 28 B1   35 A1   36 A1   37 A1   29 B1   30 B1   15 B2   11 A2                 
  3.972   4.090   4.547
 38 A1   31 B1   39 A1                                                         
 --------------------------------------------------------------
 
          Ground-State Mulliken Net Atomic Charges

     Atom                 Charge (a.u.)
  ----------------------------------------
      1 C                    -0.248512
      2 C                    -0.248512
      3 H                     0.211404
      4 H                     0.211404
      5 H                     0.039740
      6 H                     0.039740
      7 O                    -1.075042
      8 H                     0.069779
  ----------------------------------------
  Sum of atomic charges =    -1.000000

 -----------------------------------------------------------------
                    Cartesian Multipole Moments
 -----------------------------------------------------------------
    Charge (ESU x 10^10)
                -4.8032
    Dipole Moment (Debye)
         X       0.0000      Y      -0.0000      Z       5.2869
       Tot       5.2869
    Quadrupole Moments (Debye-Ang)
        XX     -23.6565     XY       0.0000     YY     -26.5225
        XZ       0.0000     YZ      -0.0000     ZZ     -32.8943
    Octopole Moments (Debye-Ang^2)
       XXX       0.0000    XXY      -0.0000    XYY      -0.0000
       YYY       0.0000    XXZ       1.1091    XYZ       0.0000
       YYZ      -0.0875    XZZ       0.0000    YZZ       0.0000
       ZZZ       6.4631
    Hexadecapole Moments (Debye-Ang^3)
      XXXX     -87.9352   XXXY       0.0000   XXYY     -21.8372
      XYYY       0.0000   YYYY     -40.0466   XXXZ       0.0000
      XXYZ      -0.0000   XYYZ      -0.0000   YYYZ      -0.0000
      XXZZ     -70.5587   XYZZ       0.0000   YYZZ     -65.5215
      XZZZ       0.0000   YZZZ      -0.0000   ZZZZ    -292.8253
 -----------------------------------------------------------------
 Total job time:  172.58s(wall), 282.55s(cpu) 
 Sat Mar  5 01:21:25 2022

        *************************************************************
        *                                                           *
        *  Thank you very much for using Q-Chem.  Have a nice day.  *
        *                                                           *
        *************************************************************


