/src/tsommerfeld/qchem/exe/qcprog.exe .input1.69697.19300.qcin.1 /src/jdavis/qchem.scratch/qchem19300/

                  Welcome to Q-Chem
     A Quantum Leap Into The Future Of Chemistry


 Q-Chem 5.4 (devel), Q-Chem, Inc., Pleasanton, CA (2021)

 E. Epifanovsky,  A. T. B. Gilbert,  Xintian Feng,  Joonho Lee,  Yuezhi Mao,  
 N. Mardirossian,  P. Pokhilko,  A. White,  M. Wormit,  M. P. Coons,  
 A. L. Dempwolff,  Zhengting Gan,  D. Hait,  P. R. Horn,  L. D. Jacobson,  
 I. Kaliman,  J. Kussmann,  A. W. Lange,  Ka Un Lao,  D. S. Levine,  Jie Liu,  
 S. C. McKenzie,  A. F. Morrison,  K. Nanda,  F. Plasser,  D. R. Rehn,  
 M. L. Vidal,  Zhi-Qiang You,  Ying Zhu,  B. Alam,  B. Albrecht,  
 A. Aldossary,  E. Alguire,  J. H. Andersen,  D. Barton,  K. Begam,  A. Behn,  
 Y. A. Bernard,  E. J. Berquist,  H. Burton,  A. Carreras,  K. Carter-Fenk,  
 R. Chakraborty,  A. D. Chien,  K. D. Closser,  V. Cofer-Shabica,  
 S. Dasgupta,  Jia Deng,  M. de Wergifosse,  M. Diedenhofen,  Hainam Do,  
 S. Ehlert,  Po-Tung Fang,  S. Fatehi,  Qingguo Feng,  T. Friedhoff,  
 J. Gayvert,  Qinghui Ge,  G. Gidofalvi,  M. Goldey,  J. Gomes,  
 C. Gonzalez-Espinoza,  S. Gulania,  A. Gunina,  M. W. D. Hanson-Heine,  
 P. H. P. Harbach,  A. W. Hauser,  M. F. Herbst,  M. Hernandez Vera,  
 M. Hodecker,  Z. C. Holden,  S. Houck,  Xunkun Huang,  Kerwin Hui,  
 B. C. Huynh,  M. Ivanov,  Hyunjun Ji,  Hanjie Jiang,  B. Kaduk,  S. Kaehler,  
 K. Khistyaev,  Jaehoon Kim,  P. Klunzinger,  Z. Koczor-Benda,  
 Joong Hoon Koh,  D. Kosenkov,  L. Koulias,  T. Kowalczyk,  C. M. Krauter,  
 K. Kue,  A. Kunitsa,  T. Kus,  A. Landau,  K. V. Lawler,  D. Lefrancois,  
 S. Lehtola,  Rain Li,  Yi-Pei Li,  Jiashu Liang,  M. Liebenthal,  
 Hung-Hsuan Lin,  You-Sheng Lin,  Fenglai Liu,  Kuan-Yu Liu,  
 M. Loipersberger,  A. Luenser,  A. Manjanath,  P. Manohar,  E. Mansoor,  
 S. F. Manzer,  Shan-Ping Mao,  A. V. Marenich,  T. Markovich,  S. Mason,  
 S. A. Maurer,  P. F. McLaughlin,  M. F. S. J. Menger,  J.-M. Mewes,  
 S. A. Mewes,  P. Morgante,  J. W. Mullinax,  K. J. Oosterbaan,  G. Paran,  
 Alexander C. Paul,  Suranjan K. Paul,  F. Pavosevic,  Zheng Pei,  S. Prager,  
 E. I. Proynov,  E. Ramos,  B. Rana,  A. E. Rask,  A. Rettig,  R. M. Richard,  
 F. Rob,  E. Rossomme,  T. Scheele,  M. Scheurer,  M. Schneider,  
 N. Sergueev,  S. M. Sharada,  W. Skomorowski,  D. W. Small,  C. J. Stein,  
 Yu-Chuan Su,  E. J. Sundstrom,  Zhen Tao,  J. Thirman,  T. Tsuchimochi,  
 N. M. Tubman,  S. P. Veccham,  O. Vydrov,  J. Wenzel,  J. Witte,  A. Yamada,  
 Kun Yao,  S. Yeganeh,  S. R. Yost,  A. Zech,  Igor Ying Zhang,  Xing Zhang,  
 Yu Zhang,  D. Zuev,  A. Aspuru-Guzik,  A. T. Bell,  N. A. Besley,  
 K. B. Bravaya,  B. R. Brooks,  D. Casanova,  Jeng-Da Chai,  S. Coriani,  
 C. J. Cramer,  A. E. DePrince, III,  R. A. DiStasio Jr.,  A. Dreuw,  
 B. D. Dunietz,  T. R. Furlani,  W. A. Goddard III,  S. Grimme,  
 S. Hammes-Schiffer,  T. Head-Gordon,  W. J. Hehre,  Chao-Ping Hsu,  
 T.-C. Jagau,  Yousung Jung,  A. Klamt,  Jing Kong,  D. S. Lambrecht,  
 WanZhen Liang,  N. J. Mayhall,  C. W. McCurdy,  J. B. Neaton,  
 C. Ochsenfeld,  J. A. Parkhill,  R. Peverati,  V. A. Rassolov,  Yihan Shao,  
 L. V. Slipchenko,  T. Stauch,  R. P. Steele,  J. E. Subotnik,  
 A. J. W. Thom,  A. Tkatchenko,  D. G. Truhlar,  T. Van Voorhis,  
 T. A. Wesolowski,  K. B. Whaley,  H. L. Woodcock III,  P. M. Zimmerman,  
 S. Faraji,  P. M. W. Gill,  M. Head-Gordon,  J. M. Herbert,  A. I. Krylov

 Additional authors for Version 5.4.1: 
 S. Kotaru,  Shaozhi Li,  Xiangyuan Li,  F. Matz,  A. Molle,  Haisheng Ren,  
 Yingli Su,  Hung-Yi Tsai,  C. Utku,  Fang Wang

 Contributors to earlier versions of Q-Chem not listed above: 
 R. D. Adamson,  B. Austin,  R. Baer,  J. Baker,  G. J. O. Beran,  
 K. Brandhorst,  S. T. Brown,  E. F. C. Byrd,  A. K. Chakraborty,  
 G. K. L. Chan,  Chun-Min Chang,  Yunqing Chen,  C.-L. Cheng,  
 Siu Hung Chien,  D. M. Chipman,  D. L. Crittenden,  H. Dachsel,  
 R. J. Doerksen,  A. D. Dutoi,  R. G. Edgar,  J. Fosso-Tande,  
 L. Fusti-Molnar,  D. Ghosh,  A. Ghysels,  A. Golubeva-Zadorozhnaya,  
 J. Gonthier,  M. S. Gordon,  S. R. Gwaltney,  G. Hawkins,  J. E. Herr,  
 A. Heyden,  S. Hirata,  E. G. Hohenstein,  G. Kedziora,  F. J. Keil,  
 C. Kelley,  Jihan Kim,  R. A. King,  R. Z. Khaliullin,  P. P. Korambath,  
 W. Kurlancheek,  A. Laurent,  A. M. Lee,  M. S. Lee,  S. V. Levchenko,  
 Ching Yeh Lin,  D. Liotard,  E. Livshits,  R. C. Lochan,  I. Lotan,  
 L. A. Martinez-Martinez,  P. E. Maslen,  N. Nair,  D. P. O'Neill,  
 D. Neuhauser,  E. Neuscamman,  C. M. Oana,  R. Olivares-Amaya,  R. Olson,  
 T. M. Perrine,  B. Peters,  P. A. Pieniazek,  A. Prociuk,  Y. M. Rhee,  
 J. Ritchie,  M. A. Rohrdanz,  E. Rosta,  N. J. Russ,  H. F. Schaefer III,  
 M. W. Schmidt,  N. E. Schultz,  S. Sharma,  N. Shenvi,  C. D. Sherrill,  
 A. C. Simmonett,  A. Sodt,  T. Stein,  D. Stuck,  K. S. Thanthiriwatte,  
 V. Vanovschi,  L. Vogt,  Tao Wang,  A. Warshel,  M. A. Watson,  
 C. F. Williams,  Q. Wu,  X. Xu,  Jun Yang,  W. Zhang,  Yan Zhao

 Please cite Q-Chem as follows:
 Y. Shao et al., Mol. Phys. 113, 184-215 (2015)
 DOI: 10.1080/00268976.2014.952696

 Q-Chem 5.4.1 for Intel X86 EM64T Linux

 Parts of Q-Chem use Armadillo 9.900.5 (Nocturnal Misbehaviour).
 http://arma.sourceforge.net/

 Q-Chem begins on Sat Mar  5 01:04:11 2022  

 Host: node01
0

     Scratch files written to /src/jdavis/qchem.scratch/qchem19300//
 Processing $rem in /src/tsommerfeld/qchem/config/preferences:
 Processing $rem in /home/jdavis/.qchemrc:

 Checking the input file for inconsistencies... 	...done.

--------------------------------------------------------------
User input:
--------------------------------------------------------------
$molecule
-1 1
C        -0.6645000000    0.0000000000    1.1619088658
C         0.6645000000    0.0000000000    1.1619088658
H        -1.1590800000    0.0000000000    0.1995598658
H         1.1590800000    0.0000000000    0.1995598658
H        -1.1590800000    0.0000000000    2.1242568658
H         1.1590800000    0.0000000000    2.1242568658
O         0.0000000000    0.0000000000   -1.5841414040
H         0.0000000000    0.0000000000   -2.5471307683
$end
$rem
   METHOD adc(2)
   BASIS gen
   PURECART 11
   EE_STATES [0,0,0,10]
   scf_convergence 8
   ADC_DAVIDSON_MAXITER 120
   ADC_DAVIDSON_MAXSUBSPACE 200
   adc_nguess_singles 100
   THRESH 14
   S2THRESH 14
   adc_davidson_conv 5
   adc_davidson_thresh 14
   THREADS 10
   MEM_TOTAL 95000
   STATE_ANALYSIS TRUE
$end
$basis
C 1
S   9   1.00
      6.665000D+03           6.920000D-04
      1.000000D+03           5.329000D-03
      2.280000D+02           2.707700D-02
      6.471000D+01           1.017180D-01
      2.106000D+01           2.747400D-01
      7.495000D+00           4.485640D-01
      2.797000D+00           2.850740D-01
      5.215000D-01           1.520400D-02
      1.596000D-01          -3.191000D-03
S   9   1.00
      6.665000D+03          -1.460000D-04
      1.000000D+03          -1.154000D-03
      2.280000D+02          -5.725000D-03
      6.471000D+01          -2.331200D-02
      2.106000D+01          -6.395500D-02
      7.495000D+00          -1.499810D-01
      2.797000D+00          -1.272620D-01
      5.215000D-01           5.445290D-01
      1.596000D-01           5.804960D-01
S   1   1.00
      1.596000D-01           1.000000D+00
S   1   1.00
      0.0469000              1.0000000
P   4   1.00
      9.439000D+00           3.810900D-02
      2.002000D+00           2.094800D-01
      5.456000D-01           5.085570D-01
      1.517000D-01           4.688420D-01
P   1   1.00
      1.517000D-01           1.000000D+00
P   1   1.00
      0.0735515      1.0000000
P   1   1.00
      0.0367758      1.0000000
P   1   1.00
      0.0183879      1.0000000
D   1   1.00
      5.500000D-01           1.0000000
****
C 2
S   9   1.00
      6.665000D+03           6.920000D-04
      1.000000D+03           5.329000D-03
      2.280000D+02           2.707700D-02
      6.471000D+01           1.017180D-01
      2.106000D+01           2.747400D-01
      7.495000D+00           4.485640D-01
      2.797000D+00           2.850740D-01
      5.215000D-01           1.520400D-02
      1.596000D-01          -3.191000D-03
S   9   1.00
      6.665000D+03          -1.460000D-04
      1.000000D+03          -1.154000D-03
      2.280000D+02          -5.725000D-03
      6.471000D+01          -2.331200D-02
      2.106000D+01          -6.395500D-02
      7.495000D+00          -1.499810D-01
      2.797000D+00          -1.272620D-01
      5.215000D-01           5.445290D-01
      1.596000D-01           5.804960D-01
S   1   1.00
      1.596000D-01           1.000000D+00
S   1   1.00
      0.0469000              1.0000000
P   4   1.00
      9.439000D+00           3.810900D-02
      2.002000D+00           2.094800D-01
      5.456000D-01           5.085570D-01
      1.517000D-01           4.688420D-01
P   1   1.00
      1.517000D-01           1.000000D+00
P   1   1.00
      0.0735515      1.0000000
P   1   1.00
      0.0367758      1.0000000
P   1   1.00
      0.0183879      1.0000000
D   1   1.00
      5.500000D-01           1.0000000
****
H 3
cc-pVDZ
****
H 4
cc-pVDZ
****
H 5
cc-pVDZ
****
H 6
cc-pVDZ
****
O 7
aug-cc-pVDZ
****
H 8
cc-pVDZ
****
$end
--------------------------------------------------------------
 ----------------------------------------------------------------
             Standard Nuclear Orientation (Angstroms)
    I     Atom           X                Y                Z
 ----------------------------------------------------------------
    1      C      -0.6645000000    -0.0000000000     1.0270977517
    2      C       0.6645000000     0.0000000000     1.0270977517
    3      H      -1.1590800000    -0.0000000000     0.0647487517
    4      H       1.1590800000     0.0000000000     0.0647487517
    5      H      -1.1590800000    -0.0000000000     1.9894457517
    6      H       1.1590800000     0.0000000000     1.9894457517
    7      O       0.0000000000    -0.0000000000    -1.7189525181
    8      H       0.0000000000    -0.0000000000    -2.6819418824
 ----------------------------------------------------------------
 Molecular Point Group                 C2v   NOp =  4
 Largest Abelian Subgroup              C2v   NOp =  4
 Nuclear Repulsion Energy =          64.38561153 hartrees
 There are       13 alpha and       13 beta electrons
 Requested basis set is non-standard
 There are 44 shells and 96 basis functions
 Total memory of 95000 MB is distributed as follows: 
   MEM_STATIC is set to 192 MB
   QALLOC/CCMAN JOB total memory use is  94808 MB
 Warning: actual memory use might exceed 95000 MB

 Total QAlloc Memory Limit  95000 MB
 Mega-Array Size       188 MB
 MEM_STATIC part       192 MB

                       Distance Matrix (Angstroms)
             C (  1)   C (  2)   H (  3)   H (  4)   H (  5)   H (  6)
   C (  2)  1.329000
   H (  3)  1.082000  2.061931
   H (  4)  2.061931  1.082000  2.318160
   H (  5)  1.082000  2.061931  1.924697  3.013026
   H (  6)  2.061931  1.082000  3.013026  1.924697  2.318160
   O (  7)  2.825306  2.825306  2.127218  2.127218  3.885316  3.885316
   H (  8)  3.768094  3.768094  2.981237  2.981237  4.813037  4.813037
             O (  7)
   H (  8)  0.962989
 
 A cutoff of  1.0D-14 yielded    990 shell pairs
 There are      4750 function pairs (      5164 Cartesian)
 Smallest overlap matrix eigenvalue = 1.72E-04

 Scale SEOQF with 1.000000e-01/1.000000e-01/1.000000e-01

 Standard Electronic Orientation quadrupole field applied
 Nucleus-field energy     =    -0.0000000051 hartrees
 ================ Generating on-the-fly SAD Guess ================
Attempting to make child job directory: /src/jdavis/qchem.scratch/qchem19300//Frg1/
Attempting to make child job directory: /src/jdavis/qchem.scratch/qchem19300//Frg2/
Attempting to make child job directory: /src/jdavis/qchem.scratch/qchem19300//Frg3/
Creating input file /src/jdavis/qchem.scratch/qchem19300/Frg1.input
using default PutDataFrgm: nothing
calling putenv with: QCSCRATCH=/src/jdavis/qchem.scratch/qchem19300/ 
Spawning Job For Fragment 0
Done Job For Fragment 0
calling putenv with: QCSCRATCH=/src/jdavis/qchem.scratch 
calling putenv with: QCTHREADS=1 
Creating input file /src/jdavis/qchem.scratch/qchem19300/Frg2.input
using default PutDataFrgm: nothing
calling putenv with: QCSCRATCH=/src/jdavis/qchem.scratch/qchem19300/ 
Spawning Job For Fragment 1
Done Job For Fragment 1
calling putenv with: QCSCRATCH=/src/jdavis/qchem.scratch 
calling putenv with: QCTHREADS=1 
Creating input file /src/jdavis/qchem.scratch/qchem19300/Frg3.input
using default PutDataFrgm: nothing
calling putenv with: QCSCRATCH=/src/jdavis/qchem.scratch/qchem19300/ 
Spawning Job For Fragment 2
Done Job For Fragment 2
calling putenv with: QCSCRATCH=/src/jdavis/qchem.scratch 
calling putenv with: QCTHREADS=1 
 Time for running child jobs:  CPU 1.76 s  wall 80.86 s
 ============= Method Specific SAD Guess Constructed =============
 Guess from on-the-fly superposition of atomic densities
 Warning: Energy on first SCF cycle will be non-variational
 A restricted Hartree-Fock SCF calculation will be
 performed using Pulay DIIS extrapolation
 SCF converges when DIIS error is below 1.0E-08
 using 10 threads for integral computing
 -------------------------------------------------------
 OpenMP Integral computing Module                
 Release: version 1.0, May 2013, Q-Chem Inc. Pittsburgh 
 -------------------------------------------------------
 ---------------------------------------
  Cycle       Energy         DIIS Error
 ---------------------------------------
    1    -153.5752791305      5.61E-02
    2    -153.2899731503      1.15E-02
    3    -153.3539434304      9.71E-03
    4    -153.4404078980      7.27E-04
    5    -153.4413699138      2.00E-04
    6    -153.4414458187      4.38E-05
    7    -153.4414513855      1.17E-05
    8    -153.4414519784      3.51E-06
    9    -153.4414520287      6.80E-07
   10    -153.4414520303      1.23E-07
   11    -153.4414520304      3.90E-08
   12    -153.4414520304      1.29E-08
   13    -153.4414520304      2.58E-09 Convergence criterion met
 ---------------------------------------
 SCF time:  CPU 15.88 s  wall 1.59 s
 SCF   energy in the final basis set = -153.44145203
 Total energy in the final basis set = -153.44145203
================================================================================
|                                                                              |
|                                 A D C  M A N                                 |
|                                                                              |
 ------------------------------------------------------------------------------ 
|                                                                              |
| Components:                                                                  |
|                                                                              |
| - libvmm - 1.3-trunk                                                         |
|   Authors:                                                                   |
|   Evgeny Epifanovsky, Ilya Kaliman                                           |
|                                                                              |
| - libtensor - 2.5-trunk                                                      |
|   Authors:                                                                   |
|   Evgeny Epifanovsky, Michael Wormit, Dmitry Zuev, Sam Manzer,               |
|   Ilya Kaliman                                                               |
|                                                                              |
| - libwfa - 1.1-trunk                                                         |
|   Authors:                                                                   |
|   Felix Plasser, Stefanie Mewes (Baeppler), Benjamin Thomitzni,              |
|   Michael Wormit, Feng Chen, Anna I. Krylov, Pavel Pokhilko                  |
|                                                                              |
| - libadc - 1.1-trunk                                                         |
|   Authors:                                                                   |
|   Michael Wormit, Adrian L. Dempwolff, Philipp H. P. Harbach,                |
|   Caroline Krauter, Dirk Rehn, Matthias Schneider, Jan Wenzel                |
|                                                                              |
| - adcman - 2.6-trunk                                                         |
|   Authors:                                                                   |
|   Michael Wormit, Adrian L. Dempwolff, Philipp H. P. Harbach,                |
|   Caroline Krauter, Daniel Lefrancois, Jan-Michael Mewes, Dirk Rehn,         |
|   Matthias Schneider, Jan Wenzel, Andreas Dreuw                              |
|                                                                              |
| Authors of earlier versions of ADCMAN:                                       |
| Andreas Dreuw, Jan Hendrik Starcke, Dirk Rehn, Michael Wormit                |
|                                                                              |
================================================================================

 
 Alpha MOs, Restricted
 -- Occupied --                  
-20.213 -11.049 -11.047  -0.930  -0.854  -0.598  -0.473  -0.384
  1 A1    2 A1    1 B1    3 A1    4 A1    2 B1    5 A1    6 A1                 
 -0.328  -0.271  -0.194  -0.130  -0.129
  3 B1    7 A1    1 B2    4 B1    2 B2                                         
 -- Virtual --                   
  0.119   0.132   0.134   0.139   0.147   0.152   0.210   0.232
  5 B1    8 A1    3 B2    1 A2    9 A1    6 B1   10 A1    7 B1                 
  0.258   0.263   0.267   0.282   0.327   0.335   0.360   0.373
  2 A2   11 A1    4 B2    8 B1   12 A1   13 A1    3 A2    9 B1                 
  0.447   0.451   0.469   0.494   0.502   0.519   0.532   0.547
  5 B2   14 A1   10 B1   15 A1   11 B1   16 A1   12 B1    6 B2                 
  0.574   0.580   0.611   0.612   0.699   0.733   0.795   1.009
 13 B1   17 A1   18 A1    4 A2   19 A1   14 B1   15 B1   20 A1                 
  1.046   1.129   1.132   1.159   1.200   1.216   1.276   1.291
 21 A1   22 A1   16 B1   23 A1    7 B2   17 B1   24 A1    5 A2                 
  1.307   1.309   1.334   1.338   1.339   1.340   1.370   1.475
 18 B1    8 B2   25 A1   19 B1    6 A2   26 A1    9 B2   10 B2                 
  1.483   1.495   1.654   1.667   1.719   1.743   1.876   1.944
  7 A2   20 B1   21 B1   27 A1   11 B2   22 B1   28 A1   23 B1                 
  2.031   2.065   2.131   2.153   2.177   2.213   2.263   2.338
 29 A1    8 A2   12 B2   30 A1   24 B1   13 B2   31 A1   32 A1                 
  2.368   2.395   2.440   2.530   2.578   2.604   2.771   2.775
  9 A2   14 B2   25 B1   26 B1   33 A1   10 A2   34 A1   27 B1                 
  2.854   3.046   3.062   3.118   3.468   3.568   3.923   3.946
 28 B1   35 A1   36 A1   37 A1   29 B1   30 B1   15 B2   11 A2                 
  3.972   4.090   4.546
 38 A1   31 B1   39 A1                                                         
 
 Beta MOs, Restricted
 -- Occupied --                  
-20.213 -11.049 -11.047  -0.930  -0.854  -0.598  -0.473  -0.384
  1 A1    2 A1    1 B1    3 A1    4 A1    2 B1    5 A1    6 A1                 
 -0.328  -0.271  -0.194  -0.130  -0.129
  3 B1    7 A1    1 B2    4 B1    2 B2                                         
 -- Virtual --                   
  0.119   0.132   0.134   0.139   0.147   0.152   0.210   0.232
  5 B1    8 A1    3 B2    1 A2    9 A1    6 B1   10 A1    7 B1                 
  0.258   0.263   0.267   0.282   0.327   0.335   0.360   0.373
  2 A2   11 A1    4 B2    8 B1   12 A1   13 A1    3 A2    9 B1                 
  0.447   0.451   0.469   0.494   0.502   0.519   0.532   0.547
  5 B2   14 A1   10 B1   15 A1   11 B1   16 A1   12 B1    6 B2                 
  0.574   0.580   0.611   0.612   0.699   0.733   0.795   1.009
 13 B1   17 A1   18 A1    4 A2   19 A1   14 B1   15 B1   20 A1                 
  1.046   1.129   1.132   1.159   1.200   1.216   1.276   1.291
 21 A1   22 A1   16 B1   23 A1    7 B2   17 B1   24 A1    5 A2                 
  1.307   1.309   1.334   1.338   1.339   1.340   1.370   1.475
 18 B1    8 B2   25 A1   19 B1    6 A2   26 A1    9 B2   10 B2                 
  1.483   1.495   1.654   1.667   1.719   1.743   1.876   1.944
  7 A2   20 B1   21 B1   27 A1   11 B2   22 B1   28 A1   23 B1                 
  2.031   2.065   2.131   2.153   2.177   2.213   2.263   2.338
 29 A1    8 A2   12 B2   30 A1   24 B1   13 B2   31 A1   32 A1                 
  2.368   2.395   2.440   2.530   2.578   2.604   2.771   2.775
  9 A2   14 B2   25 B1   26 B1   33 A1   10 A2   34 A1   27 B1                 
  2.854   3.046   3.062   3.118   3.468   3.568   3.923   3.946
 28 B1   35 A1   36 A1   37 A1   29 B1   30 B1   15 B2   11 A2                 
  3.972   4.090   4.546
 38 A1   31 B1   39 A1                                                         

--------------------------------------------------------------------------------
                                   HF Summary                                   
--------------------------------------------------------------------------------
  Energy:                                                 -153.4414520304 a.u.
  Dip. moment [a.u.]:                  [   0.000000,   -0.000000,    2.079589]
  Total dipole [Debye]:                                               5.285788
  <r^2> [a.u.]:                        [  55.708414,   19.716261,  208.064594]
  Total <r^2> [a.u.]:                                               283.489269
--------------------------------------------------------------------------------

--------------------------------------------------------------------------------
                                 MP(2) Summary                                  
--------------------------------------------------------------------------------
  MP energy contribution:                                   -0.5295675516 a.u.
  Total energy:                                           -153.9710195820 a.u.
  Dip. moment [a.u.]:                  [  -0.000000,   -0.000000,    2.149767]
  Total dipole [Debye]:                                               5.464163
  <r^2> [a.u.]:                        [  56.710108,   20.418411,  209.359156]
  Total <r^2> [a.u.]:                                               286.487674

  Density matrix analysis:
  ------------------------
  NOs
    Occupation of frontier NOs:
       0.0447   1.9355
    Number of electrons: 26.000000
    Number of unpaired electrons: n_u =  0.71579, n_u,nl =  0.08549
    NO participation ratio (PR_NO): 23.011573
  
  
  Mulliken Population Analysis
  Atom      Charge (e)              h+              e-           Del q
  --------------------------------------------------------------------
   1 C       -0.233718        0.094631       -0.098233       -0.003603
   2 C       -0.233718        0.094631       -0.098233       -0.003603
   3 H        0.207624        0.017401       -0.011768        0.005633
   4 H        0.207624        0.017401       -0.011768        0.005633
   5 H        0.037020        0.019023       -0.012267        0.006756
   6 H        0.037020        0.019023       -0.012267        0.006756
   7 O       -1.074948        0.278704       -0.279444       -0.000739
   8 H        0.053097        0.015314       -0.032147       -0.016833
  --------------------------------------------------------------------
  Sum:       -1.000000        0.556128       -0.556128       -0.000000
  
  Multipole moment analysis of the density matrix
    Molecular charge:                      -1.000000
    Number of electrons:                   26.000000
      Center of electronic charge [Ang]: [  0.000000,   0.000000,  -0.043754]
    Total nuclear charge:                  25.000000
      Center of nuclear charge [Ang]:    [  0.000000,   0.000000,  -0.000000]
    Dipole moment [D]:                     5.464161
      Cartesian components [D]:          [ -0.000000,  -0.000000,   5.464161]
    RMS size of the density [Ang]:         1.756033
      Cartesian components [Ang]:        [  0.781528,   0.468949,   1.500984]
  
  Exciton analysis of the difference density matrix
    <r_h> [Ang]:                  [  0.000000,   0.000000,  -0.482948]
    <r_e> [Ang]:                  [  0.000000,   0.000000,  -0.549725]
    |<r_e - r_h>| [Ang]:            0.066777
    Hole size [Ang]:                1.975880
      Cartesian components [Ang]: [  0.894723,   0.764038,   1.587394]
    Electron size [Ang]:            2.311913
      Cartesian components [Ang]: [  1.142329,   0.968147,   1.761453]
--------------------------------------------------------------------------------
  Starting Davidson for singlet states of irrep B2 ... 
--------------------------------------------------------------------------------
   It NVec Conv  Avg. Norm  Max. Norm  Conv. states           Remark
--------------------------------------------------------------------------------
       100    0  1.522e-01  5.579e-01  0.2314 n n n n n n n n Guess.
    1  110    0  1.497e-02  7.724e-02  0.0603 n n n n n n n n 
    2  120    0  6.282e-03  4.682e-02  0.0591 n n n n n n n n 
    3  130    0  6.742e-03  5.779e-02  0.0591 n n n n n n n n 
    4  140    0  1.214e-02  1.203e-01  0.0591 n n n n n n n n 
    5  150    3  2.019e-03  1.997e-02  0.0591 y y y n n n n n 
    6  160    5  2.542e-04  2.516e-03  0.0591 y y y y n n y n 
    7  170    8  3.899e-05  3.869e-04  0.0591 y y y y y y y y 
    8  180    9  4.714e-06  4.673e-05  0.0591 y y y y y y y y 
    9  190   10  5.141e-07  5.074e-06  0.0591 y y y y y y y y Converged.
--------------------------------------------------------------------------------
  Davidson Summary: 
 ------------------------------------------------------------
  State  0: excitation energy =   0.0591 a.u.   (converged)
  State  1: excitation energy =   0.0755 a.u.   (converged)
  State  2: excitation energy =   0.0801 a.u.   (converged)
  State  3: excitation energy =   0.1075 a.u.   (converged)
  State  4: excitation energy =   0.1412 a.u.   (converged)
  State  5: excitation energy =   0.1602 a.u.   (converged)
  State  6: excitation energy =   0.1678 a.u.   (converged)
  State  7: excitation energy =   0.2061 a.u.   (converged)
  State  8: excitation energy =   0.2147 a.u.   (converged)
  State  9: excitation energy =   0.2179 a.u.   (converged)
 ------------------------------------------------------------


--------------------------------------------------------------------------------
                   State-averaged natural transition orbitals
--------------------------------------------------------------------------------
--------------------------------------------------------------------------------

--------------------------------------------------------------------------------
                             Excited State Summary
--------------------------------------------------------------------------------
--------------------------------------------------------------------------------

  Excited state 1 (singlet, B2)                                    [converged]
  ----------------------------------------------------------------------------
  Term symbol:  1 (1) B2                                    R^2 =  6.84074e-10

  Total energy:                                           -153.9119418091 a.u.
  Excitation energy:                                               1.607588 eV

  Osc. strength:                                                      0.009260
  Trans. dip. moment [a.u.]:           [   0.000000,   -0.484888,   -0.000000]
  <i|r^2|0> [a.u.]:                    [  -0.000000,   -0.000000,   -0.000000]

  Dip. moment [a.u.]:                  [   0.000000,   -0.000000,   -3.610575]
  Total dipole [Debye]:                                               9.177168
  <r^2> [a.u.]:                        [  77.472492,   39.492165,  264.567643]
  Total <r^2> [a.u.]:                                               381.532300

  V1^2 = 0.8687, V2^2 = 0.1313

  Important amplitudes:
      occ i      occ j       vir a       vir b          v   
    ---------------------------------------------------------
     2 (B2) A               8 (A1) A                 -0.6245
     2 (B2) A              12 (A1) A                 -0.1337
    ---------------------------------------------------------

  Density matrix analysis:
  ------------------------
  NOs
    Occupation of frontier NOs:
       0.9609   0.9986
    Number of electrons: 26.000000
    Number of unpaired electrons: n_u =  2.74819, n_u,nl =  2.11506
    NO participation ratio (PR_NO):  3.869601
  
  
  Mulliken Population Analysis
  Atom      Charge (e)              h+              e-           Del q
  --------------------------------------------------------------------
   1 C       -0.751351        0.031485       -0.549119       -0.517633
   2 C       -0.751351        0.031485       -0.549119       -0.517633
   3 H        0.168965       -0.000343       -0.038316       -0.038659
   4 H        0.168965       -0.000343       -0.038316       -0.038659
   5 H        0.075634        0.039642       -0.001028        0.038615
   6 H        0.075634        0.039642       -0.001028        0.038615
   7 O       -0.140207        1.406305       -0.471564        0.934741
   8 H        0.153711        0.141260       -0.040646        0.100614
  --------------------------------------------------------------------
  Sum:       -1.000000        1.689135       -1.689135       -0.000000
  
  Multipole moment analysis of the density matrix
    Molecular charge:                      -1.000000
    Number of electrons:                   26.000000
      Center of electronic charge [Ang]: [ -0.000000,   0.000000,   0.073486]
    Total nuclear charge:                  25.000000
      Center of nuclear charge [Ang]:    [  0.000000,   0.000000,  -0.000000]
    Dipole moment [D]:                     9.177165
      Cartesian components [D]:          [  0.000000,  -0.000000,  -9.177165]
    RMS size of the density [Ang]:         2.025791
      Cartesian components [Ang]:        [  0.913457,   0.652184,   1.686440]
  
  Exciton analysis of the difference density matrix
    <r_h> [Ang]:                  [  0.000000,   0.000000,  -1.472942]
    <r_e> [Ang]:                  [ -0.000000,   0.000000,   0.331675]
    |<r_e - r_h>| [Ang]:            1.804617
    Hole size [Ang]:                1.805664
      Cartesian components [Ang]: [  0.852663,   0.891088,   1.318844]
    Electron size [Ang]:            4.590935
      Cartesian components [Ang]: [  2.041830,   1.989002,   3.598817]

  Transition density matrix analysis:
  -----------------------------------
  
  CT numbers (Mulliken)
    omega =     0.8537
    <Phe> =    -0.0013
  
  Exciton analysis of the transition density matrix
    Trans. dipole moment [D]:             0.616231
      Cartesian components [D]:         [  0.000000,  -0.616231,  -0.000000]
    <r_h> [Ang]:                        [ -0.000000,   0.000000,  -1.744818]
    <r_e> [Ang]:                        [ -0.000000,   0.000000,   1.363658]
    |<r_e - r_h>| [Ang]:                  3.108476
    Hole size [Ang]:                      1.098103
      Cartesian components [Ang]:       [  0.478808,   0.826461,   0.541789]
    Electron size [Ang]:                  5.538596
      Cartesian components [Ang]:       [  2.541469,   2.506402,   4.234965]
    RMS electron-hole separation [Ang]:   6.443786
      Cartesian components [Ang]:       [  2.585944,   2.638151,   5.279719]
    Covariance(r_h, r_e) [Ang^2]:         0.011061
    Correlation coefficient:              0.001819
    Center-of-mass size [Ang]:            2.824181
      Cartesian components [Ang]:       [  1.293208,   1.320070,   2.135656]

  Decomposition into state-averaged NTOs
    H- 0 -> L+ 0: -0.5345 ( 57.1%)
    H- 0 -> L+ 6:  0.2908 ( 16.9%)
    H- 0 -> L+ 1: -0.1916 (  7.3%)
    H- 0 -> L+ 2:  0.1118 (  2.5%)
    H- 0 -> L+ 7:  0.0796 (  1.3%)
                   omega =  85.4%
  ----------------------------------------------------------------------------


  Excited state 2 (singlet, B2)                                    [converged]
  ----------------------------------------------------------------------------
  Term symbol:  2 (1) B2                                    R^2 =  1.12890e-09

  Total energy:                                           -153.8955217771 a.u.
  Excitation energy:                                               2.054400 eV

  Osc. strength:                                                      0.001933
  Trans. dip. moment [a.u.]:           [   0.000000,    0.195957,    0.000000]
  <i|r^2|0> [a.u.]:                    [  -0.000000,   -0.000000,   -0.000000]

  Dip. moment [a.u.]:                  [  -0.000000,    0.000000,   -2.881655]
  Total dipole [Debye]:                                               7.324439
  <r^2> [a.u.]:                        [ 107.944808,   72.305407,  215.606876]
  Total <r^2> [a.u.]:                                               395.857090

  V1^2 = 0.8654, V2^2 = 0.1346

  Important amplitudes:
      occ i      occ j       vir a       vir b          v   
    ---------------------------------------------------------
     4 (B1) A               1 (A2) A                 -0.6497
     4 (B1) A               2 (A2) A                  0.1000
    ---------------------------------------------------------

  Density matrix analysis:
  ------------------------
  NOs
    Occupation of frontier NOs:
       0.9605   0.9989
    Number of electrons: 26.000000
    Number of unpaired electrons: n_u =  2.75156, n_u,nl =  2.11617
    NO participation ratio (PR_NO):  3.878586
  
  
  Mulliken Population Analysis
  Atom      Charge (e)              h+              e-           Del q
  --------------------------------------------------------------------
   1 C       -0.723474        0.044525       -0.534281       -0.489756
   2 C       -0.723474        0.044525       -0.534281       -0.489756
   3 H        0.158403       -0.004583       -0.044637       -0.049221
   4 H        0.158403       -0.004583       -0.044637       -0.049221
   5 H        0.071077        0.035266       -0.001209        0.034057
   6 H        0.071077        0.035266       -0.001209        0.034057
   7 O       -0.177897        1.414666       -0.517615        0.897051
   8 H        0.165885        0.137457       -0.024669        0.112788
  --------------------------------------------------------------------
  Sum:       -1.000000        1.702539       -1.702539        0.000000
  
  Multipole moment analysis of the density matrix
    Molecular charge:                      -1.000000
    Number of electrons:                   26.000000
      Center of electronic charge [Ang]: [  0.000000,  -0.000000,   0.058650]
    Total nuclear charge:                  25.000000
      Center of nuclear charge [Ang]:    [  0.000000,   0.000000,  -0.000000]
    Dipole moment [D]:                     7.324437
      Cartesian components [D]:          [ -0.000000,   0.000000,  -7.324437]
    RMS size of the density [Ang]:         2.063994
      Cartesian components [Ang]:        [  1.078240,   0.882470,   1.522733]
  
  Exciton analysis of the difference density matrix
    <r_h> [Ang]:                  [  0.000000,   0.000000,  -1.470064]
    <r_e> [Ang]:                  [  0.000000,  -0.000000,   0.093785]
    |<r_e - r_h>| [Ang]:            1.563849
    Hole size [Ang]:                1.801633
      Cartesian components [Ang]: [  0.940755,   0.799770,   1.311956]
    Electron size [Ang]:            4.836003
      Cartesian components [Ang]: [  3.051548,   3.028836,   2.213849]

  Transition density matrix analysis:
  -----------------------------------
  
  CT numbers (Mulliken)
    omega =     0.8505
    <Phe> =     0.0001
  
  Exciton analysis of the transition density matrix
    Trans. dipole moment [D]:             0.249037
      Cartesian components [D]:         [  0.000000,   0.249037,   0.000000]
    <r_h> [Ang]:                        [  0.000000,   0.000000,  -1.726764]
    <r_e> [Ang]:                        [  0.000000,  -0.000000,   1.027295]
    |<r_e - r_h>| [Ang]:                  2.754060
    Hole size [Ang]:                      1.141675
      Cartesian components [Ang]:       [  0.827264,   0.472333,   0.629253]
    Electron size [Ang]:                  5.962498
      Cartesian components [Ang]:       [  3.917259,   3.892552,   2.248221]
    RMS electron-hole separation [Ang]:   6.665355
      Cartesian components [Ang]:       [  4.002198,   3.920979,   3.610442]
    Covariance(r_h, r_e) [Ang^2]:         0.006344
    Correlation coefficient:              0.000932
    Center-of-mass size [Ang]:            3.035930
      Cartesian components [Ang]:       [  2.002559,   1.960615,   1.167312]

  Decomposition into state-averaged NTOs
    H- 1 -> L+ 5:  0.6407 ( 82.1%)
    H- 1 -> L+ 8:  0.1204 (  2.9%)
                   omega =  85.1%
  ----------------------------------------------------------------------------


  Excited state 3 (singlet, B2)                                    [converged]
  ----------------------------------------------------------------------------
  Term symbol:  3 (1) B2                                    R^2 =  5.30719e-10

  Total energy:                                           -153.8909052734 a.u.
  Excitation energy:                                               2.180021 eV

  Osc. strength:                                                      0.002846
  Trans. dip. moment [a.u.]:           [   0.000000,    0.230846,   -0.000000]
  <i|r^2|0> [a.u.]:                    [  -0.000000,   -0.000000,    0.000000]

  Dip. moment [a.u.]:                  [  -0.000000,   -0.000000,   -3.171942]
  Total dipole [Debye]:                                               8.062274
  <r^2> [a.u.]:                        [ 138.505833,   37.868298,  216.571964]
  Total <r^2> [a.u.]:                                               392.946095

  V1^2 = 0.8654, V2^2 = 0.1346

  Important amplitudes:
      occ i      occ j       vir a       vir b          v   
    ---------------------------------------------------------
     2 (B2) A               9 (A1) A                  0.6397
     2 (B2) A               8 (A1) A                 -0.1178
    ---------------------------------------------------------

  Density matrix analysis:
  ------------------------
  NOs
    Occupation of frontier NOs:
       0.9601   0.9989
    Number of electrons: 26.000000
    Number of unpaired electrons: n_u =  2.75203, n_u,nl =  2.11690
    NO participation ratio (PR_NO):  3.881107
  
  
  Mulliken Population Analysis
  Atom      Charge (e)              h+              e-           Del q
  --------------------------------------------------------------------
   1 C       -0.748776        0.035988       -0.551046       -0.515058
   2 C       -0.748776        0.035988       -0.551046       -0.515058
   3 H        0.172339        0.001425       -0.036710       -0.035285
   4 H        0.172339        0.001425       -0.036710       -0.035285
   5 H        0.072933        0.037486       -0.001572        0.035914
   6 H        0.072933        0.037486       -0.001572        0.035914
   7 O       -0.142794        1.415932       -0.483779        0.932153
   8 H        0.149802        0.137510       -0.040805        0.096705
  --------------------------------------------------------------------
  Sum:       -1.000000        1.703239       -1.703239        0.000000
  
  Multipole moment analysis of the density matrix
    Molecular charge:                      -1.000000
    Number of electrons:                   26.000000
      Center of electronic charge [Ang]: [  0.000000,   0.000000,   0.064558]
    Total nuclear charge:                  25.000000
      Center of nuclear charge [Ang]:    [  0.000000,   0.000000,  -0.000000]
    Dipole moment [D]:                     8.062272
      Cartesian components [D]:          [ -0.000000,  -0.000000,  -8.062272]
    RMS size of the density [Ang]:         2.056208
      Cartesian components [Ang]:        [  1.221373,   0.638634,   1.525904]
  
  Exciton analysis of the difference density matrix
    <r_h> [Ang]:                  [  0.000000,   0.000000,  -1.479916]
    <r_e> [Ang]:                  [  0.000000,   0.000000,   0.173480]
    |<r_e - r_h>| [Ang]:            1.653396
    Hole size [Ang]:                1.796785
      Cartesian components [Ang]: [  0.864586,   0.890369,   1.299295]
    Electron size [Ang]:            4.784481
      Cartesian components [Ang]: [  3.767692,   1.913553,   2.243675]

  Transition density matrix analysis:
  -----------------------------------
  
  CT numbers (Mulliken)
    omega =     0.8508
    <Phe> =    -0.0001
  
  Exciton analysis of the transition density matrix
    Trans. dipole moment [D]:             0.293377
      Cartesian components [D]:         [  0.000000,   0.293377,  -0.000000]
    <r_h> [Ang]:                        [ -0.000000,   0.000000,  -1.744085]
    <r_e> [Ang]:                        [  0.000000,   0.000000,   1.159144]
    |<r_e - r_h>| [Ang]:                  2.903229
    Hole size [Ang]:                      1.100072
      Cartesian components [Ang]:       [  0.479218,   0.827249,   0.544213]
    Electron size [Ang]:                  5.868987
      Cartesian components [Ang]:       [  4.855600,   2.418707,   2.240093]
    RMS electron-hole separation [Ang]:   6.639067
      Cartesian components [Ang]:       [  4.878997,   2.555625,   3.706937]
    Covariance(r_h, r_e) [Ang^2]:         0.003349
    Correlation coefficient:              0.000519
    Center-of-mass size [Ang]:            2.985878
      Cartesian components [Ang]:       [  2.439692,   1.278451,   1.152793]

  Decomposition into state-averaged NTOs
    H- 0 -> L+ 7:  0.4899 ( 48.0%)
    H- 0 -> L+ 3: -0.3392 ( 23.0%)
    H- 0 -> L+ 6: -0.2299 ( 10.6%)
    H- 0 -> L+ 2: -0.0838 (  1.4%)
    H- 0 -> L+ 0: -0.0775 (  1.2%)
                   omega =  85.1%
  ----------------------------------------------------------------------------


  Excited state 4 (singlet, B2)                                    [converged]
  ----------------------------------------------------------------------------
  Term symbol:  4 (1) B2                                    R^2 =  3.02202e-09

  Total energy:                                           -153.8635397669 a.u.
  Excitation energy:                                               2.924675 eV

  Osc. strength:                                                      0.011394
  Trans. dip. moment [a.u.]:           [   0.000000,   -0.398760,    0.000000]
  <i|r^2|0> [a.u.]:                    [   0.000000,   -0.000000,   -0.000000]

  Dip. moment [a.u.]:                  [  -0.000000,    0.000000,   -2.390353]
  Total dipole [Debye]:                                               6.075671
  <r^2> [a.u.]:                        [  76.703552,   26.952005,  220.327236]
  Total <r^2> [a.u.]:                                               323.982792

  V1^2 = 0.8742, V2^2 = 0.1258

  Important amplitudes:
      occ i      occ j       vir a       vir b          v   
    ---------------------------------------------------------
     2 (B2) A              10 (A1) A                  0.6062
     2 (B2) A              12 (A1) A                 -0.1902
    ---------------------------------------------------------

  Density matrix analysis:
  ------------------------
  NOs
    Occupation of frontier NOs:
       0.9632   0.9933
    Number of electrons: 26.000000
    Number of unpaired electrons: n_u =  2.74660, n_u,nl =  2.11379
    NO participation ratio (PR_NO):  3.878098
  
  
  Mulliken Population Analysis
  Atom      Charge (e)              h+              e-           Del q
  --------------------------------------------------------------------
   1 C       -0.682064        0.035338       -0.483684       -0.448346
   2 C       -0.682064        0.035338       -0.483684       -0.448346
   3 H        0.175439        0.001773       -0.033957       -0.032185
   4 H        0.175439        0.001773       -0.033957       -0.032185
   5 H        0.060030        0.036089       -0.013078        0.023011
   6 H        0.060030        0.036089       -0.013078        0.023011
   7 O       -0.490139        1.353903       -0.769094        0.584809
   8 H        0.383327        0.149659        0.180571        0.330230
  --------------------------------------------------------------------
  Sum:       -1.000000        1.649961       -1.649961       -0.000000
  
  Multipole moment analysis of the density matrix
    Molecular charge:                      -1.000000
    Number of electrons:                   26.000000
      Center of electronic charge [Ang]: [  0.000000,  -0.000000,   0.048651]
    Total nuclear charge:                  25.000000
      Center of nuclear charge [Ang]:    [  0.000000,   0.000000,  -0.000000]
    Dipole moment [D]:                     6.075670
      Cartesian components [D]:          [ -0.000000,   0.000000,  -6.075670]
    RMS size of the density [Ang]:         1.867360
      Cartesian components [Ang]:        [  0.908913,   0.538778,   1.539685]
  
  Exciton analysis of the difference density matrix
    <r_h> [Ang]:                  [  0.000000,   0.000000,  -1.474793]
    <r_e> [Ang]:                  [  0.000000,  -0.000000,  -0.018681]
    |<r_e - r_h>| [Ang]:            1.456112
    Hole size [Ang]:                1.751832
      Cartesian components [Ang]: [  0.834341,   0.864681,   1.274800]
    Electron size [Ang]:            3.406932
      Cartesian components [Ang]: [  2.022221,   1.362550,   2.379342]

  Transition density matrix analysis:
  -----------------------------------
  
  CT numbers (Mulliken)
    omega =     0.8577
    <Phe> =    -0.0032
  
  Exciton analysis of the transition density matrix
    Trans. dipole moment [D]:             0.506773
      Cartesian components [D]:         [  0.000000,  -0.506773,   0.000000]
    <r_h> [Ang]:                        [ -0.000000,   0.000000,  -1.735274]
    <r_e> [Ang]:                        [  0.000000,  -0.000000,   0.728116]
    |<r_e - r_h>| [Ang]:                  2.463390
    Hole size [Ang]:                      1.108493
      Cartesian components [Ang]:       [  0.478364,   0.823701,   0.566956]
    Electron size [Ang]:                  3.972932
      Cartesian components [Ang]:       [  2.492329,   1.656194,   2.613332]
    RMS electron-hole separation [Ang]:   4.797753
      Cartesian components [Ang]:       [  2.537384,   1.847048,   3.628847]
    Covariance(r_h, r_e) [Ang^2]:         0.031401
    Correlation coefficient:              0.007130
    Center-of-mass size [Ang]:            2.066140
      Cartesian components [Ang]:       [  1.269129,   0.926194,   1.341795]

  Decomposition into state-averaged NTOs
    H- 0 -> L+ 0:  0.3375 ( 22.8%)
    H- 0 -> L+ 1: -0.3335 ( 22.2%)
    H- 0 -> L+ 6:  0.2694 ( 14.5%)
    H- 0 -> L+ 2:  0.2505 ( 12.5%)
    H- 0 -> L+ 3: -0.2398 ( 11.5%)
    H- 0 -> L+ 7:  0.1014 (  2.1%)
                   omega =  85.8%
  ----------------------------------------------------------------------------


  Excited state 5 (singlet, B2)                                    [converged]
  ----------------------------------------------------------------------------
  Term symbol:  5 (1) B2                                    R^2 =  2.66459e-08

  Total energy:                                           -153.8298184340 a.u.
  Excitation energy:                                               3.842279 eV

  Osc. strength:                                                      0.000788
  Trans. dip. moment [a.u.]:           [   0.000000,   -0.091474,   -0.000000]
  <i|r^2|0> [a.u.]:                    [  -0.000000,    0.000000,   -0.000000]

  Dip. moment [a.u.]:                  [   0.000000,   -0.000000,   -2.809716]
  Total dipole [Debye]:                                               7.141588
  <r^2> [a.u.]:                        [  71.518984,   35.446863,  204.631419]
  Total <r^2> [a.u.]:                                               311.597266

  V1^2 = 0.8695, V2^2 = 0.1305

  Important amplitudes:
      occ i      occ j       vir a       vir b          v   
    ---------------------------------------------------------
     4 (B1) A               2 (A2) A                 -0.5920
     4 (B1) A               3 (A2) A                  0.2706
    ---------------------------------------------------------

  Density matrix analysis:
  ------------------------
  NOs
    Occupation of frontier NOs:
       0.9650   0.9947
    Number of electrons: 26.000000
    Number of unpaired electrons: n_u =  2.72902, n_u,nl =  2.10389
    NO participation ratio (PR_NO):  3.821793
  
  
  Mulliken Population Analysis
  Atom      Charge (e)              h+              e-           Del q
  --------------------------------------------------------------------
   1 C       -0.665719        0.083149       -0.515151       -0.432001
   2 C       -0.665719        0.083149       -0.515151       -0.432001
   3 H        0.138341        0.001410       -0.070693       -0.069283
   4 H        0.138341        0.001410       -0.070693       -0.069283
   5 H        0.037833        0.011212       -0.010398        0.000813
   6 H        0.037833        0.011212       -0.010398        0.000813
   7 O       -0.171814        1.363620       -0.460485        0.903134
   8 H        0.150905        0.118938       -0.021129        0.097808
  --------------------------------------------------------------------
  Sum:       -1.000000        1.674100       -1.674100        0.000000
  
  Multipole moment analysis of the density matrix
    Molecular charge:                      -1.000000
    Number of electrons:                   26.000000
      Center of electronic charge [Ang]: [ -0.000000,   0.000000,   0.057186]
    Total nuclear charge:                  25.000000
      Center of nuclear charge [Ang]:    [  0.000000,   0.000000,  -0.000000]
    Dipole moment [D]:                     7.141586
      Cartesian components [D]:          [  0.000000,  -0.000000,  -7.141586]
    RMS size of the density [Ang]:         1.831047
      Cartesian components [Ang]:        [  0.877658,   0.617879,   1.483468]
  
  Exciton analysis of the difference density matrix
    <r_h> [Ang]:                  [  0.000000,   0.000000,  -1.420894]
    <r_e> [Ang]:                  [ -0.000000,   0.000000,   0.146782]
    |<r_e - r_h>| [Ang]:            1.567676
    Hole size [Ang]:                1.707172
      Cartesian components [Ang]: [  0.899324,   0.741546,   1.247302]
    Electron size [Ang]:            3.018599
      Cartesian components [Ang]: [  1.812700,   1.750348,   1.662030]

  Transition density matrix analysis:
  -----------------------------------
  
  CT numbers (Mulliken)
    omega =     0.8451
    <Phe> =    -0.0006
  
  Exciton analysis of the transition density matrix
    Trans. dipole moment [D]:             0.116251
      Cartesian components [D]:         [  0.000000,  -0.116251,  -0.000000]
    <r_h> [Ang]:                        [  0.000000,   0.000000,  -1.697705]
    <r_e> [Ang]:                        [ -0.000000,   0.000000,   1.025157]
    |<r_e - r_h>| [Ang]:                  2.722862
    Hole size [Ang]:                      1.174988
      Cartesian components [Ang]:       [  0.825292,   0.469216,   0.692335]
    Electron size [Ang]:                  3.356241
      Cartesian components [Ang]:       [  2.227560,   2.169879,   1.262518]
    RMS electron-hole separation [Ang]:   4.476703
      Cartesian components [Ang]:       [  2.372248,   2.219713,   3.079965]
    Covariance(r_h, r_e) [Ang^2]:         0.009029
    Correlation coefficient:              0.002290
    Center-of-mass size [Ang]:            1.779256
      Cartesian components [Ang]:       [  1.189402,   1.110175,   0.720130]

  Decomposition into state-averaged NTOs
    H- 1 -> L+ 8:  0.6382 ( 81.4%)
    H- 1 -> L+ 5: -0.1208 (  2.9%)
                   omega =  84.5%
  ----------------------------------------------------------------------------


  Excited state 6 (singlet, B2)                                    [converged]
  ----------------------------------------------------------------------------
  Term symbol:  6 (1) B2                                    R^2 =  1.46449e-08

  Total energy:                                           -153.8108282168 a.u.
  Excitation energy:                                               4.359029 eV

  Osc. strength:                                                      0.008189
  Trans. dip. moment [a.u.]:           [  -0.000000,    0.276912,   -0.000000]
  <i|r^2|0> [a.u.]:                    [  -0.000000,   -0.000000,   -0.000000]

  Dip. moment [a.u.]:                  [   0.000000,    0.000000,   -1.961558]
  Total dipole [Debye]:                                               4.985785
  <r^2> [a.u.]:                        [  75.758272,   29.742342,  225.682226]
  Total <r^2> [a.u.]:                                               331.182840

  V1^2 = 0.8751, V2^2 = 0.1249

  Important amplitudes:
      occ i      occ j       vir a       vir b          v   
    ---------------------------------------------------------
     2 (B2) A              11 (A1) A                  0.6164
     2 (B2) A              13 (A1) A                 -0.1466
    ---------------------------------------------------------

  Density matrix analysis:
  ------------------------
  NOs
    Occupation of frontier NOs:
       0.9637   0.9942
    Number of electrons: 26.000000
    Number of unpaired electrons: n_u =  2.74596, n_u,nl =  2.11347
    NO participation ratio (PR_NO):  3.871251
  
  
  Mulliken Population Analysis
  Atom      Charge (e)              h+              e-           Del q
  --------------------------------------------------------------------
   1 C       -0.624481        0.032178       -0.422941       -0.390763
   2 C       -0.624481        0.032178       -0.422941       -0.390763
   3 H        0.191385        0.004508       -0.020746       -0.016239
   4 H        0.191385        0.004508       -0.020746       -0.016239
   5 H        0.013986        0.031539       -0.054572       -0.023033
   6 H        0.013986        0.031539       -0.054572       -0.023033
   7 O       -0.392077        1.364767       -0.681896        0.682871
   8 H        0.230296        0.140304        0.036896        0.177199
  --------------------------------------------------------------------
  Sum:       -1.000000        1.641520       -1.641520       -0.000000
  
  Multipole moment analysis of the density matrix
    Molecular charge:                      -1.000000
    Number of electrons:                   26.000000
      Center of electronic charge [Ang]: [ -0.000000,  -0.000000,   0.039924]
    Total nuclear charge:                  25.000000
      Center of nuclear charge [Ang]:    [  0.000000,   0.000000,  -0.000000]
    Dipole moment [D]:                     4.985784
      Cartesian components [D]:          [  0.000000,   0.000000,  -4.985784]
    RMS size of the density [Ang]:         1.888214
      Cartesian components [Ang]:        [  0.903295,   0.565981,   1.558550]
  
  Exciton analysis of the difference density matrix
    <r_h> [Ang]:                  [  0.000000,   0.000000,  -1.499735]
    <r_e> [Ang]:                  [ -0.000000,  -0.000000,  -0.174366]
    |<r_e - r_h>| [Ang]:            1.325369
    Hole size [Ang]:                1.738672
      Cartesian components [Ang]: [  0.834017,   0.872526,   1.251437]
    Electron size [Ang]:            3.586973
      Cartesian components [Ang]: [  1.986210,   1.533584,   2.563097]

  Transition density matrix analysis:
  -----------------------------------
  
  CT numbers (Mulliken)
    omega =     0.8589
    <Phe> =    -0.0005
  
  Exciton analysis of the transition density matrix
    Trans. dipole moment [D]:             0.351920
      Cartesian components [D]:         [ -0.000000,   0.351920,  -0.000000]
    <r_h> [Ang]:                        [ -0.000000,   0.000000,  -1.736971]
    <r_e> [Ang]:                        [ -0.000000,  -0.000000,   0.505525]
    |<r_e - r_h>| [Ang]:                  2.242495
    Hole size [Ang]:                      1.105889
      Cartesian components [Ang]:       [  0.478476,   0.823924,   0.561426]
    Electron size [Ang]:                  4.244200
      Cartesian components [Ang]:       [  2.438224,   1.878635,   2.922161]
    RMS electron-hole separation [Ang]:   4.921192
      Cartesian components [Ang]:       [  2.484313,   2.049572,   3.720964]
    Covariance(r_h, r_e) [Ang^2]:         0.023439
    Correlation coefficient:              0.004994
    Center-of-mass size [Ang]:            2.195626
      Cartesian components [Ang]:       [  1.242572,   1.026584,   1.490945]

  Decomposition into state-averaged NTOs
    H- 0 -> L+ 2: -0.4448 ( 39.6%)
    H- 0 -> L+ 3:  0.2749 ( 15.1%)
    H- 0 -> L+ 7:  0.2596 ( 13.5%)
    H- 0 -> L+ 6:  0.2297 ( 10.6%)
    H- 0 -> L+ 1: -0.1507 (  4.5%)
    H- 0 -> L+ 0:  0.1120 (  2.5%)
                   omega =  85.9%
  ----------------------------------------------------------------------------


  Excited state 7 (singlet, B2)                                    [converged]
  ----------------------------------------------------------------------------
  Term symbol:  7 (1) B2                                    R^2 =  9.97553e-09

  Total energy:                                           -153.8032528787 a.u.
  Excitation energy:                                               4.565164 eV

  Osc. strength:                                                      0.028173
  Trans. dip. moment [a.u.]:           [  -0.000000,    0.501887,   -0.000000]
  <i|r^2|0> [a.u.]:                    [  -0.000000,   -0.000000,   -0.000000]

  Dip. moment [a.u.]:                  [  -0.000000,   -0.000000,   -0.096373]
  Total dipole [Debye]:                                               0.244957
  <r^2> [a.u.]:                        [  70.357847,   29.452966,  240.604387]
  Total <r^2> [a.u.]:                                               340.415200

  V1^2 = 0.8891, V2^2 = 0.1109

  Important amplitudes:
      occ i      occ j       vir a       vir b          v   
    ---------------------------------------------------------
     2 (B2) A              12 (A1) A                  0.5921
     2 (B2) A              10 (A1) A                  0.2130
    ---------------------------------------------------------

  Density matrix analysis:
  ------------------------
  NOs
    Occupation of frontier NOs:
       0.9654   0.9957
    Number of electrons: 26.000000
    Number of unpaired electrons: n_u =  2.72612, n_u,nl =  2.10544
    NO participation ratio (PR_NO):  3.807802
  
  
  Mulliken Population Analysis
  Atom      Charge (e)              h+              e-           Del q
  --------------------------------------------------------------------
   1 C       -0.517482        0.031483       -0.315247       -0.283764
   2 C       -0.517482        0.031483       -0.315247       -0.283764
   3 H        0.162905        0.002654       -0.047373       -0.044719
   4 H        0.162905        0.002654       -0.047373       -0.044719
   5 H        0.142863        0.028520        0.077322        0.105843
   6 H        0.142863        0.028520        0.077322        0.105843
   7 O       -1.408956        1.263469       -1.597477       -0.334008
   8 H        0.832386        0.187256        0.592033        0.779289
  --------------------------------------------------------------------
  Sum:       -1.000000        1.576040       -1.576040       -0.000000
  
  Multipole moment analysis of the density matrix
    Molecular charge:                      -1.000000
    Number of electrons:                   26.000000
      Center of electronic charge [Ang]: [  0.000000,   0.000000,   0.001961]
    Total nuclear charge:                  25.000000
      Center of nuclear charge [Ang]:    [  0.000000,   0.000000,  -0.000000]
    Dipole moment [D]:                     0.244957
      Cartesian components [D]:          [ -0.000000,  -0.000000,  -0.244957]
    RMS size of the density [Ang]:         1.914779
      Cartesian components [Ang]:        [  0.870504,   0.563221,   1.609778]
  
  Exciton analysis of the difference density matrix
    <r_h> [Ang]:                  [  0.000000,   0.000000,  -1.521660]
    <r_e> [Ang]:                  [  0.000000,   0.000000,  -0.767487]
    |<r_e - r_h>| [Ang]:            0.754173
    Hole size [Ang]:                1.747551
      Cartesian components [Ang]: [  0.833124,   0.889432,   1.252498]
    Electron size [Ang]:            3.789738
      Cartesian components [Ang]: [  1.766071,   1.548010,   2.974352]

  Transition density matrix analysis:
  -----------------------------------
  
  CT numbers (Mulliken)
    omega =     0.8711
    <Phe> =    -0.0089
  
  Exciton analysis of the transition density matrix
    Trans. dipole moment [D]:             0.637835
      Cartesian components [D]:         [ -0.000000,   0.637835,  -0.000000]
    <r_h> [Ang]:                        [ -0.000000,   0.000000,  -1.744394]
    <r_e> [Ang]:                        [  0.000000,   0.000000,  -0.590615]
    |<r_e - r_h>| [Ang]:                  1.153779
    Hole size [Ang]:                      1.091606
      Cartesian components [Ang]:       [  0.475861,   0.821324,   0.539061]
    Electron size [Ang]:                  4.512124
      Cartesian components [Ang]:       [  2.085122,   1.840416,   3.553083]
    RMS electron-hole separation [Ang]:   4.776607
      Cartesian components [Ang]:       [  2.138379,   2.013550,   3.766819]
    Covariance(r_h, r_e) [Ang^2]:         0.033050
    Correlation coefficient:              0.006710
    Center-of-mass size [Ang]:            2.324703
      Cartesian components [Ang]:       [  1.069543,   1.008591,   1.800851]

  Decomposition into state-averaged NTOs
    H- 0 -> L+ 1:  0.5152 ( 53.1%)
    H- 0 -> L+ 6:  0.3741 ( 28.0%)
    H- 0 -> L+ 7:  0.1205 (  2.9%)
    H- 0 -> L+ 2:  0.1002 (  2.0%)
                   omega =  87.1%
  ----------------------------------------------------------------------------


  Excited state 8 (singlet, B2)                                    [converged]
  ----------------------------------------------------------------------------
  Term symbol:  8 (1) B2                                    R^2 =  3.96224e-08

  Total energy:                                           -153.7649031843 a.u.
  Excitation energy:                                               5.608712 eV

  Osc. strength:                                                      0.021189
  Trans. dip. moment [a.u.]:           [   0.000000,   -0.392685,   -0.000000]
  <i|r^2|0> [a.u.]:                    [   0.000000,    0.000000,    0.000000]

  Dip. moment [a.u.]:                  [  -0.000000,   -0.000000,   -1.402726]
  Total dipole [Debye]:                                               3.565375
  <r^2> [a.u.]:                        [  70.960422,   32.695707,  256.362575]
  Total <r^2> [a.u.]:                                               360.018705

  V1^2 = 0.9431, V2^2 = 0.0569

  Important amplitudes:
      occ i      occ j       vir a       vir b          v   
    ---------------------------------------------------------
     1 (B2) A               8 (A1) A                  0.5891
     1 (B2) A              10 (A1) A                  0.2943
    ---------------------------------------------------------

  Density matrix analysis:
  ------------------------
  NOs
    Occupation of frontier NOs:
       0.9885   0.9915
    Number of electrons: 26.000000
    Number of unpaired electrons: n_u =  2.62629, n_u,nl =  2.06956
    NO participation ratio (PR_NO):  3.486182
  
  
  Mulliken Population Analysis
  Atom      Charge (e)              h+              e-           Del q
  --------------------------------------------------------------------
   1 C       -0.420608        0.533767       -0.720657       -0.186890
   2 C       -0.420608        0.533767       -0.720657       -0.186890
   3 H        0.262253        0.062504       -0.007874        0.054630
   4 H        0.262253        0.062504       -0.007874        0.054630
   5 H        0.141013        0.125644       -0.021651        0.103994
   6 H        0.141013        0.125644       -0.021651        0.103994
   7 O       -1.022870        0.058546       -0.006468        0.052078
   8 H        0.057554        0.025816       -0.021359        0.004457
  --------------------------------------------------------------------
  Sum:       -1.000000        1.528192       -1.528192       -0.000000
  
  Multipole moment analysis of the density matrix
    Molecular charge:                      -1.000000
    Number of electrons:                   26.000000
      Center of electronic charge [Ang]: [  0.000000,   0.000000,   0.028550]
    Total nuclear charge:                  25.000000
      Center of nuclear charge [Ang]:    [  0.000000,   0.000000,  -0.000000]
    Dipole moment [D]:                     3.565374
      Cartesian components [D]:          [ -0.000000,  -0.000000,  -3.565374]
    RMS size of the density [Ang]:         1.968935
      Cartesian components [Ang]:        [  0.874224,   0.593417,   1.661413]
  
  Exciton analysis of the difference density matrix
    <r_h> [Ang]:                  [  0.000000,   0.000000,   0.894220]
    <r_e> [Ang]:                  [  0.000000,   0.000000,   2.124365]
    |<r_e - r_h>| [Ang]:            1.230145
    Hole size [Ang]:                1.849539
      Cartesian components [Ang]: [  1.066220,   0.915679,   1.202289]
    Electron size [Ang]:            3.630626
      Cartesian components [Ang]: [  1.935995,   1.757322,   2.518966]

  Transition density matrix analysis:
  -----------------------------------
  
  CT numbers (Mulliken)
    omega =     0.9125
    <Phe> =    -0.0032
  
  Exciton analysis of the transition density matrix
    Trans. dipole moment [D]:             0.499053
      Cartesian components [D]:         [  0.000000,  -0.499053,  -0.000000]
    <r_h> [Ang]:                        [  0.000000,   0.000000,   1.004083]
    <r_e> [Ang]:                        [  0.000000,   0.000000,   2.900458]
    |<r_e - r_h>| [Ang]:                  1.896376
    Hole size [Ang]:                      1.322868
      Cartesian components [Ang]:       [  0.765791,   0.892810,   0.605338]
    Electron size [Ang]:                  4.091052
      Cartesian components [Ang]:       [  2.275079,   2.115011,   2.662227]
    RMS electron-hole separation [Ang]:   4.689920
      Cartesian components [Ang]:       [  2.397412,   2.292649,   3.315347]
    Covariance(r_h, r_e) [Ang^2]:         0.043789
    Correlation coefficient:              0.008091
    Center-of-mass size [Ang]:            2.154894
      Cartesian components [Ang]:       [  1.201796,   1.149405,   1.370446]

  Decomposition into state-averaged NTOs
    H- 2 -> L+ 0: -0.6724 ( 90.4%)
                   omega =  91.2%
  ----------------------------------------------------------------------------


  Excited state 9 (singlet, B2)                                    [converged]
  ----------------------------------------------------------------------------
  Term symbol:  9 (1) B2                                    R^2 =  5.07378e-06

  Total energy:                                           -153.7563295007 a.u.
  Excitation energy:                                               5.842014 eV

  Osc. strength:                                                      0.000069
  Trans. dip. moment [a.u.]:           [  -0.000000,    0.021899,   -0.000000]
  <i|r^2|0> [a.u.]:                    [   0.000000,    0.000000,    0.000000]

  Dip. moment [a.u.]:                  [   0.000000,    0.000000,   -2.849844]
  Total dipole [Debye]:                                               7.243582
  <r^2> [a.u.]:                        [  76.704202,   83.133529,  218.103352]
  Total <r^2> [a.u.]:                                               377.941083

  V1^2 = 0.8710, V2^2 = 0.1290

  Important amplitudes:
      occ i      occ j       vir a       vir b          v   
    ---------------------------------------------------------
     7 (A1) A               3 (B2) A                  0.6502
     7 (A1) A               4 (B2) A                  0.0722
    ---------------------------------------------------------

  Density matrix analysis:
  ------------------------
  NOs
    Occupation of frontier NOs:
       0.9879   0.9920
    Number of electrons: 26.000000
    Number of unpaired electrons: n_u =  2.81544, n_u,nl =  2.13590
    NO participation ratio (PR_NO):  3.970950
  
  
  Mulliken Population Analysis
  Atom      Charge (e)              h+              e-           Del q
  --------------------------------------------------------------------
   1 C       -0.719364        0.061600       -0.547246       -0.485647
   2 C       -0.719364        0.061600       -0.547246       -0.485647
   3 H        0.165625       -0.000164       -0.041834       -0.041999
   4 H        0.165625       -0.000164       -0.041834       -0.041999
   5 H        0.071616        0.036501       -0.001904        0.034596
   6 H        0.071616        0.036501       -0.001904        0.034596
   7 O       -0.366696        1.212764       -0.504512        0.708252
   8 H        0.330942        0.294520       -0.016674        0.277846
  --------------------------------------------------------------------
  Sum:       -1.000000        1.703156       -1.703156        0.000000
  
  Multipole moment analysis of the density matrix
    Molecular charge:                      -1.000000
    Number of electrons:                   26.000000
      Center of electronic charge [Ang]: [ -0.000000,  -0.000000,   0.058003]
    Total nuclear charge:                  25.000000
      Center of nuclear charge [Ang]:    [  0.000000,   0.000000,  -0.000000]
    Dipole moment [D]:                     7.243580
      Cartesian components [D]:          [  0.000000,   0.000000,  -7.243580]
    RMS size of the density [Ang]:         2.016726
      Cartesian components [Ang]:        [  0.908917,   0.946243,   1.531561]
  
  Exciton analysis of the difference density matrix
    <r_h> [Ang]:                  [  0.000000,   0.000000,  -1.390446]
    <r_e> [Ang]:                  [ -0.000000,   0.000000,   0.162953]
    |<r_e - r_h>| [Ang]:            1.553399
    Hole size [Ang]:                1.844411
      Cartesian components [Ang]: [  0.858320,   0.783761,   1.432082]
    Electron size [Ang]:            4.510563
      Cartesian components [Ang]: [  2.006014,   3.305411,   2.322788]

  Transition density matrix analysis:
  -----------------------------------
  
  CT numbers (Mulliken)
    omega =     0.8540
    <Phe> =     0.0002
  
  Exciton analysis of the transition density matrix
    Trans. dipole moment [D]:             0.027831
      Cartesian components [D]:         [ -0.000000,   0.027831,  -0.000000]
    <r_h> [Ang]:                        [ -0.000000,   0.000000,  -1.707049]
    <r_e> [Ang]:                        [ -0.000000,  -0.000000,   1.075899]
    |<r_e - r_h>| [Ang]:                  2.782948
    Hole size [Ang]:                      1.152364
      Cartesian components [Ang]:       [  0.455909,   0.411258,   0.975170]
    Electron size [Ang]:                  5.507080
      Cartesian components [Ang]:       [  2.503189,   4.257803,   2.435794]
    RMS electron-hole separation [Ang]:   6.275563
      Cartesian components [Ang]:       [  2.543200,   4.277570,   3.823247]
    Covariance(r_h, r_e) [Ang^2]:         0.008993
    Correlation coefficient:              0.001417
    Center-of-mass size [Ang]:            2.813977
      Cartesian components [Ang]:       [  1.272768,   2.138833,   1.312981]

  Decomposition into state-averaged NTOs
    H- 3 -> L+ 4: -0.6505 ( 84.6%)
                   omega =  85.4%
  ----------------------------------------------------------------------------


  Excited state 10 (singlet, B2)                                    [converged]
  ----------------------------------------------------------------------------
  Term symbol:  10 (1) B2                                   R^2 =  8.24078e-07

  Total energy:                                           -153.7531334641 a.u.
  Excitation energy:                                               5.928983 eV

  Osc. strength:                                                      0.011164
  Trans. dip. moment [a.u.]:           [   0.000000,    0.277234,    0.000000]
  <i|r^2|0> [a.u.]:                    [   0.000000,    0.000000,   -0.000000]

  Dip. moment [a.u.]:                  [   0.000000,   -0.000000,   -2.875232]
  Total dipole [Debye]:                                               7.308112
  <r^2> [a.u.]:                        [  81.794105,   33.336500,  209.221538]
  Total <r^2> [a.u.]:                                               324.352142

  V1^2 = 0.8756, V2^2 = 0.1244

  Important amplitudes:
      occ i      occ j       vir a       vir b          v   
    ---------------------------------------------------------
     2 (B2) A              13 (A1) A                 -0.6255
     2 (B2) A              11 (A1) A                 -0.1368
    ---------------------------------------------------------

  Density matrix analysis:
  ------------------------
  NOs
    Occupation of frontier NOs:
       0.9771   0.9797
    Number of electrons: 26.000000
    Number of unpaired electrons: n_u =  2.77927, n_u,nl =  2.12256
    NO participation ratio (PR_NO):  3.966419
  
  
  Mulliken Population Analysis
  Atom      Charge (e)              h+              e-           Del q
  --------------------------------------------------------------------
   1 C       -0.849602        0.051426       -0.667310       -0.615884
   2 C       -0.849602        0.051426       -0.667310       -0.615884
   3 H        0.221494        0.000656        0.013214        0.013870
   4 H        0.221494        0.000656        0.013214        0.013870
   5 H        0.123506        0.017269        0.069218        0.086487
   6 H        0.123506        0.017269        0.069218        0.086487
   7 O       -0.149708        1.362548       -0.437308        0.925240
   8 H        0.158911        0.124857       -0.019043        0.105814
  --------------------------------------------------------------------
  Sum:       -1.000000        1.626108       -1.626108       -0.000000
  
  Multipole moment analysis of the density matrix
    Molecular charge:                      -1.000000
    Number of electrons:                   26.000000
      Center of electronic charge [Ang]: [ -0.000000,   0.000000,   0.058520]
    Total nuclear charge:                  25.000000
      Center of nuclear charge [Ang]:    [  0.000000,   0.000000,  -0.000000]
    Dipole moment [D]:                     7.308110
      Cartesian components [D]:          [  0.000000,  -0.000000,  -7.308110]
    RMS size of the density [Ang]:         1.868142
      Cartesian components [Ang]:        [  0.938589,   0.599204,   1.499987]
  
  Exciton analysis of the difference density matrix
    <r_h> [Ang]:                  [  0.000000,   0.000000,  -1.488281]
    <r_e> [Ang]:                  [ -0.000000,   0.000000,   0.146983]
    |<r_e - r_h>| [Ang]:            1.635264
    Hole size [Ang]:                1.716949
      Cartesian components [Ang]: [  0.818110,   0.864799,   1.237228]
    Electron size [Ang]:            3.414945
      Cartesian components [Ang]: [  2.233599,   1.724087,   1.923645]

  Transition density matrix analysis:
  -----------------------------------
  
  CT numbers (Mulliken)
    omega =     0.8592
    <Phe> =    -0.0018
  
  Exciton analysis of the transition density matrix
    Trans. dipole moment [D]:             0.352329
      Cartesian components [D]:         [  0.000000,   0.352329,   0.000000]
    <r_h> [Ang]:                        [ -0.000000,   0.000000,  -1.701516]
    <r_e> [Ang]:                        [ -0.000000,   0.000000,   1.046311]
    |<r_e - r_h>| [Ang]:                  2.747827
    Hole size [Ang]:                      1.151502
      Cartesian components [Ang]:       [  0.482228,   0.821228,   0.647300]
    Electron size [Ang]:                  3.878060
      Cartesian components [Ang]:       [  2.745113,   2.126573,   1.726670]
    RMS electron-hole separation [Ang]:   4.879264
      Cartesian components [Ang]:       [  2.786905,   2.274934,   3.296218]
    Covariance(r_h, r_e) [Ang^2]:         0.054317
    Correlation coefficient:              0.012163
    Center-of-mass size [Ang]:            2.029405
      Cartesian components [Ang]:       [  1.393694,   1.142161,   0.933578]

  Decomposition into state-averaged NTOs
    H- 0 -> L+ 3: -0.4186 ( 35.1%)
    H- 0 -> L+ 2: -0.3731 ( 27.8%)
    H- 0 -> L+ 7: -0.2914 ( 17.0%)
    H- 0 -> L+ 6:  0.1436 (  4.1%)
                   omega =  85.9%
  ----------------------------------------------------------------------------


--------------------------------------------------------------------------------
  Time of ADC calculation:  CPU 232.08 s  wall 62.94 s
================================================================================
 
 --------------------------------------------------------------
             Orbital Energies (a.u.) and Symmetries
 --------------------------------------------------------------
 
 Alpha MOs, Restricted
 -- Occupied --                  
-20.213 -11.049 -11.047  -0.930  -0.854  -0.598  -0.473  -0.384
  1 A1    2 A1    1 B1    3 A1    4 A1    2 B1    5 A1    6 A1                 
 -0.328  -0.271  -0.194  -0.130  -0.129
  3 B1    7 A1    1 B2    4 B1    2 B2                                         
 -- Virtual --                   
  0.119   0.132   0.134   0.139   0.147   0.152   0.210   0.232
  5 B1    8 A1    3 B2    1 A2    9 A1    6 B1   10 A1    7 B1                 
  0.258   0.263   0.267   0.282   0.327   0.335   0.360   0.373
  2 A2   11 A1    4 B2    8 B1   12 A1   13 A1    3 A2    9 B1                 
  0.447   0.451   0.469   0.494   0.502   0.519   0.532   0.547
  5 B2   14 A1   10 B1   15 A1   11 B1   16 A1   12 B1    6 B2                 
  0.574   0.580   0.611   0.612   0.699   0.733   0.795   1.009
 13 B1   17 A1   18 A1    4 A2   19 A1   14 B1   15 B1   20 A1                 
  1.046   1.129   1.132   1.159   1.200   1.216   1.276   1.291
 21 A1   22 A1   16 B1   23 A1    7 B2   17 B1   24 A1    5 A2                 
  1.307   1.309   1.334   1.338   1.339   1.340   1.370   1.475
 18 B1    8 B2   25 A1   19 B1    6 A2   26 A1    9 B2   10 B2                 
  1.483   1.495   1.654   1.667   1.719   1.743   1.876   1.944
  7 A2   20 B1   21 B1   27 A1   11 B2   22 B1   28 A1   23 B1                 
  2.031   2.065   2.131   2.153   2.177   2.213   2.263   2.338
 29 A1    8 A2   12 B2   30 A1   24 B1   13 B2   31 A1   32 A1                 
  2.368   2.395   2.440   2.530   2.578   2.604   2.771   2.775
  9 A2   14 B2   25 B1   26 B1   33 A1   10 A2   34 A1   27 B1                 
  2.854   3.046   3.062   3.118   3.468   3.568   3.923   3.946
 28 B1   35 A1   36 A1   37 A1   29 B1   30 B1   15 B2   11 A2                 
  3.972   4.090   4.546
 38 A1   31 B1   39 A1                                                         
 
 Beta MOs, Restricted
 -- Occupied --                  
-20.213 -11.049 -11.047  -0.930  -0.854  -0.598  -0.473  -0.384
  1 A1    2 A1    1 B1    3 A1    4 A1    2 B1    5 A1    6 A1                 
 -0.328  -0.271  -0.194  -0.130  -0.129
  3 B1    7 A1    1 B2    4 B1    2 B2                                         
 -- Virtual --                   
  0.119   0.132   0.134   0.139   0.147   0.152   0.210   0.232
  5 B1    8 A1    3 B2    1 A2    9 A1    6 B1   10 A1    7 B1                 
  0.258   0.263   0.267   0.282   0.327   0.335   0.360   0.373
  2 A2   11 A1    4 B2    8 B1   12 A1   13 A1    3 A2    9 B1                 
  0.447   0.451   0.469   0.494   0.502   0.519   0.532   0.547
  5 B2   14 A1   10 B1   15 A1   11 B1   16 A1   12 B1    6 B2                 
  0.574   0.580   0.611   0.612   0.699   0.733   0.795   1.009
 13 B1   17 A1   18 A1    4 A2   19 A1   14 B1   15 B1   20 A1                 
  1.046   1.129   1.132   1.159   1.200   1.216   1.276   1.291
 21 A1   22 A1   16 B1   23 A1    7 B2   17 B1   24 A1    5 A2                 
  1.307   1.309   1.334   1.338   1.339   1.340   1.370   1.475
 18 B1    8 B2   25 A1   19 B1    6 A2   26 A1    9 B2   10 B2                 
  1.483   1.495   1.654   1.667   1.719   1.743   1.876   1.944
  7 A2   20 B1   21 B1   27 A1   11 B2   22 B1   28 A1   23 B1                 
  2.031   2.065   2.131   2.153   2.177   2.213   2.263   2.338
 29 A1    8 A2   12 B2   30 A1   24 B1   13 B2   31 A1   32 A1                 
  2.368   2.395   2.440   2.530   2.578   2.604   2.771   2.775
  9 A2   14 B2   25 B1   26 B1   33 A1   10 A2   34 A1   27 B1                 
  2.854   3.046   3.062   3.118   3.468   3.568   3.923   3.946
 28 B1   35 A1   36 A1   37 A1   29 B1   30 B1   15 B2   11 A2                 
  3.972   4.090   4.546
 38 A1   31 B1   39 A1                                                         
 --------------------------------------------------------------
 
          Ground-State Mulliken Net Atomic Charges

     Atom                 Charge (a.u.)
  ----------------------------------------
      1 C                    -0.230115
      2 C                    -0.230115
      3 H                     0.201991
      4 H                     0.201991
      5 H                     0.030264
      6 H                     0.030264
      7 O                    -1.074208
      8 H                     0.069929
  ----------------------------------------
  Sum of atomic charges =    -1.000000

 -----------------------------------------------------------------
                    Cartesian Multipole Moments
 -----------------------------------------------------------------
    Charge (ESU x 10^10)
                -4.8032
    Dipole Moment (Debye)
         X       0.0000      Y      -0.0000      Z       5.2858
       Tot       5.2858
    Quadrupole Moments (Debye-Ang)
        XX     -23.6671     XY      -0.0000     YY     -26.5190
        XZ       0.0000     YZ      -0.0000     ZZ     -32.8995
    Octopole Moments (Debye-Ang^2)
       XXX       0.0000    XXY      -0.0000    XYY       0.0000
       YYY       0.0000    XXZ       1.0936    XYZ      -0.0000
       YYZ      -0.0861    XZZ       0.0000    YZZ       0.0000
       ZZZ       6.4192
    Hexadecapole Moments (Debye-Ang^3)
      XXXX     -88.1169   XXXY      -0.0000   XXYY     -21.8772
      XYYY      -0.0000   YYYY     -40.2447   XXXZ       0.0000
      XXYZ      -0.0000   XYYZ       0.0000   YYYZ      -0.0000
      XXZZ     -70.6489   XYZZ      -0.0000   YYZZ     -65.5438
      XZZZ       0.0000   YZZZ      -0.0000   ZZZZ    -292.9636
 -----------------------------------------------------------------
 Total job time:  172.31s(wall), 281.85s(cpu) 
 Sat Mar  5 01:07:03 2022

        *************************************************************
        *                                                           *
        *  Thank you very much for using Q-Chem.  Have a nice day.  *
        *                                                           *
        *************************************************************


