/src/tsommerfeld/qchem/exe/qcprog.exe .input0.975758.17963.qcin.1 /src/jdavis/qchem.scratch/qchem17963/

                  Welcome to Q-Chem
     A Quantum Leap Into The Future Of Chemistry


 Q-Chem 5.4 (devel), Q-Chem, Inc., Pleasanton, CA (2021)

 E. Epifanovsky,  A. T. B. Gilbert,  Xintian Feng,  Joonho Lee,  Yuezhi Mao,  
 N. Mardirossian,  P. Pokhilko,  A. White,  M. Wormit,  M. P. Coons,  
 A. L. Dempwolff,  Zhengting Gan,  D. Hait,  P. R. Horn,  L. D. Jacobson,  
 I. Kaliman,  J. Kussmann,  A. W. Lange,  Ka Un Lao,  D. S. Levine,  Jie Liu,  
 S. C. McKenzie,  A. F. Morrison,  K. Nanda,  F. Plasser,  D. R. Rehn,  
 M. L. Vidal,  Zhi-Qiang You,  Ying Zhu,  B. Alam,  B. Albrecht,  
 A. Aldossary,  E. Alguire,  J. H. Andersen,  D. Barton,  K. Begam,  A. Behn,  
 Y. A. Bernard,  E. J. Berquist,  H. Burton,  A. Carreras,  K. Carter-Fenk,  
 R. Chakraborty,  A. D. Chien,  K. D. Closser,  V. Cofer-Shabica,  
 S. Dasgupta,  Jia Deng,  M. de Wergifosse,  M. Diedenhofen,  Hainam Do,  
 S. Ehlert,  Po-Tung Fang,  S. Fatehi,  Qingguo Feng,  T. Friedhoff,  
 J. Gayvert,  Qinghui Ge,  G. Gidofalvi,  M. Goldey,  J. Gomes,  
 C. Gonzalez-Espinoza,  S. Gulania,  A. Gunina,  M. W. D. Hanson-Heine,  
 P. H. P. Harbach,  A. W. Hauser,  M. F. Herbst,  M. Hernandez Vera,  
 M. Hodecker,  Z. C. Holden,  S. Houck,  Xunkun Huang,  Kerwin Hui,  
 B. C. Huynh,  M. Ivanov,  Hyunjun Ji,  Hanjie Jiang,  B. Kaduk,  S. Kaehler,  
 K. Khistyaev,  Jaehoon Kim,  P. Klunzinger,  Z. Koczor-Benda,  
 Joong Hoon Koh,  D. Kosenkov,  L. Koulias,  T. Kowalczyk,  C. M. Krauter,  
 K. Kue,  A. Kunitsa,  T. Kus,  A. Landau,  K. V. Lawler,  D. Lefrancois,  
 S. Lehtola,  Rain Li,  Yi-Pei Li,  Jiashu Liang,  M. Liebenthal,  
 Hung-Hsuan Lin,  You-Sheng Lin,  Fenglai Liu,  Kuan-Yu Liu,  
 M. Loipersberger,  A. Luenser,  A. Manjanath,  P. Manohar,  E. Mansoor,  
 S. F. Manzer,  Shan-Ping Mao,  A. V. Marenich,  T. Markovich,  S. Mason,  
 S. A. Maurer,  P. F. McLaughlin,  M. F. S. J. Menger,  J.-M. Mewes,  
 S. A. Mewes,  P. Morgante,  J. W. Mullinax,  K. J. Oosterbaan,  G. Paran,  
 Alexander C. Paul,  Suranjan K. Paul,  F. Pavosevic,  Zheng Pei,  S. Prager,  
 E. I. Proynov,  E. Ramos,  B. Rana,  A. E. Rask,  A. Rettig,  R. M. Richard,  
 F. Rob,  E. Rossomme,  T. Scheele,  M. Scheurer,  M. Schneider,  
 N. Sergueev,  S. M. Sharada,  W. Skomorowski,  D. W. Small,  C. J. Stein,  
 Yu-Chuan Su,  E. J. Sundstrom,  Zhen Tao,  J. Thirman,  T. Tsuchimochi,  
 N. M. Tubman,  S. P. Veccham,  O. Vydrov,  J. Wenzel,  J. Witte,  A. Yamada,  
 Kun Yao,  S. Yeganeh,  S. R. Yost,  A. Zech,  Igor Ying Zhang,  Xing Zhang,  
 Yu Zhang,  D. Zuev,  A. Aspuru-Guzik,  A. T. Bell,  N. A. Besley,  
 K. B. Bravaya,  B. R. Brooks,  D. Casanova,  Jeng-Da Chai,  S. Coriani,  
 C. J. Cramer,  A. E. DePrince, III,  R. A. DiStasio Jr.,  A. Dreuw,  
 B. D. Dunietz,  T. R. Furlani,  W. A. Goddard III,  S. Grimme,  
 S. Hammes-Schiffer,  T. Head-Gordon,  W. J. Hehre,  Chao-Ping Hsu,  
 T.-C. Jagau,  Yousung Jung,  A. Klamt,  Jing Kong,  D. S. Lambrecht,  
 WanZhen Liang,  N. J. Mayhall,  C. W. McCurdy,  J. B. Neaton,  
 C. Ochsenfeld,  J. A. Parkhill,  R. Peverati,  V. A. Rassolov,  Yihan Shao,  
 L. V. Slipchenko,  T. Stauch,  R. P. Steele,  J. E. Subotnik,  
 A. J. W. Thom,  A. Tkatchenko,  D. G. Truhlar,  T. Van Voorhis,  
 T. A. Wesolowski,  K. B. Whaley,  H. L. Woodcock III,  P. M. Zimmerman,  
 S. Faraji,  P. M. W. Gill,  M. Head-Gordon,  J. M. Herbert,  A. I. Krylov

 Additional authors for Version 5.4.1: 
 S. Kotaru,  Shaozhi Li,  Xiangyuan Li,  F. Matz,  A. Molle,  Haisheng Ren,  
 Yingli Su,  Hung-Yi Tsai,  C. Utku,  Fang Wang

 Contributors to earlier versions of Q-Chem not listed above: 
 R. D. Adamson,  B. Austin,  R. Baer,  J. Baker,  G. J. O. Beran,  
 K. Brandhorst,  S. T. Brown,  E. F. C. Byrd,  A. K. Chakraborty,  
 G. K. L. Chan,  Chun-Min Chang,  Yunqing Chen,  C.-L. Cheng,  
 Siu Hung Chien,  D. M. Chipman,  D. L. Crittenden,  H. Dachsel,  
 R. J. Doerksen,  A. D. Dutoi,  R. G. Edgar,  J. Fosso-Tande,  
 L. Fusti-Molnar,  D. Ghosh,  A. Ghysels,  A. Golubeva-Zadorozhnaya,  
 J. Gonthier,  M. S. Gordon,  S. R. Gwaltney,  G. Hawkins,  J. E. Herr,  
 A. Heyden,  S. Hirata,  E. G. Hohenstein,  G. Kedziora,  F. J. Keil,  
 C. Kelley,  Jihan Kim,  R. A. King,  R. Z. Khaliullin,  P. P. Korambath,  
 W. Kurlancheek,  A. Laurent,  A. M. Lee,  M. S. Lee,  S. V. Levchenko,  
 Ching Yeh Lin,  D. Liotard,  E. Livshits,  R. C. Lochan,  I. Lotan,  
 L. A. Martinez-Martinez,  P. E. Maslen,  N. Nair,  D. P. O'Neill,  
 D. Neuhauser,  E. Neuscamman,  C. M. Oana,  R. Olivares-Amaya,  R. Olson,  
 T. M. Perrine,  B. Peters,  P. A. Pieniazek,  A. Prociuk,  Y. M. Rhee,  
 J. Ritchie,  M. A. Rohrdanz,  E. Rosta,  N. J. Russ,  H. F. Schaefer III,  
 M. W. Schmidt,  N. E. Schultz,  S. Sharma,  N. Shenvi,  C. D. Sherrill,  
 A. C. Simmonett,  A. Sodt,  T. Stein,  D. Stuck,  K. S. Thanthiriwatte,  
 V. Vanovschi,  L. Vogt,  Tao Wang,  A. Warshel,  M. A. Watson,  
 C. F. Williams,  Q. Wu,  X. Xu,  Jun Yang,  W. Zhang,  Yan Zhao

 Please cite Q-Chem as follows:
 Y. Shao et al., Mol. Phys. 113, 184-215 (2015)
 DOI: 10.1080/00268976.2014.952696

 Q-Chem 5.4.1 for Intel X86 EM64T Linux

 Parts of Q-Chem use Armadillo 9.900.5 (Nocturnal Misbehaviour).
 http://arma.sourceforge.net/

 Q-Chem begins on Sat Mar  5 00:15:39 2022  

 Host: node01
0

     Scratch files written to /src/jdavis/qchem.scratch/qchem17963//
 Processing $rem in /src/tsommerfeld/qchem/config/preferences:
 Processing $rem in /home/jdavis/.qchemrc:

 Checking the input file for inconsistencies... 	...done.

--------------------------------------------------------------
User input:
--------------------------------------------------------------
$molecule
-1 1
C        -0.6645000000    0.0000000000    1.1619088658
C         0.6645000000    0.0000000000    1.1619088658
H        -1.1590800000    0.0000000000    0.1995598658
H         1.1590800000    0.0000000000    0.1995598658
H        -1.1590800000    0.0000000000    2.1242568658
H         1.1590800000    0.0000000000    2.1242568658
O         0.0000000000    0.0000000000   -1.5841414040
H         0.0000000000    0.0000000000   -2.5471307683
$end
$rem
   METHOD adc(2)
   BASIS gen
   PURECART 11
   EE_STATES [0,0,0,10]
   scf_convergence 8
   ADC_DAVIDSON_MAXITER 120
   ADC_DAVIDSON_MAXSUBSPACE 200
   adc_nguess_singles 100
   THRESH 14
   S2THRESH 14
   adc_davidson_conv 5
   adc_davidson_thresh 14
   THREADS 10
   MEM_TOTAL 95000
   STATE_ANALYSIS TRUE
$end
$basis
C 1
S   9   1.00
      6.665000D+03           6.920000D-04
      1.000000D+03           5.329000D-03
      2.280000D+02           2.707700D-02
      6.471000D+01           1.017180D-01
      2.106000D+01           2.747400D-01
      7.495000D+00           4.485640D-01
      2.797000D+00           2.850740D-01
      5.215000D-01           1.520400D-02
      1.596000D-01          -3.191000D-03
S   9   1.00
      6.665000D+03          -1.460000D-04
      1.000000D+03          -1.154000D-03
      2.280000D+02          -5.725000D-03
      6.471000D+01          -2.331200D-02
      2.106000D+01          -6.395500D-02
      7.495000D+00          -1.499810D-01
      2.797000D+00          -1.272620D-01
      5.215000D-01           5.445290D-01
      1.596000D-01           5.804960D-01
S   1   1.00
      1.596000D-01           1.000000D+00
S   1   1.00
      0.0469000              1.0000000
P   4   1.00
      9.439000D+00           3.810900D-02
      2.002000D+00           2.094800D-01
      5.456000D-01           5.085570D-01
      1.517000D-01           4.688420D-01
P   1   1.00
      1.517000D-01           1.000000D+00
P   1   1.00
      0.0422921      1.0000000
P   1   1.00
      0.0211461      1.0000000
P   1   1.00
      0.010573      1.0000000
D   1   1.00
      5.500000D-01           1.0000000
****
C 2
S   9   1.00
      6.665000D+03           6.920000D-04
      1.000000D+03           5.329000D-03
      2.280000D+02           2.707700D-02
      6.471000D+01           1.017180D-01
      2.106000D+01           2.747400D-01
      7.495000D+00           4.485640D-01
      2.797000D+00           2.850740D-01
      5.215000D-01           1.520400D-02
      1.596000D-01          -3.191000D-03
S   9   1.00
      6.665000D+03          -1.460000D-04
      1.000000D+03          -1.154000D-03
      2.280000D+02          -5.725000D-03
      6.471000D+01          -2.331200D-02
      2.106000D+01          -6.395500D-02
      7.495000D+00          -1.499810D-01
      2.797000D+00          -1.272620D-01
      5.215000D-01           5.445290D-01
      1.596000D-01           5.804960D-01
S   1   1.00
      1.596000D-01           1.000000D+00
S   1   1.00
      0.0469000              1.0000000
P   4   1.00
      9.439000D+00           3.810900D-02
      2.002000D+00           2.094800D-01
      5.456000D-01           5.085570D-01
      1.517000D-01           4.688420D-01
P   1   1.00
      1.517000D-01           1.000000D+00
P   1   1.00
      0.0422921      1.0000000
P   1   1.00
      0.0211461      1.0000000
P   1   1.00
      0.010573      1.0000000
D   1   1.00
      5.500000D-01           1.0000000
****
H 3
cc-pVDZ
****
H 4
cc-pVDZ
****
H 5
cc-pVDZ
****
H 6
cc-pVDZ
****
O 7
aug-cc-pVDZ
****
H 8
cc-pVDZ
****
$end
--------------------------------------------------------------
 ----------------------------------------------------------------
             Standard Nuclear Orientation (Angstroms)
    I     Atom           X                Y                Z
 ----------------------------------------------------------------
    1      C      -0.6645000000    -0.0000000000     1.0270977517
    2      C       0.6645000000     0.0000000000     1.0270977517
    3      H      -1.1590800000    -0.0000000000     0.0647487517
    4      H       1.1590800000     0.0000000000     0.0647487517
    5      H      -1.1590800000    -0.0000000000     1.9894457517
    6      H       1.1590800000     0.0000000000     1.9894457517
    7      O       0.0000000000    -0.0000000000    -1.7189525181
    8      H       0.0000000000    -0.0000000000    -2.6819418824
 ----------------------------------------------------------------
 Molecular Point Group                 C2v   NOp =  4
 Largest Abelian Subgroup              C2v   NOp =  4
 Nuclear Repulsion Energy =          64.38561153 hartrees
 There are       13 alpha and       13 beta electrons
 Requested basis set is non-standard
 There are 44 shells and 96 basis functions
 Total memory of 95000 MB is distributed as follows: 
   MEM_STATIC is set to 192 MB
   QALLOC/CCMAN JOB total memory use is  94808 MB
 Warning: actual memory use might exceed 95000 MB

 Total QAlloc Memory Limit  95000 MB
 Mega-Array Size       188 MB
 MEM_STATIC part       192 MB

                       Distance Matrix (Angstroms)
             C (  1)   C (  2)   H (  3)   H (  4)   H (  5)   H (  6)
   C (  2)  1.329000
   H (  3)  1.082000  2.061931
   H (  4)  2.061931  1.082000  2.318160
   H (  5)  1.082000  2.061931  1.924697  3.013026
   H (  6)  2.061931  1.082000  3.013026  1.924697  2.318160
   O (  7)  2.825306  2.825306  2.127218  2.127218  3.885316  3.885316
   H (  8)  3.768094  3.768094  2.981237  2.981237  4.813037  4.813037
             O (  7)
   H (  8)  0.962989
 
 A cutoff of  1.0D-14 yielded    990 shell pairs
 There are      4750 function pairs (      5164 Cartesian)
 Smallest overlap matrix eigenvalue = 1.85E-04

 Scale SEOQF with 1.000000e-01/1.000000e-01/1.000000e-01

 Standard Electronic Orientation quadrupole field applied
 Nucleus-field energy     =    -0.0000000051 hartrees
 ================ Generating on-the-fly SAD Guess ================
Attempting to make child job directory: /src/jdavis/qchem.scratch/qchem17963//Frg1/
Attempting to make child job directory: /src/jdavis/qchem.scratch/qchem17963//Frg2/
Attempting to make child job directory: /src/jdavis/qchem.scratch/qchem17963//Frg3/
Creating input file /src/jdavis/qchem.scratch/qchem17963/Frg1.input
using default PutDataFrgm: nothing
calling putenv with: QCSCRATCH=/src/jdavis/qchem.scratch/qchem17963/ 
Spawning Job For Fragment 0
Done Job For Fragment 0
calling putenv with: QCSCRATCH=/src/jdavis/qchem.scratch 
calling putenv with: QCTHREADS=1 
Creating input file /src/jdavis/qchem.scratch/qchem17963/Frg2.input
using default PutDataFrgm: nothing
calling putenv with: QCSCRATCH=/src/jdavis/qchem.scratch/qchem17963/ 
Spawning Job For Fragment 1
Done Job For Fragment 1
calling putenv with: QCSCRATCH=/src/jdavis/qchem.scratch 
calling putenv with: QCTHREADS=1 
Creating input file /src/jdavis/qchem.scratch/qchem17963/Frg3.input
using default PutDataFrgm: nothing
calling putenv with: QCSCRATCH=/src/jdavis/qchem.scratch/qchem17963/ 
Spawning Job For Fragment 2
Done Job For Fragment 2
calling putenv with: QCSCRATCH=/src/jdavis/qchem.scratch 
calling putenv with: QCTHREADS=1 
 Time for running child jobs:  CPU 1.76 s  wall 80.92 s
 ============= Method Specific SAD Guess Constructed =============
 Guess from on-the-fly superposition of atomic densities
 Warning: Energy on first SCF cycle will be non-variational
 A restricted Hartree-Fock SCF calculation will be
 performed using Pulay DIIS extrapolation
 SCF converges when DIIS error is below 1.0E-08
 using 10 threads for integral computing
 -------------------------------------------------------
 OpenMP Integral computing Module                
 Release: version 1.0, May 2013, Q-Chem Inc. Pittsburgh 
 -------------------------------------------------------
 ---------------------------------------
  Cycle       Energy         DIIS Error
 ---------------------------------------
    1    -153.5740065884      5.61E-02
    2    -153.2897819079      1.15E-02
    3    -153.3529802214      9.73E-03
    4    -153.4401628051      7.35E-04
    5    -153.4411472447      2.01E-04
    6    -153.4412248566      4.39E-05
    7    -153.4412305453      1.17E-05
    8    -153.4412311444      3.52E-06
    9    -153.4412311950      6.76E-07
   10    -153.4412311967      1.26E-07
   11    -153.4412311968      4.16E-08
   12    -153.4412311968      1.36E-08
   13    -153.4412311968      2.56E-09 Convergence criterion met
 ---------------------------------------
 SCF time:  CPU 15.03 s  wall 1.51 s
 SCF   energy in the final basis set = -153.44123120
 Total energy in the final basis set = -153.44123120
================================================================================
|                                                                              |
|                                 A D C  M A N                                 |
|                                                                              |
 ------------------------------------------------------------------------------ 
|                                                                              |
| Components:                                                                  |
|                                                                              |
| - libvmm - 1.3-trunk                                                         |
|   Authors:                                                                   |
|   Evgeny Epifanovsky, Ilya Kaliman                                           |
|                                                                              |
| - libtensor - 2.5-trunk                                                      |
|   Authors:                                                                   |
|   Evgeny Epifanovsky, Michael Wormit, Dmitry Zuev, Sam Manzer,               |
|   Ilya Kaliman                                                               |
|                                                                              |
| - libwfa - 1.1-trunk                                                         |
|   Authors:                                                                   |
|   Felix Plasser, Stefanie Mewes (Baeppler), Benjamin Thomitzni,              |
|   Michael Wormit, Feng Chen, Anna I. Krylov, Pavel Pokhilko                  |
|                                                                              |
| - libadc - 1.1-trunk                                                         |
|   Authors:                                                                   |
|   Michael Wormit, Adrian L. Dempwolff, Philipp H. P. Harbach,                |
|   Caroline Krauter, Dirk Rehn, Matthias Schneider, Jan Wenzel                |
|                                                                              |
| - adcman - 2.6-trunk                                                         |
|   Authors:                                                                   |
|   Michael Wormit, Adrian L. Dempwolff, Philipp H. P. Harbach,                |
|   Caroline Krauter, Daniel Lefrancois, Jan-Michael Mewes, Dirk Rehn,         |
|   Matthias Schneider, Jan Wenzel, Andreas Dreuw                              |
|                                                                              |
| Authors of earlier versions of ADCMAN:                                       |
| Andreas Dreuw, Jan Hendrik Starcke, Dirk Rehn, Michael Wormit                |
|                                                                              |
================================================================================

 
 Alpha MOs, Restricted
 -- Occupied --                  
-20.213 -11.049 -11.047  -0.930  -0.854  -0.598  -0.473  -0.384
  1 A1    2 A1    1 B1    3 A1    4 A1    2 B1    5 A1    6 A1                 
 -0.328  -0.271  -0.194  -0.130  -0.129
  3 B1    7 A1    1 B2    4 B1    2 B2                                         
 -- Virtual --                   
  0.088   0.098   0.098   0.098   0.105   0.119   0.162   0.165
  5 B1    3 B2    8 A1    1 A2    6 B1    9 A1   10 A1    7 B1                 
  0.185   0.187   0.189   0.202   0.269   0.293   0.299   0.333
 11 A1    4 B2    2 A2    8 B1   12 A1    9 B1    3 A2   13 A1                 
  0.339   0.347   0.372   0.380   0.428   0.452   0.452   0.483
 14 A1   10 B1    5 B2   15 A1   11 B1    4 A2    6 B2   12 B1                 
  0.512   0.527   0.551   0.580   0.675   0.675   0.695   0.904
 16 A1   17 A1   13 B1   18 A1   14 B1   19 A1   15 B1   20 A1                 
  0.988   1.062   1.081   1.083   1.126   1.132   1.179   1.204
 21 A1   22 A1   23 A1    7 B2   16 B1    5 A2   17 B1    8 B2                 
  1.218   1.237   1.291   1.320   1.335   1.336   1.370   1.468
 24 A1   18 B1    6 A2   25 A1   19 B1   26 A1    9 B2   10 B2                 
  1.483   1.523   1.564   1.645   1.699   1.719   1.858   1.926
  7 A2   20 B1   21 B1   27 A1   22 B1   11 B2   28 A1   23 B1                 
  1.983   2.042   2.126   2.134   2.135   2.206   2.212   2.302
 29 A1    8 A2   12 B2   24 B1   30 A1   31 A1   13 B2   32 A1                 
  2.359   2.393   2.440   2.493   2.557   2.604   2.756   2.758
  9 A2   14 B2   25 B1   26 B1   33 A1   10 A2   27 B1   34 A1                 
  2.846   3.010   3.038   3.093   3.469   3.563   3.922   3.945
 28 B1   35 A1   36 A1   37 A1   29 B1   30 B1   15 B2   11 A2                 
  3.970   4.089   4.539
 38 A1   31 B1   39 A1                                                         
 
 Beta MOs, Restricted
 -- Occupied --                  
-20.213 -11.049 -11.047  -0.930  -0.854  -0.598  -0.473  -0.384
  1 A1    2 A1    1 B1    3 A1    4 A1    2 B1    5 A1    6 A1                 
 -0.328  -0.271  -0.194  -0.130  -0.129
  3 B1    7 A1    1 B2    4 B1    2 B2                                         
 -- Virtual --                   
  0.088   0.098   0.098   0.098   0.105   0.119   0.162   0.165
  5 B1    3 B2    8 A1    1 A2    6 B1    9 A1   10 A1    7 B1                 
  0.185   0.187   0.189   0.202   0.269   0.293   0.299   0.333
 11 A1    4 B2    2 A2    8 B1   12 A1    9 B1    3 A2   13 A1                 
  0.339   0.347   0.372   0.380   0.428   0.452   0.452   0.483
 14 A1   10 B1    5 B2   15 A1   11 B1    4 A2    6 B2   12 B1                 
  0.512   0.527   0.551   0.580   0.675   0.675   0.695   0.904
 16 A1   17 A1   13 B1   18 A1   14 B1   19 A1   15 B1   20 A1                 
  0.988   1.062   1.081   1.083   1.126   1.132   1.179   1.204
 21 A1   22 A1   23 A1    7 B2   16 B1    5 A2   17 B1    8 B2                 
  1.218   1.237   1.291   1.320   1.335   1.336   1.370   1.468
 24 A1   18 B1    6 A2   25 A1   19 B1   26 A1    9 B2   10 B2                 
  1.483   1.523   1.564   1.645   1.699   1.719   1.858   1.926
  7 A2   20 B1   21 B1   27 A1   22 B1   11 B2   28 A1   23 B1                 
  1.983   2.042   2.126   2.134   2.135   2.206   2.212   2.302
 29 A1    8 A2   12 B2   24 B1   30 A1   31 A1   13 B2   32 A1                 
  2.359   2.393   2.440   2.493   2.557   2.604   2.756   2.758
  9 A2   14 B2   25 B1   26 B1   33 A1   10 A2   27 B1   34 A1                 
  2.846   3.010   3.038   3.093   3.469   3.563   3.922   3.945
 28 B1   35 A1   36 A1   37 A1   29 B1   30 B1   15 B2   11 A2                 
  3.970   4.089   4.539
 38 A1   31 B1   39 A1                                                         

--------------------------------------------------------------------------------
                                   HF Summary                                   
--------------------------------------------------------------------------------
  Energy:                                                 -153.4412311968 a.u.
  Dip. moment [a.u.]:                  [   0.000000,    0.000000,    2.077945]
  Total dipole [Debye]:                                               5.281609
  <r^2> [a.u.]:                        [  55.713820,   19.701138,  208.044095]
  Total <r^2> [a.u.]:                                               283.459054
--------------------------------------------------------------------------------

--------------------------------------------------------------------------------
                                 MP(2) Summary                                  
--------------------------------------------------------------------------------
  MP energy contribution:                                   -0.5281141890 a.u.
  Total energy:                                           -153.9693453858 a.u.
  Dip. moment [a.u.]:                  [  -0.000000,   -0.000000,    2.146661]
  Total dipole [Debye]:                                               5.456269
  <r^2> [a.u.]:                        [  56.713375,   20.406121,  209.323019]
  Total <r^2> [a.u.]:                                               286.442515

  Density matrix analysis:
  ------------------------
  NOs
    Occupation of frontier NOs:
       0.0446   1.9357
    Number of electrons: 26.000000
    Number of unpaired electrons: n_u =  0.71479, n_u,nl =  0.08530
    NO participation ratio (PR_NO): 23.000054
  
  
  Mulliken Population Analysis
  Atom      Charge (e)              h+              e-           Del q
  --------------------------------------------------------------------
   1 C       -0.191190        0.094906       -0.098958       -0.004052
   2 C       -0.191190        0.094906       -0.098958       -0.004052
   3 H        0.182329        0.017285       -0.011520        0.005766
   4 H        0.182329        0.017285       -0.011520        0.005766
   5 H        0.013118        0.018327       -0.012419        0.005908
   6 H        0.013118        0.018327       -0.012419        0.005908
   7 O       -1.064545        0.278493       -0.276657        0.001836
   8 H        0.056032        0.015301       -0.032381       -0.017080
  --------------------------------------------------------------------
  Sum:       -1.000000        0.554832       -0.554832        0.000000
  
  Multipole moment analysis of the density matrix
    Molecular charge:                      -1.000000
    Number of electrons:                   26.000000
      Center of electronic charge [Ang]: [ -0.000000,   0.000000,  -0.043691]
    Total nuclear charge:                  25.000000
      Center of nuclear charge [Ang]:    [  0.000000,   0.000000,  -0.000000]
    Dipole moment [D]:                     5.456267
      Cartesian components [D]:          [  0.000000,  -0.000000,   5.456267]
    RMS size of the density [Ang]:         1.755896
      Cartesian components [Ang]:        [  0.781551,   0.468808,   1.500856]
  
  Exciton analysis of the difference density matrix
    <r_h> [Ang]:                  [ -0.000000,  -0.000000,  -0.483146]
    <r_e> [Ang]:                  [ -0.000000,  -0.000000,  -0.548685]
    |<r_e - r_h>| [Ang]:            0.065539
    Hole size [Ang]:                1.978452
      Cartesian components [Ang]: [  0.898511,   0.765606,   1.587702]
    Electron size [Ang]:            2.313531
      Cartesian components [Ang]: [  1.145341,   0.970548,   1.760300]
--------------------------------------------------------------------------------
  Starting Davidson for singlet states of irrep B2 ... 
--------------------------------------------------------------------------------
   It NVec Conv  Avg. Norm  Max. Norm  Conv. states           Remark
--------------------------------------------------------------------------------
       100    0  1.500e-01  5.301e-01  0.2148 n n n n n n n n Guess.
    1  110    0  1.456e-02  6.495e-02  0.0412 n n n n n n n n 
    2  120    0  1.395e-02  1.258e-01  0.0399 n n n n n n n n 
    3  130    0  1.334e-02  1.323e-01  0.0399 n n n n n n n n 
    4  140    0  2.590e-03  2.574e-02  0.0399 n n n n n n n n 
    5  150    3  5.407e-03  5.386e-02  0.0399 y y y n n n n n 
    6  160    5  6.612e-04  6.580e-03  0.0399 y y y y y n n n 
    7  170    8  8.630e-05  8.584e-04  0.0399 y y y y y y y n 
    8  180    9  1.893e-05  1.890e-04  0.0399 y y y y y y y y 
    9  190    9  2.441e-06  2.438e-05  0.0399 y y y y y y y y 
   10  200   10  4.651e-07  4.649e-06  0.0399 y y y y y y y y Converged.
--------------------------------------------------------------------------------
  Davidson Summary: 
 ------------------------------------------------------------
  State  0: excitation energy =   0.0399 a.u.   (converged)
  State  1: excitation energy =   0.0511 a.u.   (converged)
  State  2: excitation energy =   0.0577 a.u.   (converged)
  State  3: excitation energy =   0.0888 a.u.   (converged)
  State  4: excitation energy =   0.1011 a.u.   (converged)
  State  5: excitation energy =   0.1109 a.u.   (converged)
  State  6: excitation energy =   0.1597 a.u.   (converged)
  State  7: excitation energy =   0.1620 a.u.   (converged)
  State  8: excitation energy =   0.1734 a.u.   (converged)
  State  9: excitation energy =   0.1942 a.u.   (converged)
 ------------------------------------------------------------


--------------------------------------------------------------------------------
                   State-averaged natural transition orbitals
--------------------------------------------------------------------------------
--------------------------------------------------------------------------------

--------------------------------------------------------------------------------
                             Excited State Summary
--------------------------------------------------------------------------------
--------------------------------------------------------------------------------

  Excited state 1 (singlet, B2)                                    [converged]
  ----------------------------------------------------------------------------
  Term symbol:  1 (1) B2                                    R^2 =  6.11942e-11

  Total energy:                                           -153.9294233100 a.u.
  Excitation energy:                                               1.086335 eV

  Osc. strength:                                                      0.002647
  Trans. dip. moment [a.u.]:           [  -0.000000,   -0.315371,   -0.000000]
  <i|r^2|0> [a.u.]:                    [  -0.000000,    0.000000,    0.000000]

  Dip. moment [a.u.]:                  [   0.000000,   -0.000000,   -2.575025]
  Total dipole [Debye]:                                               6.545062
  <r^2> [a.u.]:                        [  91.307512,   53.397387,  307.042013]
  Total <r^2> [a.u.]:                                               451.746912

  V1^2 = 0.8651, V2^2 = 0.1349

  Important amplitudes:
      occ i      occ j       vir a       vir b          v   
    ---------------------------------------------------------
     2 (B2) A               8 (A1) A                 -0.5933
     2 (B2) A               9 (A1) A                 -0.2338
    ---------------------------------------------------------

  Density matrix analysis:
  ------------------------
  NOs
    Occupation of frontier NOs:
       0.9601   0.9996
    Number of electrons: 26.000000
    Number of unpaired electrons: n_u =  2.75055, n_u,nl =  2.11659
    NO participation ratio (PR_NO):  3.874732
  
  
  Mulliken Population Analysis
  Atom      Charge (e)              h+              e-           Del q
  --------------------------------------------------------------------
   1 C       -0.692810        0.035683       -0.537303       -0.501620
   2 C       -0.692810        0.035683       -0.537303       -0.501620
   3 H        0.146964       -0.000788       -0.034577       -0.035365
   4 H        0.146964       -0.000788       -0.034577       -0.035365
   5 H        0.049880        0.035506        0.001256        0.036762
   6 H        0.049880        0.035506        0.001256        0.036762
   7 O       -0.196875        1.407913       -0.540243        0.867670
   8 H        0.188808        0.148816       -0.016040        0.132776
  --------------------------------------------------------------------
  Sum:       -1.000000        1.697530       -1.697530        0.000000
  
  Multipole moment analysis of the density matrix
    Molecular charge:                      -1.000000
    Number of electrons:                   26.000000
      Center of electronic charge [Ang]: [ -0.000000,   0.000000,   0.052409]
    Total nuclear charge:                  25.000000
      Center of nuclear charge [Ang]:    [  0.000000,   0.000000,  -0.000000]
    Dipole moment [D]:                     6.545060
      Cartesian components [D]:          [  0.000000,  -0.000000,  -6.545060]
    RMS size of the density [Ang]:         2.205157
      Cartesian components [Ang]:        [  0.991671,   0.758358,   1.817745]
  
  Exciton analysis of the difference density matrix
    <r_h> [Ang]:                  [  0.000000,  -0.000000,  -1.494963]
    <r_e> [Ang]:                  [ -0.000000,  -0.000000,  -0.023055]
    |<r_e - r_h>| [Ang]:            1.471908
    Hole size [Ang]:                1.801711
      Cartesian components [Ang]: [  0.861341,   0.897007,   1.303700]
    Electron size [Ang]:            5.722722
      Cartesian components [Ang]: [  2.539417,   2.499387,   4.478166]

  Transition density matrix analysis:
  -----------------------------------
  
  CT numbers (Mulliken)
    omega =     0.8504
    <Phe> =    -0.0006
  
  Exciton analysis of the transition density matrix
    Trans. dipole moment [D]:             0.400797
      Cartesian components [D]:         [ -0.000000,  -0.400797,  -0.000000]
    <r_h> [Ang]:                        [ -0.000000,  -0.000000,  -1.746718]
    <r_e> [Ang]:                        [ -0.000000,   0.000000,   0.808424]
    |<r_e - r_h>| [Ang]:                  2.555142
    Hole size [Ang]:                      1.096174
      Cartesian components [Ang]:       [  0.478942,   0.827212,   0.536592]
    Electron size [Ang]:                  7.178907
      Cartesian components [Ang]:       [  3.215175,   3.190328,   5.569665]
    RMS electron-hole separation [Ang]:   7.697683
      Cartesian components [Ang]:       [  3.250504,   3.295488,   6.150472]
    Covariance(r_h, r_e) [Ang^2]:         0.006370
    Correlation coefficient:              0.000810
    Center-of-mass size [Ang]:            3.631496
      Cartesian components [Ang]:       [  1.625400,   1.648082,   2.798153]

  Decomposition into state-averaged NTOs
    H- 0 -> L+ 6: -0.3717 ( 27.6%)
    H- 0 -> L+ 8: -0.3469 ( 24.1%)
    H- 0 -> L+ 4: -0.3419 ( 23.4%)
    H- 0 -> L+ 0: -0.1672 (  5.6%)
    H- 0 -> L+ 1:  0.1211 (  2.9%)
    H- 0 -> L+ 3:  0.0837 (  1.4%)
                   omega =  85.0%
  ----------------------------------------------------------------------------


  Excited state 2 (singlet, B2)                                    [converged]
  ----------------------------------------------------------------------------
  Term symbol:  2 (1) B2                                    R^2 =  6.00359e-11

  Total energy:                                           -153.9182087420 a.u.
  Excitation energy:                                               1.391499 eV

  Osc. strength:                                                      0.000680
  Trans. dip. moment [a.u.]:           [  -0.000000,    0.141274,   -0.000000]
  <i|r^2|0> [a.u.]:                    [   0.000000,    0.000000,    0.000000]

  Dip. moment [a.u.]:                  [  -0.000000,   -0.000000,   -2.891054]
  Total dipole [Debye]:                                               7.348329
  <r^2> [a.u.]:                        [ 149.044247,  113.400562,  229.173564]
  Total <r^2> [a.u.]:                                               491.618373

  V1^2 = 0.8611, V2^2 = 0.1389

  Important amplitudes:
      occ i      occ j       vir a       vir b          v   
    ---------------------------------------------------------
     4 (B1) A               1 (A2) A                 -0.6496
     4 (B1) A               2 (A2) A                  0.0889
    ---------------------------------------------------------

  Density matrix analysis:
  ------------------------
  NOs
    Occupation of frontier NOs:
       0.9595   0.9996
    Number of electrons: 26.000000
    Number of unpaired electrons: n_u =  2.75433, n_u,nl =  2.11790
    NO participation ratio (PR_NO):  3.886824
  
  
  Mulliken Population Analysis
  Atom      Charge (e)              h+              e-           Del q
  --------------------------------------------------------------------
   1 C       -0.683611        0.045904       -0.538325       -0.492421
   2 C       -0.683611        0.045904       -0.538325       -0.492421
   3 H        0.136617       -0.003778       -0.041934       -0.045711
   4 H        0.136617       -0.003778       -0.041934       -0.045711
   5 H        0.048170        0.036667       -0.001614        0.035052
   6 H        0.048170        0.036667       -0.001614        0.035052
   7 O       -0.173960        1.418668       -0.528084        0.890585
   8 H        0.171606        0.141191       -0.025616        0.115574
  --------------------------------------------------------------------
  Sum:       -1.000000        1.717446       -1.717446        0.000000
  
  Multipole moment analysis of the density matrix
    Molecular charge:                      -1.000000
    Number of electrons:                   26.000000
      Center of electronic charge [Ang]: [  0.000000,   0.000000,   0.058842]
    Total nuclear charge:                  25.000000
      Center of nuclear charge [Ang]:    [  0.000000,   0.000000,  -0.000000]
    Dipole moment [D]:                     7.348327
      Cartesian components [D]:          [ -0.000000,  -0.000000,  -7.348327]
    RMS size of the density [Ang]:         2.300311
      Cartesian components [Ang]:        [  1.266987,   1.105152,   1.569972]
  
  Exciton analysis of the difference density matrix
    <r_h> [Ang]:                  [  0.000000,  -0.000000,  -1.467141]
    <r_e> [Ang]:                  [  0.000000,   0.000000,   0.085074]
    |<r_e - r_h>| [Ang]:            1.552214
    Hole size [Ang]:                1.817066
      Cartesian components [Ang]: [  0.945891,   0.809199,   1.323713]
    Electron size [Ang]:            6.237050
      Cartesian components [Ang]: [  3.993645,   3.977121,   2.670974]

  Transition density matrix analysis:
  -----------------------------------
  
  CT numbers (Mulliken)
    omega =     0.8466
    <Phe> =     0.0000
  
  Exciton analysis of the transition density matrix
    Trans. dipole moment [D]:             0.179541
      Cartesian components [D]:         [ -0.000000,   0.179541,  -0.000000]
    <r_h> [Ang]:                        [  0.000000,  -0.000000,  -1.727318]
    <r_e> [Ang]:                        [  0.000000,   0.000000,   1.027273]
    |<r_e - r_h>| [Ang]:                  2.754591
    Hole size [Ang]:                      1.141567
      Cartesian components [Ang]:       [  0.828068,   0.474039,   0.626711]
    Electron size [Ang]:                  7.899325
      Cartesian components [Ang]:       [  5.181550,   5.163450,   2.981553]
    RMS electron-hole separation [Ang]:   8.442776
      Cartesian components [Ang]:       [  5.246424,   5.185104,   4.107335]
    Covariance(r_h, r_e) [Ang^2]:         0.004915
    Correlation coefficient:              0.000545
    Center-of-mass size [Ang]:            3.991001
      Cartesian components [Ang]:       [  2.624088,   2.592613,   1.523353]

  Decomposition into state-averaged NTOs
    H- 1 -> L+ 7: -0.5953 ( 70.9%)
    H- 1 -> L+ 2:  0.2560 ( 13.1%)
                   omega =  84.7%
  ----------------------------------------------------------------------------


  Excited state 3 (singlet, B2)                                    [converged]
  ----------------------------------------------------------------------------
  Term symbol:  3 (1) B2                                    R^2 =  9.25239e-11

  Total energy:                                           -153.9116254886 a.u.
  Excitation energy:                                               1.570638 eV

  Osc. strength:                                                      0.004918
  Trans. dip. moment [a.u.]:           [  -0.000000,    0.357485,   -0.000000]
  <i|r^2|0> [a.u.]:                    [   0.000000,    0.000000,    0.000000]

  Dip. moment [a.u.]:                  [   0.000000,    0.000000,   -3.254011]
  Total dipole [Debye]:                                               8.270872
  <r^2> [a.u.]:                        [ 161.514509,   55.383536,  236.407108]
  Total <r^2> [a.u.]:                                               453.305153

  V1^2 = 0.8639, V2^2 = 0.1361

  Important amplitudes:
      occ i      occ j       vir a       vir b          v   
    ---------------------------------------------------------
     2 (B2) A               9 (A1) A                  0.5915
     2 (B2) A               8 (A1) A                 -0.2518
    ---------------------------------------------------------

  Density matrix analysis:
  ------------------------
  NOs
    Occupation of frontier NOs:
       0.9599   0.9987
    Number of electrons: 26.000000
    Number of unpaired electrons: n_u =  2.75225, n_u,nl =  2.11729
    NO participation ratio (PR_NO):  3.883302
  
  
  Mulliken Population Analysis
  Atom      Charge (e)              h+              e-           Del q
  --------------------------------------------------------------------
   1 C       -0.689286        0.039295       -0.537390       -0.498095
   2 C       -0.689286        0.039295       -0.537390       -0.498095
   3 H        0.140267       -0.000358       -0.041704       -0.042062
   4 H        0.140267       -0.000358       -0.041704       -0.042062
   5 H        0.040606        0.035652       -0.008164        0.027487
   6 H        0.040606        0.035652       -0.008164        0.027487
   7 O       -0.147643        1.412719       -0.495817        0.916901
   8 H        0.164470        0.141110       -0.032673        0.108438
  --------------------------------------------------------------------
  Sum:       -1.000000        1.703007       -1.703007        0.000000
  
  Multipole moment analysis of the density matrix
    Molecular charge:                      -1.000000
    Number of electrons:                   26.000000
      Center of electronic charge [Ang]: [ -0.000000,  -0.000000,   0.066229]
    Total nuclear charge:                  25.000000
      Center of nuclear charge [Ang]:    [  0.000000,   0.000000,  -0.000000]
    Dipole moment [D]:                     8.270869
      Cartesian components [D]:          [  0.000000,   0.000000,  -8.270869]
    RMS size of the density [Ang]:         2.208587
      Cartesian components [Ang]:        [  1.318925,   0.772333,   1.594301]
  
  Exciton analysis of the difference density matrix
    <r_h> [Ang]:                  [  0.000000,  -0.000000,  -1.482478]
    <r_e> [Ang]:                  [ -0.000000,  -0.000000,   0.195679]
    |<r_e - r_h>| [Ang]:            1.678157
    Hole size [Ang]:                1.801697
      Cartesian components [Ang]: [  0.867446,   0.893311,   1.302169]
    Electron size [Ang]:            5.730889
      Cartesian components [Ang]: [  4.240885,   2.559181,   2.882461]

  Transition density matrix analysis:
  -----------------------------------
  
  CT numbers (Mulliken)
    omega =     0.8492
    <Phe> =    -0.0005
  
  Exciton analysis of the transition density matrix
    Trans. dipole moment [D]:             0.454318
      Cartesian components [D]:         [ -0.000000,   0.454318,  -0.000000]
    <r_h> [Ang]:                        [ -0.000000,  -0.000000,  -1.744182]
    <r_e> [Ang]:                        [ -0.000000,  -0.000000,   1.190590]
    |<r_e - r_h>| [Ang]:                  2.934772
    Hole size [Ang]:                      1.099800
      Cartesian components [Ang]:       [  0.479187,   0.827091,   0.543930]
    Electron size [Ang]:                  7.156543
      Cartesian components [Ang]:       [  5.473380,   3.278127,   3.242237]
    RMS electron-hole separation [Ang]:   7.811215
      Cartesian components [Ang]:       [  5.494224,   3.379284,   4.405567]
    Covariance(r_h, r_e) [Ang^2]:         0.011731
    Correlation coefficient:              0.001490
    Center-of-mass size [Ang]:            3.621088
      Cartesian components [Ang]:       [  2.747203,   1.691215,   1.644672]

  Decomposition into state-averaged NTOs
    H- 0 -> L+ 6:  0.4050 ( 32.8%)
    H- 0 -> L+ 8: -0.3682 ( 27.1%)
    H- 0 -> L+ 3:  0.2203 (  9.7%)
    H- 0 -> L+ 1: -0.2030 (  8.2%)
    H- 0 -> L+ 4: -0.1406 (  4.0%)
    H- 0 -> L+ 0:  0.1239 (  3.1%)
                   omega =  84.9%
  ----------------------------------------------------------------------------


  Excited state 4 (singlet, B2)                                    [converged]
  ----------------------------------------------------------------------------
  Term symbol:  4 (1) B2                                    R^2 =  2.87718e-10

  Total energy:                                           -153.8805800505 a.u.
  Excitation energy:                                               2.415428 eV

  Osc. strength:                                                      0.000517
  Trans. dip. moment [a.u.]:           [  -0.000000,   -0.093483,    0.000000]
  <i|r^2|0> [a.u.]:                    [   0.000000,    0.000000,    0.000000]

  Dip. moment [a.u.]:                  [  -0.000000,    0.000000,   -3.846450]
  Total dipole [Debye]:                                               9.776703
  <r^2> [a.u.]:                        [ 113.665505,   30.330014,  219.358129]
  Total <r^2> [a.u.]:                                               363.353647

  V1^2 = 0.8660, V2^2 = 0.1340

  Important amplitudes:
      occ i      occ j       vir a       vir b          v   
    ---------------------------------------------------------
     2 (B2) A              10 (A1) A                 -0.6404
     2 (B2) A              11 (A1) A                  0.0973
    ---------------------------------------------------------

  Density matrix analysis:
  ------------------------
  NOs
    Occupation of frontier NOs:
       0.9608   0.9975
    Number of electrons: 26.000000
    Number of unpaired electrons: n_u =  2.75140, n_u,nl =  2.11651
    NO participation ratio (PR_NO):  3.882660
  
  
  Mulliken Population Analysis
  Atom      Charge (e)              h+              e-           Del q
  --------------------------------------------------------------------
   1 C       -0.709177        0.039704       -0.557691       -0.517987
   2 C       -0.709177        0.039704       -0.557691       -0.517987
   3 H        0.151203        0.001459       -0.032585       -0.031125
   4 H        0.151203        0.001459       -0.032585       -0.031125
   5 H        0.060590        0.040398        0.007074        0.047472
   6 H        0.060590        0.040398        0.007074        0.047472
   7 O       -0.192010        1.403129       -0.530594        0.872535
   8 H        0.186777        0.137363       -0.006617        0.130745
  --------------------------------------------------------------------
  Sum:       -1.000000        1.703614       -1.703614        0.000000
  
  Multipole moment analysis of the density matrix
    Molecular charge:                      -1.000000
    Number of electrons:                   26.000000
      Center of electronic charge [Ang]: [  0.000000,  -0.000000,   0.078287]
    Total nuclear charge:                  25.000000
      Center of nuclear charge [Ang]:    [  0.000000,   0.000000,  -0.000000]
    Dipole moment [D]:                     9.776700
      Cartesian components [D]:          [ -0.000000,   0.000000,  -9.776700]
    RMS size of the density [Ang]:         1.976691
      Cartesian components [Ang]:        [  1.106442,   0.571545,   1.535067]
  
  Exciton analysis of the difference density matrix
    <r_h> [Ang]:                  [  0.000000,  -0.000000,  -1.460061]
    <r_e> [Ang]:                  [  0.000000,  -0.000000,   0.401522]
    |<r_e - r_h>| [Ang]:            1.861583
    Hole size [Ang]:                1.798792
      Cartesian components [Ang]: [  0.864569,   0.881144,   1.308341]
    Electron size [Ang]:            4.224730
      Cartesian components [Ang]: [  3.179448,   1.551657,   2.309073]

  Transition density matrix analysis:
  -----------------------------------
  
  CT numbers (Mulliken)
    omega =     0.8509
    <Phe> =     0.0001
  
  Exciton analysis of the transition density matrix
    Trans. dipole moment [D]:             0.118805
      Cartesian components [D]:         [ -0.000000,  -0.118805,   0.000000]
    <r_h> [Ang]:                        [ -0.000000,  -0.000000,  -1.741202]
    <r_e> [Ang]:                        [  0.000000,  -0.000000,   1.533422]
    |<r_e - r_h>| [Ang]:                  3.274624
    Hole size [Ang]:                      1.102889
      Cartesian components [Ang]:       [  0.478908,   0.826114,   0.551856]
    Electron size [Ang]:                  5.016127
      Cartesian components [Ang]:       [  4.080650,   1.931443,   2.186174]
    RMS electron-hole separation [Ang]:   6.090092
      Cartesian components [Ang]:       [  4.108362,   2.100470,   3.974746]
    Covariance(r_h, r_e) [Ang^2]:         0.005924
    Correlation coefficient:              0.001071
    Center-of-mass size [Ang]:            2.568548
      Cartesian components [Ang]:       [  2.054476,   1.050464,   1.128314]

  Decomposition into state-averaged NTOs
    H- 0 -> L+ 3: -0.5277 ( 55.7%)
    H- 0 -> L+ 4: -0.3358 ( 22.6%)
    H- 0 -> L+ 1: -0.1448 (  4.2%)
    H- 0 -> L+ 6:  0.1055 (  2.2%)
                   omega =  85.1%
  ----------------------------------------------------------------------------


  Excited state 5 (singlet, B2)                                    [converged]
  ----------------------------------------------------------------------------
  Term symbol:  5 (1) B2                                    R^2 =  4.71806e-10

  Total energy:                                           -153.8682304487 a.u.
  Excitation energy:                                               2.751477 eV

  Osc. strength:                                                      0.017830
  Trans. dip. moment [a.u.]:           [  -0.000000,    0.514298,   -0.000000]
  <i|r^2|0> [a.u.]:                    [   0.000000,    0.000000,    0.000000]

  Dip. moment [a.u.]:                  [   0.000000,   -0.000000,   -3.284731]
  Total dipole [Debye]:                                               8.348954
  <r^2> [a.u.]:                        [  85.656273,   39.879414,  259.140648]
  Total <r^2> [a.u.]:                                               384.676335

  V1^2 = 0.8696, V2^2 = 0.1304

  Important amplitudes:
      occ i      occ j       vir a       vir b          v   
    ---------------------------------------------------------
     2 (B2) A              11 (A1) A                  0.6104
     2 (B2) A              13 (A1) A                  0.1182
    ---------------------------------------------------------

  Density matrix analysis:
  ------------------------
  NOs
    Occupation of frontier NOs:
       0.9627   0.9956
    Number of electrons: 26.000000
    Number of unpaired electrons: n_u =  2.75031, n_u,nl =  2.11606
    NO participation ratio (PR_NO):  3.880406
  
  
  Mulliken Population Analysis
  Atom      Charge (e)              h+              e-           Del q
  --------------------------------------------------------------------
   1 C       -0.675401        0.032306       -0.516517       -0.484211
   2 C       -0.675401        0.032306       -0.516517       -0.484211
   3 H        0.141142        0.001510       -0.042697       -0.041187
   4 H        0.141142        0.001510       -0.042697       -0.041187
   5 H        0.023002        0.037361       -0.027477        0.009884
   6 H        0.023002        0.037361       -0.027477        0.009884
   7 O       -0.121280        1.402313       -0.459049        0.943265
   8 H        0.143795        0.134501       -0.046738        0.087763
  --------------------------------------------------------------------
  Sum:       -1.000000        1.679168       -1.679168        0.000000
  
  Multipole moment analysis of the density matrix
    Molecular charge:                      -1.000000
    Number of electrons:                   26.000000
      Center of electronic charge [Ang]: [ -0.000000,   0.000000,   0.066854]
    Total nuclear charge:                  25.000000
      Center of nuclear charge [Ang]:    [  0.000000,   0.000000,  -0.000000]
    Dipole moment [D]:                     8.348951
      Cartesian components [D]:          [  0.000000,  -0.000000,  -8.348951]
    RMS size of the density [Ang]:         2.034360
      Cartesian components [Ang]:        [  0.960493,   0.655373,   1.669299]
  
  Exciton analysis of the difference density matrix
    <r_h> [Ang]:                  [  0.000000,  -0.000000,  -1.481026]
    <r_e> [Ang]:                  [ -0.000000,  -0.000000,   0.230636]
    |<r_e - r_h>| [Ang]:            1.711662
    Hole size [Ang]:                1.790218
      Cartesian components [Ang]: [  0.850034,   0.886995,   1.302138]
    Electron size [Ang]:            4.661245
      Cartesian components [Ang]: [  2.355686,   2.008543,   3.484782]

  Transition density matrix analysis:
  -----------------------------------
  
  CT numbers (Mulliken)
    omega =     0.8544
    <Phe> =    -0.0015
  
  Exciton analysis of the transition density matrix
    Trans. dipole moment [D]:             0.653607
      Cartesian components [D]:         [ -0.000000,   0.653607,  -0.000000]
    <r_h> [Ang]:                        [ -0.000000,  -0.000000,  -1.742549]
    <r_e> [Ang]:                        [ -0.000000,  -0.000000,   1.206650]
    |<r_e - r_h>| [Ang]:                  2.949199
    Hole size [Ang]:                      1.100086
      Cartesian components [Ang]:       [  0.479217,   0.825163,   0.547399]
    Electron size [Ang]:                  5.643531
      Cartesian components [Ang]:       [  2.956015,   2.525340,   4.090730]
    RMS electron-hole separation [Ang]:   6.460224
      Cartesian components [Ang]:       [  2.994266,   2.655489,   5.071217]
    Covariance(r_h, r_e) [Ang^2]:         0.011455
    Correlation coefficient:              0.001845
    Center-of-mass size [Ang]:            2.875871
      Cartesian components [Ang]:       [  1.497474,   1.328989,   2.064460]

  Decomposition into state-averaged NTOs
    H- 0 -> L+ 1: -0.4000 ( 32.0%)
    H- 0 -> L+ 4:  0.2888 ( 16.7%)
    H- 0 -> L+ 6: -0.2873 ( 16.5%)
    H- 0 -> L+ 8: -0.2277 ( 10.4%)
    H- 0 -> L+ 0:  0.1780 (  6.3%)
    H- 0 -> L+ 3: -0.1300 (  3.4%)
                   omega =  85.4%
  ----------------------------------------------------------------------------


  Excited state 6 (singlet, B2)                                    [converged]
  ----------------------------------------------------------------------------
  Term symbol:  6 (1) B2                                    R^2 =  2.81610e-09

  Total energy:                                           -153.8584064385 a.u.
  Excitation energy:                                               3.018802 eV

  Osc. strength:                                                      0.002238
  Trans. dip. moment [a.u.]:           [   0.000000,    0.173942,   -0.000000]
  <i|r^2|0> [a.u.]:                    [  -0.000000,   -0.000000,   -0.000000]

  Dip. moment [a.u.]:                  [   0.000000,   -0.000000,   -2.860518]
  Total dipole [Debye]:                                               7.270714
  <r^2> [a.u.]:                        [  97.826264,   62.258709,  212.633017]
  Total <r^2> [a.u.]:                                               372.717989

  V1^2 = 0.8682, V2^2 = 0.1318

  Important amplitudes:
      occ i      occ j       vir a       vir b          v   
    ---------------------------------------------------------
     4 (B1) A               2 (A2) A                  0.6204
     4 (B1) A               3 (A2) A                 -0.2000
    ---------------------------------------------------------

  Density matrix analysis:
  ------------------------
  NOs
    Occupation of frontier NOs:
       0.9632   0.9956
    Number of electrons: 26.000000
    Number of unpaired electrons: n_u =  2.74814, n_u,nl =  2.11381
    NO participation ratio (PR_NO):  3.873629
  
  
  Mulliken Population Analysis
  Atom      Charge (e)              h+              e-           Del q
  --------------------------------------------------------------------
   1 C       -0.669332        0.042934       -0.521076       -0.478141
   2 C       -0.669332        0.042934       -0.521076       -0.478141
   3 H        0.133039       -0.001596       -0.047693       -0.049290
   4 H        0.133039       -0.001596       -0.047693       -0.049290
   5 H        0.039285        0.027297       -0.001130        0.026167
   6 H        0.039285        0.027297       -0.001130        0.026167
   7 O       -0.169709        1.397368       -0.502532        0.894836
   8 H        0.163724        0.131235       -0.023543        0.107692
  --------------------------------------------------------------------
  Sum:       -1.000000        1.665873       -1.665873        0.000000
  
  Multipole moment analysis of the density matrix
    Molecular charge:                      -1.000000
    Number of electrons:                   26.000000
      Center of electronic charge [Ang]: [ -0.000000,   0.000000,   0.058220]
    Total nuclear charge:                  25.000000
      Center of nuclear charge [Ang]:    [  0.000000,   0.000000,  -0.000000]
    Dipole moment [D]:                     7.270712
      Cartesian components [D]:          [  0.000000,  -0.000000,  -7.270712]
    RMS size of the density [Ang]:         2.002724
      Cartesian components [Ang]:        [  1.026460,   0.818869,   1.512196]
  
  Exciton analysis of the difference density matrix
    <r_h> [Ang]:                  [  0.000000,  -0.000000,  -1.500564]
    <r_e> [Ang]:                  [ -0.000000,   0.000000,   0.090004]
    |<r_e - r_h>| [Ang]:            1.590568
    Hole size [Ang]:                1.734739
      Cartesian components [Ang]: [  0.922572,   0.773961,   1.248665]
    Electron size [Ang]:            4.444724
      Cartesian components [Ang]: [  2.786054,   2.763027,   2.087860]

  Transition density matrix analysis:
  -----------------------------------
  
  CT numbers (Mulliken)
    omega =     0.8513
    <Phe> =    -0.0000
  
  Exciton analysis of the transition density matrix
    Trans. dipole moment [D]:             0.221059
      Cartesian components [D]:         [  0.000000,   0.221059,  -0.000000]
    <r_h> [Ang]:                        [  0.000000,  -0.000000,  -1.718748]
    <r_e> [Ang]:                        [ -0.000000,   0.000000,   1.025968]
    |<r_e - r_h>| [Ang]:                  2.744716
    Hole size [Ang]:                      1.150005
      Cartesian components [Ang]:       [  0.826017,   0.473219,   0.645190]
    Electron size [Ang]:                  5.373066
      Cartesian components [Ang]:       [  3.528972,   3.506030,   2.030750]
    RMS electron-hole separation [Ang]:   6.140935
      Cartesian components [Ang]:       [  3.622531,   3.537650,   3.474677]
    Covariance(r_h, r_e) [Ang^2]:         0.007368
    Correlation coefficient:              0.001192
    Center-of-mass size [Ang]:            2.748049
      Cartesian components [Ang]:       [  1.813089,   1.768997,   1.065424]

  Decomposition into state-averaged NTOs
    H- 1 -> L+ 2:  0.5813 ( 67.6%)
    H- 1 -> L+ 7:  0.2607 ( 13.6%)
    H- 1 -> L+ 9:  0.1374 (  3.8%)
                   omega =  85.1%
  ----------------------------------------------------------------------------


  Excited state 7 (singlet, B2)                                    [converged]
  ----------------------------------------------------------------------------
  Term symbol:  7 (1) B2                                    R^2 =  7.30969e-09

  Total energy:                                           -153.8096763394 a.u.
  Excitation energy:                                               4.344816 eV

  Osc. strength:                                                      0.026029
  Trans. dip. moment [a.u.]:           [  -0.000000,    0.494502,   -0.000000]
  <i|r^2|0> [a.u.]:                    [  -0.000000,   -0.000000,   -0.000000]

  Dip. moment [a.u.]:                  [   0.000000,    0.000000,   -0.733428]
  Total dipole [Debye]:                                               1.864189
  <r^2> [a.u.]:                        [  96.134794,   34.950409,  221.803876]
  Total <r^2> [a.u.]:                                               352.889079

  V1^2 = 0.8817, V2^2 = 0.1183

  Important amplitudes:
      occ i      occ j       vir a       vir b          v   
    ---------------------------------------------------------
     2 (B2) A              12 (A1) A                 -0.4592
     2 (B2) A              13 (A1) A                  0.4157
    ---------------------------------------------------------

  Density matrix analysis:
  ------------------------
  NOs
    Occupation of frontier NOs:
       0.9746   0.9815
    Number of electrons: 26.000000
    Number of unpaired electrons: n_u =  2.75818, n_u,nl =  2.11892
    NO participation ratio (PR_NO):  3.910932
  
  
  Mulliken Population Analysis
  Atom      Charge (e)              h+              e-           Del q
  --------------------------------------------------------------------
   1 C       -0.634140        0.036122       -0.479072       -0.442950
   2 C       -0.634140        0.036122       -0.479072       -0.442950
   3 H        0.136903        0.000946       -0.046372       -0.045426
   4 H        0.136903        0.000946       -0.046372       -0.045426
   5 H        0.072189        0.022907        0.036163        0.059070
   6 H        0.072189        0.022907        0.036163        0.059070
   7 O       -0.674603        1.315009       -0.925067        0.389942
   8 H        0.524701        0.156233        0.312436        0.468669
  --------------------------------------------------------------------
  Sum:       -1.000000        1.591193       -1.591193        0.000000
  
  Multipole moment analysis of the density matrix
    Molecular charge:                      -1.000000
    Number of electrons:                   26.000000
      Center of electronic charge [Ang]: [ -0.000000,  -0.000000,   0.014927]
    Total nuclear charge:                  25.000000
      Center of nuclear charge [Ang]:    [  0.000000,   0.000000,  -0.000000]
    Dipole moment [D]:                     1.864189
      Cartesian components [D]:          [  0.000000,   0.000000,  -1.864189]
    RMS size of the density [Ang]:         1.949489
      Cartesian components [Ang]:        [  1.017548,   0.613537,   1.545535]
  
  Exciton analysis of the difference density matrix
    <r_h> [Ang]:                  [  0.000000,  -0.000000,  -1.524726]
    <r_e> [Ang]:                  [ -0.000000,  -0.000000,  -0.566905]
    |<r_e - r_h>| [Ang]:            0.957821
    Hole size [Ang]:                1.728559
      Cartesian components [Ang]: [  0.851019,   0.881750,   1.219098]
    Electron size [Ang]:            4.084731
      Cartesian components [Ang]: [  2.768009,   1.826768,   2.384549]

  Transition density matrix analysis:
  -----------------------------------
  
  CT numbers (Mulliken)
    omega =     0.8644
    <Phe> =    -0.0080
  
  Exciton analysis of the transition density matrix
    Trans. dipole moment [D]:             0.628449
      Cartesian components [D]:         [ -0.000000,   0.628449,  -0.000000]
    <r_h> [Ang]:                        [ -0.000000,  -0.000000,  -1.730115]
    <r_e> [Ang]:                        [ -0.000000,  -0.000000,  -0.190618]
    |<r_e - r_h>| [Ang]:                  1.539497
    Hole size [Ang]:                      1.112683
      Cartesian components [Ang]:       [  0.482156,   0.819297,   0.578222]
    Electron size [Ang]:                  4.904709
      Cartesian components [Ang]:       [  3.383712,   2.218272,   2.772352]
    RMS electron-hole separation [Ang]:   5.248999
      Cartesian components [Ang]:       [  3.417600,   2.361767,   3.208435]
    Covariance(r_h, r_e) [Ang^2]:         0.056149
    Correlation coefficient:              0.010289
    Center-of-mass size [Ang]:            2.520245
      Cartesian components [Ang]:       [  1.709092,   1.183851,   1.424478]

  Decomposition into state-averaged NTOs
    H- 0 -> L+ 0:  0.4019 ( 32.3%)
    H- 0 -> L+ 4: -0.2876 ( 16.5%)
    H- 0 -> L+ 8:  0.2781 ( 15.5%)
    H- 0 -> L+ 3:  0.2331 ( 10.9%)
    H- 0 -> L+ 6: -0.1666 (  5.5%)
    H- 0 -> L+ 1: -0.1525 (  4.7%)
                   omega =  86.4%
  ----------------------------------------------------------------------------


  Excited state 8 (singlet, B2)                                    [converged]
  ----------------------------------------------------------------------------
  Term symbol:  8 (1) B2                                    R^2 =  1.47283e-07

  Total energy:                                           -153.8073112747 a.u.
  Excitation energy:                                               4.409172 eV

  Osc. strength:                                                      0.000708
  Trans. dip. moment [a.u.]:           [   0.000000,    0.080938,    0.000000]
  <i|r^2|0> [a.u.]:                    [  -0.000000,   -0.000000,   -0.000000]

  Dip. moment [a.u.]:                  [   0.000000,    0.000000,   -2.776937]
  Total dipole [Debye]:                                               7.058272
  <r^2> [a.u.]:                        [  75.455095,   39.112418,  206.210644]
  Total <r^2> [a.u.]:                                               320.778157

  V1^2 = 0.8672, V2^2 = 0.1328

  Important amplitudes:
      occ i      occ j       vir a       vir b          v   
    ---------------------------------------------------------
     4 (B1) A               3 (A2) A                  0.5998
     4 (B1) A               2 (A2) A                  0.1969
    ---------------------------------------------------------

  Density matrix analysis:
  ------------------------
  NOs
    Occupation of frontier NOs:
       0.9740   0.9855
    Number of electrons: 26.000000
    Number of unpaired electrons: n_u =  2.74434, n_u,nl =  2.10912
    NO participation ratio (PR_NO):  3.863936
  
  
  Mulliken Population Analysis
  Atom      Charge (e)              h+              e-           Del q
  --------------------------------------------------------------------
   1 C       -0.604037        0.098858       -0.511705       -0.412847
   2 C       -0.604037        0.098858       -0.511705       -0.412847
   3 H        0.107784        0.001547       -0.076092       -0.074545
   4 H        0.107784        0.001547       -0.076092       -0.074545
   5 H        0.003075        0.010560       -0.020603       -0.010043
   6 H        0.003075        0.010560       -0.020603       -0.010043
   7 O       -0.170707        1.347274       -0.453437        0.893838
   8 H        0.157064        0.120841       -0.019809        0.101032
  --------------------------------------------------------------------
  Sum:       -1.000000        1.690044       -1.690044       -0.000000
  
  Multipole moment analysis of the density matrix
    Molecular charge:                      -1.000000
    Number of electrons:                   26.000000
      Center of electronic charge [Ang]: [ -0.000000,  -0.000000,   0.056519]
    Total nuclear charge:                  25.000000
      Center of nuclear charge [Ang]:    [  0.000000,   0.000000,  -0.000000]
    Dipole moment [D]:                     7.058270
      Cartesian components [D]:          [  0.000000,   0.000000,  -7.058270]
    RMS size of the density [Ang]:         1.857873
      Cartesian components [Ang]:        [  0.901485,   0.649040,   1.489215]
  
  Exciton analysis of the difference density matrix
    <r_h> [Ang]:                  [  0.000000,  -0.000000,  -1.377000]
    <r_e> [Ang]:                  [ -0.000000,  -0.000000,   0.164650]
    |<r_e - r_h>| [Ang]:            1.541650
    Hole size [Ang]:                1.726681
      Cartesian components [Ang]: [  0.898297,   0.739524,   1.275772]
    Electron size [Ang]:            3.246479
      Cartesian components [Ang]: [  1.977956,   1.909555,   1.726532]

  Transition density matrix analysis:
  -----------------------------------
  
  CT numbers (Mulliken)
    omega =     0.8414
    <Phe> =    -0.0008
  
  Exciton analysis of the transition density matrix
    Trans. dipole moment [D]:             0.102862
      Cartesian components [D]:         [  0.000000,   0.102862,   0.000000]
    <r_h> [Ang]:                        [  0.000000,  -0.000000,  -1.690973]
    <r_e> [Ang]:                        [ -0.000000,  -0.000000,   1.009142]
    |<r_e - r_h>| [Ang]:                  2.700114
    Hole size [Ang]:                      1.182825
      Cartesian components [Ang]:       [  0.822937,   0.474439,   0.704811]
    Electron size [Ang]:                  3.716505
      Cartesian components [Ang]:       [  2.456842,   2.397226,   1.424656]
    RMS electron-hole separation [Ang]:   4.741548
      Cartesian components [Ang]:       [  2.588171,   2.443555,   3.132520]
    Covariance(r_h, r_e) [Ang^2]:         0.009915
    Correlation coefficient:              0.002255
    Center-of-mass size [Ang]:            1.951366
      Cartesian components [Ang]:       [  1.296917,   1.221946,   0.795415]

  Decomposition into state-averaged NTOs
    H- 1 -> L+ 9: -0.6274 ( 78.7%)
    H- 1 -> L+ 2:  0.1489 (  4.4%)
                   omega =  84.1%
  ----------------------------------------------------------------------------


  Excited state 9 (singlet, B2)                                    [converged]
  ----------------------------------------------------------------------------
  Term symbol:  9 (1) B2                                    R^2 =  1.86399e-08

  Total energy:                                           -153.7959872641 a.u.
  Excitation energy:                                               4.717314 eV

  Osc. strength:                                                      0.004762
  Trans. dip. moment [a.u.]:           [   0.000000,   -0.202990,    0.000000]
  <i|r^2|0> [a.u.]:                    [  -0.000000,    0.000000,    0.000000]

  Dip. moment [a.u.]:                  [  -0.000000,   -0.000000,   -0.175365]
  Total dipole [Debye]:                                               0.445733
  <r^2> [a.u.]:                        [  71.427857,   28.883528,  228.342774]
  Total <r^2> [a.u.]:                                               328.654159

  V1^2 = 0.8873, V2^2 = 0.1127

  Important amplitudes:
      occ i      occ j       vir a       vir b          v   
    ---------------------------------------------------------
     2 (B2) A              13 (A1) A                 -0.4370
     2 (B2) A              12 (A1) A                 -0.4221
    ---------------------------------------------------------

  Density matrix analysis:
  ------------------------
  NOs
    Occupation of frontier NOs:
       0.9662   0.9947
    Number of electrons: 26.000000
    Number of unpaired electrons: n_u =  2.72981, n_u,nl =  2.10659
    NO participation ratio (PR_NO):  3.818591
  
  
  Mulliken Population Analysis
  Atom      Charge (e)              h+              e-           Del q
  --------------------------------------------------------------------
   1 C       -0.430430        0.039442       -0.278682       -0.239240
   2 C       -0.430430        0.039442       -0.278682       -0.239240
   3 H        0.212030        0.004247        0.025455        0.029702
   4 H        0.212030        0.004247        0.025455        0.029702
   5 H        0.120997        0.023107        0.084772        0.107878
   6 H        0.120997        0.023107        0.084772        0.107878
   7 O       -1.477249        1.267306       -1.680010       -0.412704
   8 H        0.672055        0.178201        0.437822        0.616023
  --------------------------------------------------------------------
  Sum:       -1.000000        1.579098       -1.579098       -0.000000
  
  Multipole moment analysis of the density matrix
    Molecular charge:                      -1.000000
    Number of electrons:                   26.000000
      Center of electronic charge [Ang]: [  0.000000,   0.000000,   0.003569]
    Total nuclear charge:                  25.000000
      Center of nuclear charge [Ang]:    [  0.000000,   0.000000,  -0.000000]
    Dipole moment [D]:                     0.445733
      Cartesian components [D]:          [ -0.000000,  -0.000000,  -0.445733]
    RMS size of the density [Ang]:         1.881409
      Cartesian components [Ang]:        [  0.877098,   0.557750,   1.568220]
  
  Exciton analysis of the difference density matrix
    <r_h> [Ang]:                  [  0.000000,  -0.000000,  -1.524435]
    <r_e> [Ang]:                  [  0.000000,   0.000000,  -0.746293]
    |<r_e - r_h>| [Ang]:            0.778142
    Hole size [Ang]:                1.715423
      Cartesian components [Ang]: [  0.835261,   0.879809,   1.212828]
    Electron size [Ang]:            3.492163
      Cartesian components [Ang]: [  1.818528,   1.509106,   2.571139]

  Transition density matrix analysis:
  -----------------------------------
  
  CT numbers (Mulliken)
    omega =     0.8694
    <Phe> =    -0.0050
  
  Exciton analysis of the transition density matrix
    Trans. dipole moment [D]:             0.257974
      Cartesian components [D]:         [  0.000000,  -0.257974,   0.000000]
    <r_h> [Ang]:                        [ -0.000000,  -0.000000,  -1.740643]
    <r_e> [Ang]:                        [  0.000000,   0.000000,  -0.529728]
    |<r_e - r_h>| [Ang]:                  1.210915
    Hole size [Ang]:                      1.096431
      Cartesian components [Ang]:       [  0.476228,   0.821033,   0.548884]
    Electron size [Ang]:                  4.145531
      Cartesian components [Ang]:       [  2.157951,   1.802144,   3.046465]
    RMS electron-hole separation [Ang]:   4.447584
      Cartesian components [Ang]:       [  2.209508,   1.977346,   3.314994]
    Covariance(r_h, r_e) [Ang^2]:         0.036448
    Correlation coefficient:              0.008019
    Center-of-mass size [Ang]:            2.148283
      Cartesian components [Ang]:       [  1.105121,   0.991683,   1.552545]

  Decomposition into state-averaged NTOs
    H- 0 -> L+ 0: -0.4490 ( 40.3%)
    H- 0 -> L+ 1: -0.4101 ( 33.6%)
    H- 0 -> L+ 8:  0.1905 (  7.3%)
    H- 0 -> L+ 3:  0.1419 (  4.0%)
    H- 0 -> L+ 4: -0.0864 (  1.5%)
                   omega =  86.9%
  ----------------------------------------------------------------------------


  Excited state 10 (singlet, B2)                                    [converged]
  ----------------------------------------------------------------------------
  Term symbol:  10 (1) B2                                   R^2 =  4.64899e-06

  Total energy:                                           -153.7751305949 a.u.
  Excitation energy:                                               5.284853 eV

  Osc. strength:                                                      0.000145
  Trans. dip. moment [a.u.]:           [   0.000000,    0.033440,    0.000000]
  <i|r^2|0> [a.u.]:                    [  -0.000000,   -0.000000,    0.000000]

  Dip. moment [a.u.]:                  [   0.000000,   -0.000000,   -2.787879]
  Total dipole [Debye]:                                               7.086083
  <r^2> [a.u.]:                        [  91.444451,  128.121337,  232.969398]
  Total <r^2> [a.u.]:                                               452.535185

  V1^2 = 0.8664, V2^2 = 0.1336

  Important amplitudes:
      occ i      occ j       vir a       vir b          v   
    ---------------------------------------------------------
     7 (A1) A               3 (B2) A                  0.6477
     7 (A1) A               4 (B2) A                  0.1030
    ---------------------------------------------------------

  Density matrix analysis:
  ------------------------
  NOs
    Occupation of frontier NOs:
       0.9788   1.0003
    Number of electrons: 26.000000
    Number of unpaired electrons: n_u =  2.80347, n_u,nl =  2.13356
    NO participation ratio (PR_NO):  3.943108
  
  
  Mulliken Population Analysis
  Atom      Charge (e)              h+              e-           Del q
  --------------------------------------------------------------------
   1 C       -0.681700        0.060433       -0.550943       -0.490510
   2 C       -0.681700        0.060433       -0.550943       -0.490510
   3 H        0.145955        0.001966       -0.038340       -0.036374
   4 H        0.145955        0.001966       -0.038340       -0.036374
   5 H        0.049716        0.038872       -0.002275        0.036598
   6 H        0.049716        0.038872       -0.002275        0.036598
   7 O       -0.366580        1.223090       -0.525126        0.697964
   8 H        0.338640        0.299675       -0.017067        0.282608
  --------------------------------------------------------------------
  Sum:       -1.000000        1.725309       -1.725309       -0.000000
  
  Multipole moment analysis of the density matrix
    Molecular charge:                      -1.000000
    Number of electrons:                   26.000000
      Center of electronic charge [Ang]: [ -0.000000,   0.000000,   0.056742]
    Total nuclear charge:                  25.000000
      Center of nuclear charge [Ang]:    [  0.000000,   0.000000,  -0.000000]
    Dipole moment [D]:                     7.086081
      Cartesian components [D]:          [  0.000000,  -0.000000,  -7.086081]
    RMS size of the density [Ang]:         2.206974
      Cartesian components [Ang]:        [  0.992415,   1.174695,   1.583015]
  
  Exciton analysis of the difference density matrix
    <r_h> [Ang]:                  [  0.000000,  -0.000000,  -1.392924]
    <r_e> [Ang]:                  [ -0.000000,   0.000000,   0.120571]
    |<r_e - r_h>| [Ang]:            1.513494
    Hole size [Ang]:                1.858978
      Cartesian components [Ang]: [  0.869116,   0.798604,   1.436200]
    Electron size [Ang]:            5.686772
      Cartesian components [Ang]: [  2.528326,   4.256832,   2.797557]

  Transition density matrix analysis:
  -----------------------------------
  
  CT numbers (Mulliken)
    omega =     0.8497
    <Phe> =     0.0000
  
  Exciton analysis of the transition density matrix
    Trans. dipole moment [D]:             0.042498
      Cartesian components [D]:         [  0.000000,   0.042498,   0.000000]
    <r_h> [Ang]:                        [  0.000000,   0.000000,  -1.713347]
    <r_e> [Ang]:                        [ -0.000000,   0.000000,   1.037116]
    |<r_e - r_h>| [Ang]:                  2.750463
    Hole size [Ang]:                      1.146612
      Cartesian components [Ang]:       [  0.453527,   0.406501,   0.971488]
    Electron size [Ang]:                  7.164937
      Cartesian components [Ang]:       [  3.225178,   5.542679,   3.195819]
    RMS electron-hole separation [Ang]:   7.759486
      Cartesian components [Ang]:       [  3.256478,   5.557536,   4.326518]
    Covariance(r_h, r_e) [Ang^2]:         0.003234
    Correlation coefficient:              0.000394
    Center-of-mass size [Ang]:            3.628275
      Cartesian components [Ang]:       [  1.628670,   2.778797,   1.670359]

  Decomposition into state-averaged NTOs
    H- 2 -> L+ 5: -0.6517 ( 85.0%)
                   omega =  85.0%
  ----------------------------------------------------------------------------


--------------------------------------------------------------------------------
  Time of ADC calculation:  CPU 259.40 s  wall 69.64 s
================================================================================
 
 --------------------------------------------------------------
             Orbital Energies (a.u.) and Symmetries
 --------------------------------------------------------------
 
 Alpha MOs, Restricted
 -- Occupied --                  
-20.213 -11.049 -11.047  -0.930  -0.854  -0.598  -0.473  -0.384
  1 A1    2 A1    1 B1    3 A1    4 A1    2 B1    5 A1    6 A1                 
 -0.328  -0.271  -0.194  -0.130  -0.129
  3 B1    7 A1    1 B2    4 B1    2 B2                                         
 -- Virtual --                   
  0.088   0.098   0.098   0.098   0.105   0.119   0.162   0.165
  5 B1    3 B2    8 A1    1 A2    6 B1    9 A1   10 A1    7 B1                 
  0.185   0.187   0.189   0.202   0.269   0.293   0.299   0.333
 11 A1    4 B2    2 A2    8 B1   12 A1    9 B1    3 A2   13 A1                 
  0.339   0.347   0.372   0.380   0.428   0.452   0.452   0.483
 14 A1   10 B1    5 B2   15 A1   11 B1    4 A2    6 B2   12 B1                 
  0.512   0.527   0.551   0.580   0.675   0.675   0.695   0.904
 16 A1   17 A1   13 B1   18 A1   14 B1   19 A1   15 B1   20 A1                 
  0.988   1.062   1.081   1.083   1.126   1.132   1.179   1.204
 21 A1   22 A1   23 A1    7 B2   16 B1    5 A2   17 B1    8 B2                 
  1.218   1.237   1.291   1.320   1.335   1.336   1.370   1.468
 24 A1   18 B1    6 A2   25 A1   19 B1   26 A1    9 B2   10 B2                 
  1.483   1.523   1.564   1.645   1.699   1.719   1.858   1.926
  7 A2   20 B1   21 B1   27 A1   22 B1   11 B2   28 A1   23 B1                 
  1.983   2.042   2.126   2.134   2.135   2.206   2.212   2.302
 29 A1    8 A2   12 B2   24 B1   30 A1   31 A1   13 B2   32 A1                 
  2.359   2.393   2.440   2.493   2.557   2.604   2.756   2.758
  9 A2   14 B2   25 B1   26 B1   33 A1   10 A2   27 B1   34 A1                 
  2.846   3.010   3.038   3.093   3.469   3.563   3.922   3.945
 28 B1   35 A1   36 A1   37 A1   29 B1   30 B1   15 B2   11 A2                 
  3.970   4.089   4.539
 38 A1   31 B1   39 A1                                                         
 
 Beta MOs, Restricted
 -- Occupied --                  
-20.213 -11.049 -11.047  -0.930  -0.854  -0.598  -0.473  -0.384
  1 A1    2 A1    1 B1    3 A1    4 A1    2 B1    5 A1    6 A1                 
 -0.328  -0.271  -0.194  -0.130  -0.129
  3 B1    7 A1    1 B2    4 B1    2 B2                                         
 -- Virtual --                   
  0.088   0.098   0.098   0.098   0.105   0.119   0.162   0.165
  5 B1    3 B2    8 A1    1 A2    6 B1    9 A1   10 A1    7 B1                 
  0.185   0.187   0.189   0.202   0.269   0.293   0.299   0.333
 11 A1    4 B2    2 A2    8 B1   12 A1    9 B1    3 A2   13 A1                 
  0.339   0.347   0.372   0.380   0.428   0.452   0.452   0.483
 14 A1   10 B1    5 B2   15 A1   11 B1    4 A2    6 B2   12 B1                 
  0.512   0.527   0.551   0.580   0.675   0.675   0.695   0.904
 16 A1   17 A1   13 B1   18 A1   14 B1   19 A1   15 B1   20 A1                 
  0.988   1.062   1.081   1.083   1.126   1.132   1.179   1.204
 21 A1   22 A1   23 A1    7 B2   16 B1    5 A2   17 B1    8 B2                 
  1.218   1.237   1.291   1.320   1.335   1.336   1.370   1.468
 24 A1   18 B1    6 A2   25 A1   19 B1   26 A1    9 B2   10 B2                 
  1.483   1.523   1.564   1.645   1.699   1.719   1.858   1.926
  7 A2   20 B1   21 B1   27 A1   22 B1   11 B2   28 A1   23 B1                 
  1.983   2.042   2.126   2.134   2.135   2.206   2.212   2.302
 29 A1    8 A2   12 B2   24 B1   30 A1   31 A1   13 B2   32 A1                 
  2.359   2.393   2.440   2.493   2.557   2.604   2.756   2.758
  9 A2   14 B2   25 B1   26 B1   33 A1   10 A2   27 B1   34 A1                 
  2.846   3.010   3.038   3.093   3.469   3.563   3.922   3.945
 28 B1   35 A1   36 A1   37 A1   29 B1   30 B1   15 B2   11 A2                 
  3.970   4.089   4.539
 38 A1   31 B1   39 A1                                                         
 --------------------------------------------------------------
 
          Ground-State Mulliken Net Atomic Charges

     Atom                 Charge (a.u.)
  ----------------------------------------
      1 C                    -0.187138
      2 C                    -0.187138
      3 H                     0.176563
      4 H                     0.176563
      5 H                     0.007210
      6 H                     0.007210
      7 O                    -1.066381
      8 H                     0.073112
  ----------------------------------------
  Sum of atomic charges =    -1.000000

 -----------------------------------------------------------------
                    Cartesian Multipole Moments
 -----------------------------------------------------------------
    Charge (ESU x 10^10)
                -4.8032
    Dipole Moment (Debye)
         X       0.0000      Y       0.0000      Z       5.2816
       Tot       5.2816
    Quadrupole Moments (Debye-Ang)
        XX     -23.6744     XY       0.0000     YY     -26.4987
        XZ       0.0000     YZ      -0.0000     ZZ     -32.8720
    Octopole Moments (Debye-Ang^2)
       XXX      -0.0000    XXY       0.0000    XYY      -0.0000
       YYY       0.0000    XXZ       1.0597    XYZ       0.0000
       YYZ      -0.0480    XZZ       0.0000    YZZ       0.0000
       ZZZ       6.3202
    Hexadecapole Moments (Debye-Ang^3)
      XXXX     -88.3954   XXXY      -0.0000   XXYY     -21.8033
      XYYY       0.0000   YYYY     -39.7487   XXXZ       0.0000
      XXYZ      -0.0000   XYYZ      -0.0000   YYYZ      -0.0000
      XXZZ     -70.6670   XYZZ       0.0000   YYZZ     -65.3400
      XZZZ       0.0000   YZZZ      -0.0000   ZZZZ    -292.6134
 -----------------------------------------------------------------
 Total job time:  179.09s(wall), 308.43s(cpu) 
 Sat Mar  5 00:18:38 2022

        *************************************************************
        *                                                           *
        *  Thank you very much for using Q-Chem.  Have a nice day.  *
        *                                                           *
        *************************************************************


