                  Welcome to Q-Chem
     A Quantum Leap Into The Future Of Chemistry


 Q-Chem 5.4 (devel), Q-Chem, Inc., Pleasanton, CA (2021)

 E. Epifanovsky,  A. T. B. Gilbert,  Xintian Feng,  Joonho Lee,  Yuezhi Mao,  
 N. Mardirossian,  P. Pokhilko,  A. White,  M. Wormit,  M. P. Coons,  
 A. L. Dempwolff,  Zhengting Gan,  D. Hait,  P. R. Horn,  L. D. Jacobson,  
 I. Kaliman,  J. Kussmann,  A. W. Lange,  Ka Un Lao,  D. S. Levine,  Jie Liu,  
 S. C. McKenzie,  A. F. Morrison,  K. Nanda,  F. Plasser,  D. R. Rehn,  
 M. L. Vidal,  Zhi-Qiang You,  Ying Zhu,  B. Alam,  B. Albrecht,  
 A. Aldossary,  E. Alguire,  J. H. Andersen,  D. Barton,  K. Begam,  A. Behn,  
 Y. A. Bernard,  E. J. Berquist,  H. Burton,  A. Carreras,  K. Carter-Fenk,  
 R. Chakraborty,  A. D. Chien,  K. D. Closser,  V. Cofer-Shabica,  
 S. Dasgupta,  Jia Deng,  M. de Wergifosse,  M. Diedenhofen,  Hainam Do,  
 S. Ehlert,  Po-Tung Fang,  S. Fatehi,  Qingguo Feng,  T. Friedhoff,  
 J. Gayvert,  Qinghui Ge,  G. Gidofalvi,  M. Goldey,  J. Gomes,  
 C. Gonzalez-Espinoza,  S. Gulania,  A. Gunina,  M. W. D. Hanson-Heine,  
 P. H. P. Harbach,  A. W. Hauser,  M. F. Herbst,  M. Hernandez Vera,  
 M. Hodecker,  Z. C. Holden,  S. Houck,  Xunkun Huang,  Kerwin Hui,  
 B. C. Huynh,  M. Ivanov,  Hyunjun Ji,  Hanjie Jiang,  B. Kaduk,  S. Kaehler,  
 K. Khistyaev,  Jaehoon Kim,  P. Klunzinger,  Z. Koczor-Benda,  
 Joong Hoon Koh,  D. Kosenkov,  L. Koulias,  T. Kowalczyk,  C. M. Krauter,  
 K. Kue,  A. Kunitsa,  T. Kus,  A. Landau,  K. V. Lawler,  D. Lefrancois,  
 S. Lehtola,  Rain Li,  Yi-Pei Li,  Jiashu Liang,  M. Liebenthal,  
 Hung-Hsuan Lin,  You-Sheng Lin,  Fenglai Liu,  Kuan-Yu Liu,  
 M. Loipersberger,  A. Luenser,  A. Manjanath,  P. Manohar,  E. Mansoor,  
 S. F. Manzer,  Shan-Ping Mao,  A. V. Marenich,  T. Markovich,  S. Mason,  
 S. A. Maurer,  P. F. McLaughlin,  M. F. S. J. Menger,  J.-M. Mewes,  
 S. A. Mewes,  P. Morgante,  J. W. Mullinax,  K. J. Oosterbaan,  G. Paran,  
 Alexander C. Paul,  Suranjan K. Paul,  F. Pavosevic,  Zheng Pei,  S. Prager,  
 E. I. Proynov,  E. Ramos,  B. Rana,  A. E. Rask,  A. Rettig,  R. M. Richard,  
 F. Rob,  E. Rossomme,  T. Scheele,  M. Scheurer,  M. Schneider,  
 N. Sergueev,  S. M. Sharada,  W. Skomorowski,  D. W. Small,  C. J. Stein,  
 Yu-Chuan Su,  E. J. Sundstrom,  Zhen Tao,  J. Thirman,  T. Tsuchimochi,  
 N. M. Tubman,  S. P. Veccham,  O. Vydrov,  J. Wenzel,  J. Witte,  A. Yamada,  
 Kun Yao,  S. Yeganeh,  S. R. Yost,  A. Zech,  Igor Ying Zhang,  Xing Zhang,  
 Yu Zhang,  D. Zuev,  A. Aspuru-Guzik,  A. T. Bell,  N. A. Besley,  
 K. B. Bravaya,  B. R. Brooks,  D. Casanova,  Jeng-Da Chai,  S. Coriani,  
 C. J. Cramer,  A. E. DePrince, III,  R. A. DiStasio Jr.,  A. Dreuw,  
 B. D. Dunietz,  T. R. Furlani,  W. A. Goddard III,  S. Grimme,  
 S. Hammes-Schiffer,  T. Head-Gordon,  W. J. Hehre,  Chao-Ping Hsu,  
 T.-C. Jagau,  Yousung Jung,  A. Klamt,  Jing Kong,  D. S. Lambrecht,  
 WanZhen Liang,  N. J. Mayhall,  C. W. McCurdy,  J. B. Neaton,  
 C. Ochsenfeld,  J. A. Parkhill,  R. Peverati,  V. A. Rassolov,  Yihan Shao,  
 L. V. Slipchenko,  T. Stauch,  R. P. Steele,  J. E. Subotnik,  
 A. J. W. Thom,  A. Tkatchenko,  D. G. Truhlar,  T. Van Voorhis,  
 T. A. Wesolowski,  K. B. Whaley,  H. L. Woodcock III,  P. M. Zimmerman,  
 S. Faraji,  P. M. W. Gill,  M. Head-Gordon,  J. M. Herbert,  A. I. Krylov

 Additional authors for Version 5.4.1: 
 S. Kotaru,  Shaozhi Li,  Xiangyuan Li,  F. Matz,  A. Molle,  Haisheng Ren,  
 Yingli Su,  Hung-Yi Tsai,  C. Utku,  Fang Wang

 Contributors to earlier versions of Q-Chem not listed above: 
 R. D. Adamson,  B. Austin,  R. Baer,  J. Baker,  G. J. O. Beran,  
 K. Brandhorst,  S. T. Brown,  E. F. C. Byrd,  A. K. Chakraborty,  
 G. K. L. Chan,  Chun-Min Chang,  Yunqing Chen,  C.-L. Cheng,  
 Siu Hung Chien,  D. M. Chipman,  D. L. Crittenden,  H. Dachsel,  
 R. J. Doerksen,  A. D. Dutoi,  R. G. Edgar,  J. Fosso-Tande,  
 L. Fusti-Molnar,  D. Ghosh,  A. Ghysels,  A. Golubeva-Zadorozhnaya,  
 J. Gonthier,  M. S. Gordon,  S. R. Gwaltney,  G. Hawkins,  J. E. Herr,  
 A. Heyden,  S. Hirata,  E. G. Hohenstein,  G. Kedziora,  F. J. Keil,  
 C. Kelley,  Jihan Kim,  R. A. King,  R. Z. Khaliullin,  P. P. Korambath,  
 W. Kurlancheek,  A. Laurent,  A. M. Lee,  M. S. Lee,  S. V. Levchenko,  
 Ching Yeh Lin,  D. Liotard,  E. Livshits,  R. C. Lochan,  I. Lotan,  
 L. A. Martinez-Martinez,  P. E. Maslen,  N. Nair,  D. P. O'Neill,  
 D. Neuhauser,  E. Neuscamman,  C. M. Oana,  R. Olivares-Amaya,  R. Olson,  
 T. M. Perrine,  B. Peters,  P. A. Pieniazek,  A. Prociuk,  Y. M. Rhee,  
 J. Ritchie,  M. A. Rohrdanz,  E. Rosta,  N. J. Russ,  H. F. Schaefer III,  
 M. W. Schmidt,  N. E. Schultz,  S. Sharma,  N. Shenvi,  C. D. Sherrill,  
 A. C. Simmonett,  A. Sodt,  T. Stein,  D. Stuck,  K. S. Thanthiriwatte,  
 V. Vanovschi,  L. Vogt,  Tao Wang,  A. Warshel,  M. A. Watson,  
 C. F. Williams,  Q. Wu,  X. Xu,  Jun Yang,  W. Zhang,  Yan Zhao

 Please cite Q-Chem as follows:
 Y. Shao et al., Mol. Phys. 113, 184-215 (2015)
 DOI: 10.1080/00268976.2014.952696

 Q-Chem 5.4.1 for Intel X86 EM64T Linux

 Parts of Q-Chem use Armadillo 9.900.5 (Nocturnal Misbehaviour).
 http://arma.sourceforge.net/

 Q-Chem begins on Mon Apr  4 01:26:29 2022  

 Host: node01
0

     Scratch files written to /src/jdavis/qchem.scratch/qchem27068//
 Processing $rem in /src/tsommerfeld/qchem/config/preferences:
 Processing $rem in /home/jdavis/.qchemrc:
 Core orbitals will be frozen

 Checking the input file for inconsistencies... 	...done.

--------------------------------------------------------------
User input:
--------------------------------------------------------------
$molecule
-1 1
C        -0.6645000000    0.0000000000   -0.2082049804
C         0.6645000000    0.0000000000   -0.2082049804
H        -1.1590800000    0.0000000000    0.7541440196
H         1.1590800000    0.0000000000    0.7541440196
H        -1.1590800000    0.0000000000   -1.1705529804
H         1.1590800000    0.0000000000   -1.1705529804
O         11.6             0.0            -0.2082049804
H         10.6             0.0            -0.2082049804
$end

$rem
   JOBTYPE opt
   METHOD MP2
   BASIS gen
   PURECART 11
   THRESH 14
   S2THRESH 14
   THREADS 10
   MEM_TOTAL 95000
$end
$basis
C     1
cc-pvtz
****
C     2
cc-pvtz
****
H     3
cc-pvtz
****
H     4
cc-pvtz
****
H     5
cc-pvtz
****
H     6
cc-pvtz
****
O     7
aug-cc-pvtz
****
H     7
aug-cc-pvtz
****
$end

$opt
FIXED
1 xyz
2 xyz
3 xyz
4 xyz
5 xyz
6 xyz
7 yz
ENDFIXED
$end
--------------------------------------------------------------
 Atom   1: ( -0.0000001317,  0.0000000000,  4.8005000000)
         ->(  0.0000000000,  0.0000000000,  4.8005000000)
 Atom   2: ( -0.0000001174,  0.0000000000,  3.4715000000)
         ->(  0.0000000000,  0.0000000000,  3.4715000000)
 Atom   5: ( -0.9623481370,  0.0000000000,  5.2950799896)
         ->( -0.9623488630,  0.0000000000,  5.2950800104)
 Atom   6: ( -0.9623481121,  0.0000000000,  2.9769199896)
         ->( -0.9623488879,  0.0000000000,  2.9769200104)
 Atom   8: ( -0.0000000104,  0.0000000000, -6.4640000000)
         ->(  0.0000000000,  0.0000000000, -6.4640000000)
 ----------------------------------------------------------------
             Standard Nuclear Orientation (Angstroms)
    I     Atom           X                Y                Z
 ----------------------------------------------------------------
    1      C       0.0000000000     0.0000000000     4.8005000000
    2      C       0.0000000000     0.0000000000     3.4715000000
    3      H       0.9623488630    -0.0000000000     5.2950800104
    4      H       0.9623488879    -0.0000000000     2.9769200104
    5      H      -0.9623488630     0.0000000000     5.2950800104
    6      H      -0.9623488879     0.0000000000     2.9769200104
    7      O       0.0000000004     0.0000000000    -7.4640000000
    8      H       0.0000000000     0.0000000000    -6.4640000000
 ----------------------------------------------------------------
 Molecular Point Group                 C2v   NOp =  4
 Largest Abelian Subgroup              C2v   NOp =  4
 Nuclear Repulsion Energy =          44.48832936 hartrees
 There are       13 alpha and       13 beta electrons
 Requested basis set is non-standard
 There are 64 shells and 176 basis functions

 Total QAlloc Memory Limit  95000 MB
 Mega-Array Size       188 MB
 MEM_STATIC part       192 MB
 A cutoff of  1.0D-14 yielded   1287 shell pairs
 There are      9249 function pairs (     11827 Cartesian)
 Smallest overlap matrix eigenvalue = 6.98E-04

 Scale SEOQF with 1.000000e-01/1.000000e-01/1.000000e-02

 Standard Electronic Orientation quadrupole field applied
 Nucleus-field energy     =    -0.0000000081 hartrees
 ================ Generating on-the-fly SAD Guess ================
Attempting to make child job directory: /src/jdavis/qchem.scratch/qchem27068//Frg1/
Attempting to make child job directory: /src/jdavis/qchem.scratch/qchem27068//Frg2/
Attempting to make child job directory: /src/jdavis/qchem.scratch/qchem27068//Frg3/
Creating input file /src/jdavis/qchem.scratch/qchem27068/Frg1.input
using default PutDataFrgm: nothing
calling putenv with: QCSCRATCH=/src/jdavis/qchem.scratch/qchem27068/ 
Spawning Job For Fragment 0
Done Job For Fragment 0
calling putenv with: QCSCRATCH=/src/jdavis/qchem.scratch 
calling putenv with: QCTHREADS=1 
Creating input file /src/jdavis/qchem.scratch/qchem27068/Frg2.input
using default PutDataFrgm: nothing
calling putenv with: QCSCRATCH=/src/jdavis/qchem.scratch/qchem27068/ 
Spawning Job For Fragment 1
Done Job For Fragment 1
calling putenv with: QCSCRATCH=/src/jdavis/qchem.scratch 
calling putenv with: QCTHREADS=1 
Creating input file /src/jdavis/qchem.scratch/qchem27068/Frg3.input
using default PutDataFrgm: nothing
calling putenv with: QCSCRATCH=/src/jdavis/qchem.scratch/qchem27068/ 
Spawning Job For Fragment 2
Done Job For Fragment 2
calling putenv with: QCSCRATCH=/src/jdavis/qchem.scratch 
calling putenv with: QCTHREADS=1 
 Time for running child jobs:  CPU 1.79 s  wall 1.91 s
 ============= Method Specific SAD Guess Constructed =============
 Guess from on-the-fly superposition of atomic densities
 Warning: Energy on first SCF cycle will be non-variational

 -----------------------------------------------------------------------
  General SCF calculation program by
  Eric Jon Sundstrom, Paul Horn, Yuezhi Mao, Dmitri Zuev, Alec White,
  David Stuck, Shaama M.S., Shane Yost, Joonho Lee, David Small,
  Daniel Levine, Susi Lehtola, Hugh Burton, Evgeny Epifanovsky,
  Bang C. Huynh
 -----------------------------------------------------------------------
 Hartree-Fock
 using 10 threads for integral computing
 -------------------------------------------------------
 OpenMP Integral computing Module                
 Release: version 1.0, May 2013, Q-Chem Inc. Pittsburgh 
 -------------------------------------------------------
 A restricted SCF calculation will be
 performed using DIIS
 SCF converges when DIIS error is below 1.0e-08
 ---------------------------------------
  Cycle       Energy         DIIS error
 ---------------------------------------
    1    -153.5012122133      3.04e-02  
    2    -153.3153403141      6.36e-03  
    3    -153.3700573519      5.92e-03  
    4    -153.4683397526      3.45e-04  
    5    -153.4690990456      1.04e-04  
    6    -153.4691543979      2.31e-05  
    7    -153.4691576819      6.42e-06  
    8    -153.4691580486      2.28e-06  
    9    -153.4691581115      7.16e-07  
   10    -153.4691581183      3.37e-07  
   11    -153.4691581193      8.37e-08  
   12    -153.4691581194      9.89e-09  Convergence criterion met
 ---------------------------------------
 SCF time:   CPU 25.74s  wall 2.00s 
 SCF   energy in the final basis set =     -153.4691581194
 Total energy in the final basis set =     -153.4691581194
 
 Components of the MP2 correlation energy:
        aaaa  correlation energy =        -0.0729395164 au
        abab  correlation energy =        -0.4810246654 au
        bbbb  correlation energy =        -0.0729395164 au
        non-Brillouin singles    =        -0.0000000000 au

 Total  MP2   correlation energy =                    -0.62690370 au
        MP2         total energy =                  -154.09606182 au
  Entering Z-vector solver.
 Full subspace dimension requested for CIS/TDDFT
 MAX_CIS_SUBSPACE fits in available memory
   1         0           1      0.000347    0.000347
   2         0           1      0.000157    0.000157
   3         0           1      0.000071    0.000071
   4         0           1      0.000020    0.000020
   5         0           1      0.000003    0.000003
   6         1           0      0.000000    0.000000    Roots Converged
 
 --------------------------------------------------------------
             Orbital Energies (a.u.) and Symmetries
 --------------------------------------------------------------
 
 Alpha MOs, Restricted
 -- Occupied --                  
-20.193 -11.181 -11.179  -0.993  -0.894  -0.735  -0.614  -0.521
  1 A1    2 A1    3 A1    4 A1    5 A1    6 A1    1 B1    7 A1                 
 -0.470  -0.332  -0.244  -0.110  -0.110
  2 B1    1 B2    8 A1    3 B1    2 B2                                         
 -- Virtual --                   
  0.200   0.202   0.230   0.239   0.286   0.337   0.386   0.386
  3 B2    9 A1    4 B1   10 A1    5 B1   11 A1    6 B1    4 B2                 
  0.399   0.403   0.408   0.491   0.496   0.516   0.523   0.611
 12 A1   13 A1   14 A1    5 B2   15 A1    7 B1   16 A1    6 B2                 
  0.633   0.642   0.670   0.685   0.712   0.739   0.831   0.874
 17 A1    8 B1   18 A1   19 A1    1 A2    9 B1   20 A1    2 A2                 
  0.920   0.920   0.924   0.941   0.949   0.958   0.958   1.031
 10 B1    7 B2   21 A1    8 B2   11 B1    3 A2   22 A1   23 A1                 
  1.067   1.082   1.093   1.160   1.225   1.229   1.274   1.285
 12 B1   13 B1   24 A1   25 A1    9 B2   10 B2   26 A1   14 B1                 
  1.285   1.299   1.367   1.391   1.409   1.492   1.492   1.509
 11 B2    4 A2   27 A1   15 B1   12 B2   16 B1   13 B2   17 B1                 
  1.524   1.553   1.578   1.643   1.681   1.788   1.845   1.898
 28 A1   29 A1   30 A1   18 B1    5 A2   31 A1   32 A1   33 A1                 
  1.933   2.016   2.331   2.390   2.390   2.409   2.425   2.425
 34 A1   19 B1   35 A1    6 A2   36 A1   14 B2   15 B2   20 B1                 
  2.494   2.494   2.543   2.543   2.593   2.609   2.658   2.669
 21 B1   16 B2   37 A1    7 A2   38 A1   17 B2   39 A1   22 B1                 
  2.754   2.765   2.777   2.777   2.787   2.807   2.887   2.961
 23 B1   40 A1   24 B1   18 B2   41 A1   19 B2   25 B1    8 A2                 
  3.110   3.142   3.152   3.154   3.166   3.198   3.224   3.274
 26 B1   20 B2    9 A2   42 A1   27 B1   10 A2   43 A1   21 B2                 
  3.312   3.383   3.447   3.471   3.472   3.493   3.499   3.596
 44 A1   28 B1   22 B2   45 A1   11 A2   29 B1   46 A1   23 B2                 
  3.622   3.687   3.768   3.813   3.862   3.922   3.958   4.014
 47 A1   12 A2   30 B1   48 A1   31 B1   49 A1   32 B1   24 B2                 
  4.023   4.053   4.057   4.103   4.230   4.237   4.239   4.248
 13 A2   50 A1   33 B1   25 B2   51 A1   34 B1   52 A1   14 A2                 
  4.271   4.271   4.375   4.396   4.424   4.424   4.513   4.513
 15 A2   53 A1   26 B2   27 B2   35 B1   28 B2   36 B1   29 B2                 
  4.516   4.552   4.612   4.652   4.687   4.803   4.859   4.974
 37 B1   54 A1   55 A1   16 A2   56 A1   57 A1   30 B2   31 B2                 
  5.020   5.074   5.173   5.262   5.345   5.346   5.350   5.472
 58 A1   38 B1   39 B1   17 A2   59 A1   60 A1   61 A1   18 A2                 
  5.488   5.547   5.547   5.583   5.609   5.663   6.003   6.139
 40 B1   41 B1   32 B2   33 B2   62 A1   42 B1   63 A1   43 B1                 
  6.316   6.419   6.556   6.864   6.864   6.895   6.895   6.919
 44 B1   64 A1   65 A1   19 A2   66 A1   45 B1   34 B2   46 B1                 
  7.380   7.380   7.435   7.435   7.448   7.523   7.523   8.037
 47 B1   35 B2   67 A1   20 A2   68 A1   48 B1   36 B2   69 A1                 
 11.428  11.942  14.795
 70 A1   71 A1   72 A1                                                         
 
 Beta MOs, Restricted
 -- Occupied --                  
-20.193 -11.181 -11.179  -0.993  -0.894  -0.735  -0.614  -0.521
  1 A1    2 A1    3 A1    4 A1    5 A1    6 A1    1 B1    7 A1                 
 -0.470  -0.332  -0.244  -0.110  -0.110
  2 B1    1 B2    8 A1    3 B1    2 B2                                         
 -- Virtual --                   
  0.200   0.202   0.230   0.239   0.286   0.337   0.386   0.386
  3 B2    9 A1    4 B1   10 A1    5 B1   11 A1    6 B1    4 B2                 
  0.399   0.403   0.408   0.491   0.496   0.516   0.523   0.611
 12 A1   13 A1   14 A1    5 B2   15 A1    7 B1   16 A1    6 B2                 
  0.633   0.642   0.670   0.685   0.712   0.739   0.831   0.874
 17 A1    8 B1   18 A1   19 A1    1 A2    9 B1   20 A1    2 A2                 
  0.920   0.920   0.924   0.941   0.949   0.958   0.958   1.031
 10 B1    7 B2   21 A1    8 B2   11 B1    3 A2   22 A1   23 A1                 
  1.067   1.082   1.093   1.160   1.225   1.229   1.274   1.285
 12 B1   13 B1   24 A1   25 A1    9 B2   10 B2   26 A1   14 B1                 
  1.285   1.299   1.367   1.391   1.409   1.492   1.492   1.509
 11 B2    4 A2   27 A1   15 B1   12 B2   16 B1   13 B2   17 B1                 
  1.524   1.553   1.578   1.643   1.681   1.788   1.845   1.898
 28 A1   29 A1   30 A1   18 B1    5 A2   31 A1   32 A1   33 A1                 
  1.933   2.016   2.331   2.390   2.390   2.409   2.425   2.425
 34 A1   19 B1   35 A1    6 A2   36 A1   14 B2   15 B2   20 B1                 
  2.494   2.494   2.543   2.543   2.593   2.609   2.658   2.669
 21 B1   16 B2   37 A1    7 A2   38 A1   17 B2   39 A1   22 B1                 
  2.754   2.765   2.777   2.777   2.787   2.807   2.887   2.961
 23 B1   40 A1   24 B1   18 B2   41 A1   19 B2   25 B1    8 A2                 
  3.110   3.142   3.152   3.154   3.166   3.198   3.224   3.274
 26 B1   20 B2    9 A2   42 A1   27 B1   10 A2   43 A1   21 B2                 
  3.312   3.383   3.447   3.471   3.472   3.493   3.499   3.596
 44 A1   28 B1   22 B2   45 A1   11 A2   29 B1   46 A1   23 B2                 
  3.622   3.687   3.768   3.813   3.862   3.922   3.958   4.014
 47 A1   12 A2   30 B1   48 A1   31 B1   49 A1   32 B1   24 B2                 
  4.023   4.053   4.057   4.103   4.230   4.237   4.239   4.248
 13 A2   50 A1   33 B1   25 B2   51 A1   34 B1   52 A1   14 A2                 
  4.271   4.271   4.375   4.396   4.424   4.424   4.513   4.513
 15 A2   53 A1   26 B2   27 B2   35 B1   28 B2   36 B1   29 B2                 
  4.516   4.552   4.612   4.652   4.687   4.803   4.859   4.974
 37 B1   54 A1   55 A1   16 A2   56 A1   57 A1   30 B2   31 B2                 
  5.020   5.074   5.173   5.262   5.345   5.346   5.350   5.472
 58 A1   38 B1   39 B1   17 A2   59 A1   60 A1   61 A1   18 A2                 
  5.488   5.547   5.547   5.583   5.609   5.663   6.003   6.139
 40 B1   41 B1   32 B2   33 B2   62 A1   42 B1   63 A1   43 B1                 
  6.316   6.419   6.556   6.864   6.864   6.895   6.895   6.919
 44 B1   64 A1   65 A1   19 A2   66 A1   45 B1   34 B2   46 B1                 
  7.380   7.380   7.435   7.435   7.448   7.523   7.523   8.037
 47 B1   35 B2   67 A1   20 A2   68 A1   48 B1   36 B2   69 A1                 
 11.428  11.942  14.795
 70 A1   71 A1   72 A1                                                         
 --------------------------------------------------------------
 
          Ground-State Mulliken Net Atomic Charges

     Atom                 Charge (a.u.)
  ----------------------------------------
      1 C                    -0.308350
      2 C                    -0.300208
      3 H                     0.146606
      4 H                     0.157672
      5 H                     0.146606
      6 H                     0.157672
      7 O                    -1.155188
      8 H                     0.155188
  ----------------------------------------
  Sum of atomic charges =    -1.000000

 -----------------------------------------------------------------
                    Cartesian Multipole Moments
 -----------------------------------------------------------------
    Charge (ESU x 10^10)
                -4.8032
    Dipole Moment (Debye)
         X       0.0000      Y      -0.0000      Z      36.6794
       Tot      36.6794
    Quadrupole Moments (Debye-Ang)
        XX     -23.3189     XY       0.0000     YY     -26.9813
        XZ      -0.0000     YZ      -0.0000     ZZ    -304.7367
    Octopole Moments (Debye-Ang^2)
       XXX       0.0000    XXY       0.0000    XYY       0.0000
       YYY      -0.0000    XXZ      34.1718    XYZ       0.0000
       YYZ      19.0773    XZZ       0.0000    YZZ       0.0000
       ZZZ    2172.9498
    Hexadecapole Moments (Debye-Ang^3)
      XXXX     -50.0538   XXXY       0.0000   XXYY     -16.1238
      XYYY       0.0000   YYYY     -41.2209   XXXZ      -0.0000
      XXYZ      -0.0000   XYYZ      -0.0000   YYYZ      -0.0000
      XXZZ    -845.9294   XYZZ       0.0000   YYZZ    -909.7994
      XZZZ      -0.0000   YZZZ      -0.0000   ZZZZ  -20698.6948
 -----------------------------------------------------------------
 DrvMan is completing analytic gradient of the MP2 energy
 MP2 relaxed dipole moment
            1
    1   0.0000000
    2  -0.0000000
    3  14.4307892
	Magnitude:	14.431 au	36.679 Debye
 MP2 energy read as -154.096062
 Full Analytical Gradient of MP2 Energy (in au.)
             1             2             3             4             5
    1   -0.00000000   -0.00000000    0.00711084    0.00742529   -0.00711084
    2   -0.00000000    0.00000000   -0.00000000   -0.00000000    0.00000000
    3    0.00519935   -0.00540292   -0.00970442    0.00981499   -0.00970442
             6             7             8
    1   -0.00742529    0.00000000   -0.00000000
    2    0.00000000   -0.00000000    0.00000000
    3    0.00981499   -0.02899936    0.02898180
 Gradient time:  CPU 2.01 s  wall 0.21 s
 Geometry Optimization Parameters
   NAtoms,    NIC,     NZ,  NCons,   NDum,   NFix, NCnnct, MaxDiis
        8      63       0       0       0       7       0       0
**WARNING** Cannot use Internal Coordinates with Fixed Atoms
  Cartesian Optimization Enforced


** GEOMETRY OPTIMIZATION IN CARTESIAN COORDINATES **
   Searching for a Minimum

   Optimization Cycle:   1

                       Coordinates (Angstroms)
     ATOM                X               Y               Z
      1  C         0.0000000000    0.0000000000    4.8005000000
      2  C         0.0000000000    0.0000000000    3.4715000000
      3  H         0.9623488630    0.0000000000    5.2950800104
      4  H         0.9623488879    0.0000000000    2.9769200104
      5  H        -0.9623488630    0.0000000000    5.2950800104
      6  H        -0.9623488879    0.0000000000    2.9769200104
      7  O         0.0000000000    0.0000000000   -7.4640000000
      8  H         0.0000000000    0.0000000000   -6.4640000000
   Point Group: c2v   Number of degrees of freedom:     7


   Energy is   -154.096061818

            Atoms with "Fixed" Coordinates
                Atom    Coordinates
                     1        X  Y  Z
                     2        X  Y  Z
                     3        X  Y  Z
                     4        X  Y  Z
                     5        X  Y  Z
                     6        X  Y  Z
                     7           Y  Z

  1 Hessian modes will be used to form the next step
  Hessian Eigenvalues:
     1.000000

 Minimum search - taking simple RFO step
 Searching for Lamda that Minimizes Along All modes
 Value Taken    Lamda =  -0.00083924
 Step Taken.  Stepsize is  0.028957

                             Maximum     Tolerance    Cnvgd?
         Gradient           0.028982      0.000300      NO
         Displacement       0.025338      0.001200      NO
         Energy change     *********      0.000001      NO

 ----------------------------------------------------------------
             Standard Nuclear Orientation (Angstroms)
    I     Atom           X                Y                Z
 ----------------------------------------------------------------
    1      C       0.0000000000     0.0000000000     4.8024154559
    2      C       0.0000000000     0.0000000000     3.4734154559
    3      H       0.9623488630     0.0000000000     5.2969954663
    4      H       0.9623488879     0.0000000000     2.9788354663
    5      H      -0.9623488630     0.0000000000     5.2969954663
    6      H      -0.9623488879     0.0000000000     2.9788354663
    7      O       0.0000000000     0.0000000000    -7.4620845441
    8      H       0.0000000000     0.0000000000    -6.4774081913
 ----------------------------------------------------------------
 Molecular Point Group                 C2v   NOp =  4
 Largest Abelian Subgroup              C2v   NOp =  4
 Nuclear Repulsion Energy =          44.55303600 hartrees
 There are       13 alpha and       13 beta electrons
 Applying Cartesian multipole field
    Component          Value
    ---------          -----
     (2,0,0)        1.00000E-11
     (0,2,0)        2.00000E-11
     (0,0,2)       -3.00000E-12
 Nucleus-field energy     =    -0.0000000081 hartrees
 Read the previous MOs as SCF guess

 -----------------------------------------------------------------------
  General SCF calculation program by
  Eric Jon Sundstrom, Paul Horn, Yuezhi Mao, Dmitri Zuev, Alec White,
  David Stuck, Shaama M.S., Shane Yost, Joonho Lee, David Small,
  Daniel Levine, Susi Lehtola, Hugh Burton, Evgeny Epifanovsky,
  Bang C. Huynh
 -----------------------------------------------------------------------
 Requested basis set is non-standard
 There are 64 shells and 176 basis functions
 Hartree-Fock
 A cutoff of  1.0D-14 yielded   1287 shell pairs
 There are      9249 function pairs (     11827 Cartesian)
 Smallest overlap matrix eigenvalue = 6.98E-04
 A restricted SCF calculation will be
 performed using DIIS
 SCF converges when DIIS error is below 1.0e-08
 ---------------------------------------
  Cycle       Energy         DIIS error
 ---------------------------------------
    1    -152.8556316327      1.53e-03  
    2    -153.4692349991      5.36e-04  
    3    -153.4700955932      3.09e-04  
    4    -153.4704243277      9.97e-05  
    5    -153.4704805603      2.69e-05  
    6    -153.4704888255      1.08e-05  
    7    -153.4704904271      2.30e-06  
    8    -153.4704904951      3.24e-07  
    9    -153.4704904959      7.88e-08  
   10    -153.4704904959      3.13e-08  
   11    -153.4704904959      6.52e-09  Convergence criterion met
 ---------------------------------------
 SCF time:   CPU 28.88s  wall 3.00s 
 SCF   energy in the final basis set =     -153.4704904959
 Total energy in the final basis set =     -153.4704904959
 
 Components of the MP2 correlation energy:
        aaaa  correlation energy =        -0.0728664942 au
        abab  correlation energy =        -0.4805024849 au
        bbbb  correlation energy =        -0.0728664942 au
        non-Brillouin singles    =        -0.0000000000 au

 Total  MP2   correlation energy =                    -0.62623547 au
        MP2         total energy =                  -154.09672597 au
  Entering Z-vector solver.
 Full subspace dimension requested for CIS/TDDFT
 MAX_CIS_SUBSPACE fits in available memory
   1         0           1      0.000338    0.000338
   2         0           1      0.000150    0.000150
   3         0           1      0.000067    0.000067
   4         0           1      0.000019    0.000019
   5         0           1      0.000003    0.000003
   6         1           0      0.000000    0.000000    Roots Converged
 
 --------------------------------------------------------------
             Orbital Energies (a.u.) and Symmetries
 --------------------------------------------------------------
 
 Alpha MOs, Restricted
 -- Occupied --                  
-20.190 -11.181 -11.179  -0.993  -0.898  -0.735  -0.614  -0.521
  1 A1    2 A1    3 A1    4 A1    5 A1    6 A1    1 B1    7 A1                 
 -0.470  -0.332  -0.247  -0.109  -0.109
  2 B1    1 B2    8 A1    3 B1    2 B2                                         
 -- Virtual --                   
  0.200   0.202   0.230   0.239   0.286   0.335   0.386   0.386
  3 B2    9 A1    4 B1   10 A1    5 B1   11 A1    6 B1    4 B2                 
  0.399   0.404   0.408   0.491   0.499   0.516   0.523   0.611
 12 A1   13 A1   14 A1    5 B2   15 A1    7 B1   16 A1    6 B2                 
  0.633   0.642   0.670   0.685   0.712   0.739   0.831   0.873
 17 A1    8 B1   18 A1   19 A1    1 A2    9 B1   20 A1    2 A2                 
  0.920   0.920   0.931   0.941   0.949   0.958   0.958   1.031
 10 B1    7 B2   21 A1    8 B2   11 B1    3 A2   22 A1   23 A1                 
  1.067   1.082   1.095   1.158   1.225   1.229   1.274   1.285
 12 B1   13 B1   24 A1   25 A1    9 B2   10 B2   26 A1   14 B1                 
  1.285   1.299   1.367   1.391   1.409   1.496   1.496   1.509
 11 B2    4 A2   27 A1   15 B1   12 B2   16 B1   13 B2   17 B1                 
  1.524   1.553   1.578   1.643   1.681   1.782   1.845   1.898
 28 A1   29 A1   30 A1   18 B1    5 A2   31 A1   32 A1   33 A1                 
  1.949   2.016   2.331   2.390   2.390   2.409   2.425   2.425
 34 A1   19 B1   35 A1    6 A2   36 A1   14 B2   15 B2   20 B1                 
  2.494   2.494   2.543   2.543   2.593   2.609   2.654   2.669
 21 B1   16 B2   37 A1    7 A2   38 A1   17 B2   39 A1   22 B1                 
  2.754   2.756   2.785   2.785   2.786   2.807   2.887   2.961
 23 B1   40 A1   24 B1   18 B2   41 A1   19 B2   25 B1    8 A2                 
  3.110   3.142   3.152   3.154   3.166   3.198   3.224   3.274
 26 B1   20 B2    9 A2   42 A1   27 B1   10 A2   43 A1   21 B2                 
  3.312   3.383   3.447   3.471   3.472   3.493   3.499   3.596
 44 A1   28 B1   22 B2   45 A1   11 A2   29 B1   46 A1   23 B2                 
  3.622   3.687   3.768   3.840   3.862   3.922   3.958   4.014
 47 A1   12 A2   30 B1   48 A1   31 B1   49 A1   32 B1   24 B2                 
  4.023   4.053   4.057   4.103   4.230   4.237   4.239   4.248
 13 A2   50 A1   33 B1   25 B2   51 A1   34 B1   52 A1   14 A2                 
  4.291   4.291   4.375   4.396   4.431   4.431   4.515   4.515
 15 A2   53 A1   26 B2   27 B2   35 B1   28 B2   36 B1   29 B2                 
  4.516   4.552   4.635   4.652   4.687   4.803   4.859   4.974
 37 B1   54 A1   55 A1   16 A2   56 A1   57 A1   30 B2   31 B2                 
  5.020   5.074   5.173   5.262   5.345   5.350   5.391   5.472
 58 A1   38 B1   39 B1   17 A2   59 A1   60 A1   61 A1   18 A2                 
  5.488   5.583   5.583   5.583   5.609   5.663   6.003   6.139
 40 B1   32 B2   41 B1   33 B2   62 A1   42 B1   63 A1   43 B1                 
  6.316   6.402   6.556   6.864   6.864   6.895   6.895   6.919
 44 B1   64 A1   65 A1   19 A2   66 A1   45 B1   34 B2   46 B1                 
  7.414   7.414   7.436   7.436   7.462   7.526   7.526   8.069
 47 B1   35 B2   67 A1   20 A2   68 A1   48 B1   36 B2   69 A1                 
 11.597  11.942  14.795
 70 A1   71 A1   72 A1                                                         
 
 Beta MOs, Restricted
 -- Occupied --                  
-20.190 -11.181 -11.179  -0.993  -0.898  -0.735  -0.614  -0.521
  1 A1    2 A1    3 A1    4 A1    5 A1    6 A1    1 B1    7 A1                 
 -0.470  -0.332  -0.247  -0.109  -0.109
  2 B1    1 B2    8 A1    3 B1    2 B2                                         
 -- Virtual --                   
  0.200   0.202   0.230   0.239   0.286   0.335   0.386   0.386
  3 B2    9 A1    4 B1   10 A1    5 B1   11 A1    6 B1    4 B2                 
  0.399   0.404   0.408   0.491   0.499   0.516   0.523   0.611
 12 A1   13 A1   14 A1    5 B2   15 A1    7 B1   16 A1    6 B2                 
  0.633   0.642   0.670   0.685   0.712   0.739   0.831   0.873
 17 A1    8 B1   18 A1   19 A1    1 A2    9 B1   20 A1    2 A2                 
  0.920   0.920   0.931   0.941   0.949   0.958   0.958   1.031
 10 B1    7 B2   21 A1    8 B2   11 B1    3 A2   22 A1   23 A1                 
  1.067   1.082   1.095   1.158   1.225   1.229   1.274   1.285
 12 B1   13 B1   24 A1   25 A1    9 B2   10 B2   26 A1   14 B1                 
  1.285   1.299   1.367   1.391   1.409   1.496   1.496   1.509
 11 B2    4 A2   27 A1   15 B1   12 B2   16 B1   13 B2   17 B1                 
  1.524   1.553   1.578   1.643   1.681   1.782   1.845   1.898
 28 A1   29 A1   30 A1   18 B1    5 A2   31 A1   32 A1   33 A1                 
  1.949   2.016   2.331   2.390   2.390   2.409   2.425   2.425
 34 A1   19 B1   35 A1    6 A2   36 A1   14 B2   15 B2   20 B1                 
  2.494   2.494   2.543   2.543   2.593   2.609   2.654   2.669
 21 B1   16 B2   37 A1    7 A2   38 A1   17 B2   39 A1   22 B1                 
  2.754   2.756   2.785   2.785   2.786   2.807   2.887   2.961
 23 B1   40 A1   24 B1   18 B2   41 A1   19 B2   25 B1    8 A2                 
  3.110   3.142   3.152   3.154   3.166   3.198   3.224   3.274
 26 B1   20 B2    9 A2   42 A1   27 B1   10 A2   43 A1   21 B2                 
  3.312   3.383   3.447   3.471   3.472   3.493   3.499   3.596
 44 A1   28 B1   22 B2   45 A1   11 A2   29 B1   46 A1   23 B2                 
  3.622   3.687   3.768   3.840   3.862   3.922   3.958   4.014
 47 A1   12 A2   30 B1   48 A1   31 B1   49 A1   32 B1   24 B2                 
  4.023   4.053   4.057   4.103   4.230   4.237   4.239   4.248
 13 A2   50 A1   33 B1   25 B2   51 A1   34 B1   52 A1   14 A2                 
  4.291   4.291   4.375   4.396   4.431   4.431   4.515   4.515
 15 A2   53 A1   26 B2   27 B2   35 B1   28 B2   36 B1   29 B2                 
  4.516   4.552   4.635   4.652   4.687   4.803   4.859   4.974
 37 B1   54 A1   55 A1   16 A2   56 A1   57 A1   30 B2   31 B2                 
  5.020   5.074   5.173   5.262   5.345   5.350   5.391   5.472
 58 A1   38 B1   39 B1   17 A2   59 A1   60 A1   61 A1   18 A2                 
  5.488   5.583   5.583   5.583   5.609   5.663   6.003   6.139
 40 B1   32 B2   41 B1   33 B2   62 A1   42 B1   63 A1   43 B1                 
  6.316   6.402   6.556   6.864   6.864   6.895   6.895   6.919
 44 B1   64 A1   65 A1   19 A2   66 A1   45 B1   34 B2   46 B1                 
  7.414   7.414   7.436   7.436   7.462   7.526   7.526   8.069
 47 B1   35 B2   67 A1   20 A2   68 A1   48 B1   36 B2   69 A1                 
 11.597  11.942  14.795
 70 A1   71 A1   72 A1                                                         
 --------------------------------------------------------------
 
          Ground-State Mulliken Net Atomic Charges

     Atom                 Charge (a.u.)
  ----------------------------------------
      1 C                    -0.308350
      2 C                    -0.300207
      3 H                     0.146609
      4 H                     0.157670
      5 H                     0.146609
      6 H                     0.157670
      7 O                    -1.153572
      8 H                     0.153572
  ----------------------------------------
  Sum of atomic charges =    -1.000000

 -----------------------------------------------------------------
                    Cartesian Multipole Moments
 -----------------------------------------------------------------
    Charge (ESU x 10^10)
                -4.8032
    Dipole Moment (Debye)
         X       0.0000      Y      -0.0000      Z      36.6866
       Tot      36.6866
    Quadrupole Moments (Debye-Ang)
        XX     -23.2928     XY      -0.0000     YY     -26.9552
        XZ      -0.0000     YZ      -0.0000     ZZ    -304.8338
    Octopole Moments (Debye-Ang^2)
       XXX       0.0000    XXY      -0.0000    XYY       0.0000
       YYY       0.0000    XXZ      33.9702    XYZ       0.0000
       YYZ      18.8686    XZZ       0.0000    YZZ      -0.0000
       ZZZ    2173.8862
    Hexadecapole Moments (Debye-Ang^3)
      XXXX     -49.9889   XXXY      -0.0000   XXYY     -16.1021
      XYYY      -0.0000   YYYY     -41.1560   XXXZ      -0.0000
      XXYZ      -0.0000   XYYZ      -0.0000   YYYZ      -0.0000
      XXZZ    -844.8432   XYZZ      -0.0000   YYZZ    -908.7716
      XZZZ      -0.0000   YZZZ      -0.0000   ZZZZ  -20709.4457
 -----------------------------------------------------------------
 DrvMan is completing analytic gradient of the MP2 energy
 MP2 relaxed dipole moment
            1
    1   0.0000000
    2  -0.0000000
    3  14.4336137
	Magnitude:	14.434 au	36.687 Debye
 MP2 energy read as -154.096726
 Full Analytical Gradient of MP2 Energy (in au.)
             1             2             3             4             5
    1    0.00000000    0.00000000    0.00711090    0.00742528   -0.00711090
    2    0.00000000   -0.00000000   -0.00000000    0.00000000    0.00000000
    3    0.00519864   -0.00540206   -0.00970436    0.00981484   -0.00970436
             6             7             8
    1   -0.00742528   -0.00000000    0.00000000
    2   -0.00000000    0.00000000   -0.00000000
    3    0.00981484   -0.01633941    0.01632188
 Gradient time:  CPU 1.46 s  wall 0.15 s
 Geometry Optimization Parameters
   NAtoms,    NIC,     NZ,  NCons,   NDum,   NFix, NCnnct, MaxDiis
        8      63       0       0       0       7       0       0

 Cartesian Hessian Update
 Hessian updated using BFGS update


** GEOMETRY OPTIMIZATION IN CARTESIAN COORDINATES **
   Searching for a Minimum

   Optimization Cycle:   2

                       Coordinates (Angstroms)
     ATOM                X               Y               Z
      1  C         0.0000000000    0.0000000000    4.8024154559
      2  C         0.0000000000    0.0000000000    3.4734154559
      3  H         0.9623488630    0.0000000000    5.2969954663
      4  H         0.9623488879    0.0000000000    2.9788354663
      5  H        -0.9623488630    0.0000000000    5.2969954663
      6  H        -0.9623488879    0.0000000000    2.9788354663
      7  O         0.0000000000    0.0000000000   -7.4620845441
      8  H         0.0000000000    0.0000000000   -6.4774081913
   Point Group: c2v   Number of degrees of freedom:     7


   Energy is   -154.096725969

            Atoms with "Fixed" Coordinates
                Atom    Coordinates
                     1        X  Y  Z
                     2        X  Y  Z
                     3        X  Y  Z
                     4        X  Y  Z
                     5        X  Y  Z
                     6        X  Y  Z
                     7           Y  Z

  1 Hessian modes will be used to form the next step
  Hessian Eigenvalues:
     0.499645

 Minimum search - taking simple RFO step
 Searching for Lamda that Minimizes Along All modes
 Value Taken    Lamda =  -0.00053262
 Step Taken.  Stepsize is  0.032632

                             Maximum     Tolerance    Cnvgd?
         Gradient           0.016322      0.000300      NO
         Displacement       0.028553      0.001200      NO
         Energy change     -0.000664      0.000001      NO

 ----------------------------------------------------------------
             Standard Nuclear Orientation (Angstroms)
    I     Atom           X                Y                Z
 ----------------------------------------------------------------
    1      C       0.0000000000     0.0000000000     4.8045739792
    2      C       0.0000000000     0.0000000000     3.4755739792
    3      H       0.9623488630     0.0000000000     5.2991539896
    4      H       0.9623488879     0.0000000000     2.9809939896
    5      H      -0.9623488630     0.0000000000     5.2991539896
    6      H      -0.9623488879     0.0000000000     2.9809939896
    7      O       0.0000000000     0.0000000000    -7.4599260208
    8      H       0.0000000000     0.0000000000    -6.4925178546
 ----------------------------------------------------------------
 Molecular Point Group                 C2v   NOp =  4
 Largest Abelian Subgroup              C2v   NOp =  4
 Nuclear Repulsion Energy =          44.62846404 hartrees
 There are       13 alpha and       13 beta electrons
 Applying Cartesian multipole field
    Component          Value
    ---------          -----
     (2,0,0)        1.00000E-11
     (0,2,0)        2.00000E-11
     (0,0,2)       -3.00000E-12
 Nucleus-field energy     =    -0.0000000081 hartrees
 Read the previous MOs as SCF guess

 -----------------------------------------------------------------------
  General SCF calculation program by
  Eric Jon Sundstrom, Paul Horn, Yuezhi Mao, Dmitri Zuev, Alec White,
  David Stuck, Shaama M.S., Shane Yost, Joonho Lee, David Small,
  Daniel Levine, Susi Lehtola, Hugh Burton, Evgeny Epifanovsky,
  Bang C. Huynh
 -----------------------------------------------------------------------
 Requested basis set is non-standard
 There are 64 shells and 176 basis functions
 Hartree-Fock
 A cutoff of  1.0D-14 yielded   1283 shell pairs
 There are      9237 function pairs (     11815 Cartesian)
 Smallest overlap matrix eigenvalue = 6.98E-04
 A restricted SCF calculation will be
 performed using DIIS
 SCF converges when DIIS error is below 1.0e-08
 ---------------------------------------
  Cycle       Energy         DIIS error
 ---------------------------------------
    1    -152.8579397704      1.54e-03  
    2    -153.4703334948      5.38e-04  
    3    -153.4711659885      3.08e-04  
    4    -153.4714862906      9.64e-05  
    5    -153.4715357163      2.50e-05  
    6    -153.4715425486      1.01e-05  
    7    -153.4715438974      2.22e-06  
    8    -153.4715439622      3.17e-07  
    9    -153.4715439629      7.66e-08  
   10    -153.4715439630      3.06e-08  
   11    -153.4715439630      6.50e-09  Convergence criterion met
 ---------------------------------------
 SCF time:   CPU 28.45s  wall 3.00s 
 SCF   energy in the final basis set =     -153.4715439630
 Total energy in the final basis set =     -153.4715439630
 
 Components of the MP2 correlation energy:
        aaaa  correlation energy =        -0.0727780258 au
        abab  correlation energy =        -0.4799042902 au
        bbbb  correlation energy =        -0.0727780258 au
        non-Brillouin singles    =        -0.0000000000 au

 Total  MP2   correlation energy =                    -0.62546034 au
        MP2         total energy =                  -154.09700430 au
  Entering Z-vector solver.
 Full subspace dimension requested for CIS/TDDFT
 MAX_CIS_SUBSPACE fits in available memory
   1         0           1      0.000328    0.000328
   2         0           1      0.000143    0.000143
   3         0           1      0.000063    0.000063
   4         0           1      0.000018    0.000018
   5         0           1      0.000003    0.000003
   6         1           0      0.000000    0.000000    Roots Converged
 
 --------------------------------------------------------------
             Orbital Energies (a.u.) and Symmetries
 --------------------------------------------------------------
 
 Alpha MOs, Restricted
 -- Occupied --                  
-20.187 -11.181 -11.179  -0.993  -0.902  -0.735  -0.614  -0.521
  1 A1    2 A1    3 A1    4 A1    5 A1    6 A1    1 B1    7 A1                 
 -0.470  -0.332  -0.251  -0.109  -0.109
  2 B1    1 B2    8 A1    3 B1    2 B2                                         
 -- Virtual --                   
  0.200   0.202   0.230   0.239   0.286   0.333   0.387   0.387
  3 B2    9 A1    4 B1   10 A1    5 B1   11 A1    6 B1    4 B2                 
  0.399   0.404   0.408   0.491   0.501   0.516   0.523   0.611
 12 A1   13 A1   14 A1    5 B2   15 A1    7 B1   16 A1    6 B2                 
  0.633   0.642   0.670   0.685   0.712   0.739   0.831   0.873
 17 A1    8 B1   18 A1   19 A1    1 A2    9 B1   20 A1    2 A2                 
  0.920   0.920   0.939   0.941   0.949   0.958   0.958   1.031
 10 B1    7 B2   21 A1    8 B2   11 B1    3 A2   22 A1   23 A1                 
  1.067   1.082   1.098   1.156   1.225   1.229   1.274   1.285
 12 B1   13 B1   24 A1   25 A1    9 B2   10 B2   26 A1   14 B1                 
  1.285   1.299   1.367   1.391   1.409   1.502   1.502   1.509
 11 B2    4 A2   27 A1   15 B1   12 B2   16 B1   13 B2   17 B1                 
  1.524   1.553   1.578   1.643   1.681   1.775   1.845   1.898
 28 A1   29 A1   30 A1   18 B1    5 A2   31 A1   32 A1   33 A1                 
  1.970   2.016   2.331   2.390   2.390   2.409   2.425   2.425
 34 A1   19 B1   35 A1    6 A2   36 A1   14 B2   15 B2   20 B1                 
  2.494   2.494   2.543   2.543   2.593   2.609   2.648   2.669
 21 B1   16 B2   37 A1    7 A2   38 A1   17 B2   39 A1   22 B1                 
  2.751   2.754   2.786   2.793   2.793   2.807   2.887   2.961
 40 A1   23 B1   41 A1   24 B1   18 B2   19 B2   25 B1    8 A2                 
  3.110   3.141   3.152   3.154   3.166   3.198   3.224   3.274
 26 B1   20 B2    9 A2   42 A1   27 B1   10 A2   43 A1   21 B2                 
  3.312   3.383   3.447   3.471   3.472   3.493   3.499   3.596
 44 A1   28 B1   22 B2   45 A1   11 A2   29 B1   46 A1   23 B2                 
  3.622   3.687   3.768   3.862   3.870   3.922   3.958   4.014
 47 A1   12 A2   30 B1   31 B1   48 A1   49 A1   32 B1   24 B2                 
  4.023   4.053   4.057   4.103   4.230   4.237   4.239   4.248
 13 A2   50 A1   33 B1   25 B2   51 A1   34 B1   52 A1   14 A2                 
  4.314   4.314   4.375   4.396   4.440   4.440   4.516   4.518
 15 A2   53 A1   26 B2   27 B2   35 B1   28 B2   36 B1   37 B1                 
  4.518   4.552   4.652   4.660   4.687   4.803   4.859   4.974
 29 B2   54 A1   16 A2   55 A1   56 A1   57 A1   30 B2   31 B2                 
  5.020   5.074   5.173   5.262   5.345   5.350   5.444   5.472
 58 A1   38 B1   39 B1   17 A2   59 A1   60 A1   61 A1   18 A2                 
  5.488   5.583   5.609   5.622   5.622   5.663   6.003   6.139
 40 B1   32 B2   62 A1   41 B1   33 B2   42 B1   63 A1   43 B1                 
  6.316   6.387   6.556   6.865   6.865   6.895   6.895   6.919
 44 B1   64 A1   65 A1   19 A2   66 A1   45 B1   34 B2   46 B1                 
  7.437   7.437   7.442   7.442   7.483   7.542   7.542   8.106
 67 A1   20 A2   47 B1   35 B2   68 A1   48 B1   36 B2   69 A1                 
 11.797  11.942  14.795
 70 A1   71 A1   72 A1                                                         
 
 Beta MOs, Restricted
 -- Occupied --                  
-20.187 -11.181 -11.179  -0.993  -0.902  -0.735  -0.614  -0.521
  1 A1    2 A1    3 A1    4 A1    5 A1    6 A1    1 B1    7 A1                 
 -0.470  -0.332  -0.251  -0.109  -0.109
  2 B1    1 B2    8 A1    3 B1    2 B2                                         
 -- Virtual --                   
  0.200   0.202   0.230   0.239   0.286   0.333   0.387   0.387
  3 B2    9 A1    4 B1   10 A1    5 B1   11 A1    6 B1    4 B2                 
  0.399   0.404   0.408   0.491   0.501   0.516   0.523   0.611
 12 A1   13 A1   14 A1    5 B2   15 A1    7 B1   16 A1    6 B2                 
  0.633   0.642   0.670   0.685   0.712   0.739   0.831   0.873
 17 A1    8 B1   18 A1   19 A1    1 A2    9 B1   20 A1    2 A2                 
  0.920   0.920   0.939   0.941   0.949   0.958   0.958   1.031
 10 B1    7 B2   21 A1    8 B2   11 B1    3 A2   22 A1   23 A1                 
  1.067   1.082   1.098   1.156   1.225   1.229   1.274   1.285
 12 B1   13 B1   24 A1   25 A1    9 B2   10 B2   26 A1   14 B1                 
  1.285   1.299   1.367   1.391   1.409   1.502   1.502   1.509
 11 B2    4 A2   27 A1   15 B1   12 B2   16 B1   13 B2   17 B1                 
  1.524   1.553   1.578   1.643   1.681   1.775   1.845   1.898
 28 A1   29 A1   30 A1   18 B1    5 A2   31 A1   32 A1   33 A1                 
  1.970   2.016   2.331   2.390   2.390   2.409   2.425   2.425
 34 A1   19 B1   35 A1    6 A2   36 A1   14 B2   15 B2   20 B1                 
  2.494   2.494   2.543   2.543   2.593   2.609   2.648   2.669
 21 B1   16 B2   37 A1    7 A2   38 A1   17 B2   39 A1   22 B1                 
  2.751   2.754   2.786   2.793   2.793   2.807   2.887   2.961
 40 A1   23 B1   41 A1   24 B1   18 B2   19 B2   25 B1    8 A2                 
  3.110   3.141   3.152   3.154   3.166   3.198   3.224   3.274
 26 B1   20 B2    9 A2   42 A1   27 B1   10 A2   43 A1   21 B2                 
  3.312   3.383   3.447   3.471   3.472   3.493   3.499   3.596
 44 A1   28 B1   22 B2   45 A1   11 A2   29 B1   46 A1   23 B2                 
  3.622   3.687   3.768   3.862   3.870   3.922   3.958   4.014
 47 A1   12 A2   30 B1   31 B1   48 A1   49 A1   32 B1   24 B2                 
  4.023   4.053   4.057   4.103   4.230   4.237   4.239   4.248
 13 A2   50 A1   33 B1   25 B2   51 A1   34 B1   52 A1   14 A2                 
  4.314   4.314   4.375   4.396   4.440   4.440   4.516   4.518
 15 A2   53 A1   26 B2   27 B2   35 B1   28 B2   36 B1   37 B1                 
  4.518   4.552   4.652   4.660   4.687   4.803   4.859   4.974
 29 B2   54 A1   16 A2   55 A1   56 A1   57 A1   30 B2   31 B2                 
  5.020   5.074   5.173   5.262   5.345   5.350   5.444   5.472
 58 A1   38 B1   39 B1   17 A2   59 A1   60 A1   61 A1   18 A2                 
  5.488   5.583   5.609   5.622   5.622   5.663   6.003   6.139
 40 B1   32 B2   62 A1   41 B1   33 B2   42 B1   63 A1   43 B1                 
  6.316   6.387   6.556   6.865   6.865   6.895   6.895   6.919
 44 B1   64 A1   65 A1   19 A2   66 A1   45 B1   34 B2   46 B1                 
  7.437   7.437   7.442   7.442   7.483   7.542   7.542   8.106
 67 A1   20 A2   47 B1   35 B2   68 A1   48 B1   36 B2   69 A1                 
 11.797  11.942  14.795
 70 A1   71 A1   72 A1                                                         
 --------------------------------------------------------------
 
          Ground-State Mulliken Net Atomic Charges

     Atom                 Charge (a.u.)
  ----------------------------------------
      1 C                    -0.308350
      2 C                    -0.300207
      3 H                     0.146612
      4 H                     0.157667
      5 H                     0.146612
      6 H                     0.157667
      7 O                    -1.151473
      8 H                     0.151473
  ----------------------------------------
  Sum of atomic charges =    -1.000000

 -----------------------------------------------------------------
                    Cartesian Multipole Moments
 -----------------------------------------------------------------
    Charge (ESU x 10^10)
                -4.8032
    Dipole Moment (Debye)
         X      -0.0000      Y       0.0000      Z      36.6945
       Tot      36.6945
    Quadrupole Moments (Debye-Ang)
        XX     -23.2625     XY       0.0000     YY     -26.9249
        XZ       0.0000     YZ      -0.0000     ZZ    -304.9405
    Octopole Moments (Debye-Ang^2)
       XXX       0.0000    XXY       0.0000    XYY      -0.0000
       YYY       0.0000    XXZ      33.7360    XYZ      -0.0000
       YYZ      18.6264    XZZ       0.0000    YZZ       0.0000
       ZZZ    2174.9017
    Hexadecapole Moments (Debye-Ang^3)
      XXXX     -49.9114   XXXY       0.0000   XXYY     -16.0763
      XYYY       0.0000   YYYY     -41.0786   XXXZ       0.0000
      XXYZ      -0.0000   XYYZ      -0.0000   YYYZ      -0.0000
      XXZZ    -843.5652   XYZZ       0.0000   YYZZ    -907.5594
      XZZZ       0.0000   YZZZ      -0.0000   ZZZZ  -20721.0709
 -----------------------------------------------------------------
 DrvMan is completing analytic gradient of the MP2 energy
 MP2 relaxed dipole moment
            1
    1  -0.0000000
    2   0.0000000
    3  14.4367452
	Magnitude:	14.437 au	36.695 Debye
 MP2 energy read as -154.097004
 Full Analytical Gradient of MP2 Energy (in au.)
             1             2             3             4             5
    1    0.00000000   -0.00000000    0.00711097    0.00742527   -0.00711097
    2   -0.00000000    0.00000000    0.00000000   -0.00000000    0.00000000
    3    0.00519787   -0.00540113   -0.00970429    0.00981467   -0.00970429
             6             7             8
    1   -0.00742527   -0.00000000    0.00000000
    2    0.00000000    0.00000000   -0.00000000
    3    0.00981467   -0.00039530    0.00037780
 Gradient time:  CPU 1.48 s  wall 0.15 s
 Geometry Optimization Parameters
   NAtoms,    NIC,     NZ,  NCons,   NDum,   NFix, NCnnct, MaxDiis
        8      63       0       0       0       7       0       0

 Cartesian Hessian Update
 Hessian updated using BFGS update


** GEOMETRY OPTIMIZATION IN CARTESIAN COORDINATES **
   Searching for a Minimum

   Optimization Cycle:   3

                       Coordinates (Angstroms)
     ATOM                X               Y               Z
      1  C         0.0000000000    0.0000000000    4.8045739792
      2  C         0.0000000000    0.0000000000    3.4755739792
      3  H         0.9623488630    0.0000000000    5.2991539896
      4  H         0.9623488879    0.0000000000    2.9809939896
      5  H        -0.9623488630    0.0000000000    5.2991539896
      6  H        -0.9623488879    0.0000000000    2.9809939896
      7  O         0.0000000000    0.0000000000   -7.4599260208
      8  H         0.0000000000    0.0000000000   -6.4925178546
   Point Group: c2v   Number of degrees of freedom:     7


   Energy is   -154.097004305

            Atoms with "Fixed" Coordinates
                Atom    Coordinates
                     1        X  Y  Z
                     2        X  Y  Z
                     3        X  Y  Z
                     4        X  Y  Z
                     5        X  Y  Z
                     6        X  Y  Z
                     7           Y  Z

  1 Hessian modes will be used to form the next step
  Hessian Eigenvalues:
     0.558401

 Minimum search - taking simple RFO step
 Searching for Lamda that Minimizes Along All modes
 Value Taken    Lamda =  -0.00000026
 Step Taken.  Stepsize is  0.000677

                             Maximum     Tolerance    Cnvgd?
         Gradient           0.000378      0.000300      NO
         Displacement       0.000592      0.001200     YES
         Energy change     -0.000278      0.000001      NO

 ----------------------------------------------------------------
             Standard Nuclear Orientation (Angstroms)
    I     Atom           X                Y                Z
 ----------------------------------------------------------------
    1      C       0.0000000000     0.0000000000     4.8046187325
    2      C       0.0000000000     0.0000000000     3.4756187325
    3      H       0.9623488630     0.0000000000     5.2991987428
    4      H       0.9623488879     0.0000000000     2.9810387428
    5      H      -0.9623488630     0.0000000000     5.2991987428
    6      H      -0.9623488879     0.0000000000     2.9810387428
    7      O       0.0000000000     0.0000000000    -7.4598812675
    8      H       0.0000000000     0.0000000000    -6.4928311272
 ----------------------------------------------------------------
 Molecular Point Group                 C2v   NOp =  4
 Largest Abelian Subgroup              C2v   NOp =  4
 Nuclear Repulsion Energy =          44.63005696 hartrees
 There are       13 alpha and       13 beta electrons
 Applying Cartesian multipole field
    Component          Value
    ---------          -----
     (2,0,0)        1.00000E-11
     (0,2,0)        2.00000E-11
     (0,0,2)       -3.00000E-12
 Nucleus-field energy     =    -0.0000000081 hartrees
 Read the previous MOs as SCF guess

 -----------------------------------------------------------------------
  General SCF calculation program by
  Eric Jon Sundstrom, Paul Horn, Yuezhi Mao, Dmitri Zuev, Alec White,
  David Stuck, Shaama M.S., Shane Yost, Joonho Lee, David Small,
  Daniel Levine, Susi Lehtola, Hugh Burton, Evgeny Epifanovsky,
  Bang C. Huynh
 -----------------------------------------------------------------------
 Requested basis set is non-standard
 There are 64 shells and 176 basis functions
 Hartree-Fock
 A cutoff of  1.0D-14 yielded   1283 shell pairs
 There are      9237 function pairs (     11815 Cartesian)
 Smallest overlap matrix eigenvalue = 6.98E-04
 A restricted SCF calculation will be
 performed using DIIS
 SCF converges when DIIS error is below 1.0e-08
 ---------------------------------------
  Cycle       Energy         DIIS error
 ---------------------------------------
    1    -152.8517000340      1.48e-03  
    2    -153.4703756976      5.20e-04  
    3    -153.4711895752      3.00e-04  
    4    -153.4714991706      9.57e-05  
    5    -153.4715514752      2.61e-05  
    6    -153.4715589185      1.04e-05  
    7    -153.4715603610      2.03e-06  
    8    -153.4715604152      2.51e-07  
    9    -153.4715604156      7.26e-08  
   10    -153.4715604157      2.54e-08  
   11    -153.4715604157      4.99e-09  Convergence criterion met
 ---------------------------------------
 SCF time:   CPU 28.46s  wall 3.00s 
 SCF   energy in the final basis set =     -153.4715604157
 Total energy in the final basis set =     -153.4715604157
 
 Components of the MP2 correlation energy:
        aaaa  correlation energy =        -0.0727761262 au
        abab  correlation energy =        -0.4798917919 au
        bbbb  correlation energy =        -0.0727761262 au
        non-Brillouin singles    =        -0.0000000000 au

 Total  MP2   correlation energy =                    -0.62544404 au
        MP2         total energy =                  -154.09700446 au
  Entering Z-vector solver.
 Full subspace dimension requested for CIS/TDDFT
 MAX_CIS_SUBSPACE fits in available memory
   1         0           1      0.000328    0.000328
   2         0           1      0.000143    0.000143
   3         0           1      0.000063    0.000063
   4         0           1      0.000018    0.000018
   5         0           1      0.000003    0.000003
   6         1           0      0.000000    0.000000    Roots Converged
 
 --------------------------------------------------------------
             Orbital Energies (a.u.) and Symmetries
 --------------------------------------------------------------
 
 Alpha MOs, Restricted
 -- Occupied --                  
-20.187 -11.181 -11.179  -0.993  -0.902  -0.735  -0.614  -0.521
  1 A1    2 A1    3 A1    4 A1    5 A1    6 A1    1 B1    7 A1                 
 -0.470  -0.332  -0.251  -0.109  -0.109
  2 B1    1 B2    8 A1    3 B1    2 B2                                         
 -- Virtual --                   
  0.200   0.202   0.230   0.239   0.286   0.333   0.387   0.387
  3 B2    9 A1    4 B1   10 A1    5 B1   11 A1    6 B1    4 B2                 
  0.399   0.404   0.408   0.491   0.501   0.516   0.523   0.611
 12 A1   13 A1   14 A1    5 B2   15 A1    7 B1   16 A1    6 B2                 
  0.633   0.642   0.670   0.685   0.712   0.739   0.831   0.873
 17 A1    8 B1   18 A1   19 A1    1 A2    9 B1   20 A1    2 A2                 
  0.920   0.920   0.939   0.941   0.949   0.958   0.958   1.031
 10 B1    7 B2   21 A1    8 B2   11 B1    3 A2   22 A1   23 A1                 
  1.067   1.082   1.098   1.156   1.225   1.229   1.274   1.285
 12 B1   13 B1   24 A1   25 A1    9 B2   10 B2   26 A1   14 B1                 
  1.285   1.299   1.367   1.391   1.409   1.502   1.502   1.509
 11 B2    4 A2   27 A1   15 B1   12 B2   16 B1   13 B2   17 B1                 
  1.524   1.553   1.578   1.643   1.681   1.774   1.845   1.898
 28 A1   29 A1   30 A1   18 B1    5 A2   31 A1   32 A1   33 A1                 
  1.971   2.016   2.331   2.390   2.390   2.409   2.425   2.425
 34 A1   19 B1   35 A1    6 A2   36 A1   14 B2   15 B2   20 B1                 
  2.494   2.494   2.543   2.543   2.593   2.609   2.648   2.669
 21 B1   16 B2   37 A1    7 A2   38 A1   17 B2   39 A1   22 B1                 
  2.751   2.754   2.786   2.793   2.793   2.807   2.887   2.961
 40 A1   23 B1   41 A1   24 B1   18 B2   19 B2   25 B1    8 A2                 
  3.110   3.141   3.152   3.154   3.166   3.198   3.224   3.274
 26 B1   20 B2    9 A2   42 A1   27 B1   10 A2   43 A1   21 B2                 
  3.312   3.383   3.447   3.471   3.472   3.493   3.499   3.596
 44 A1   28 B1   22 B2   45 A1   11 A2   29 B1   46 A1   23 B2                 
  3.622   3.687   3.768   3.862   3.871   3.922   3.958   4.014
 47 A1   12 A2   30 B1   31 B1   48 A1   49 A1   32 B1   24 B2                 
  4.023   4.053   4.057   4.103   4.230   4.237   4.239   4.248
 13 A2   50 A1   33 B1   25 B2   51 A1   34 B1   52 A1   14 A2                 
  4.314   4.314   4.375   4.396   4.440   4.440   4.516   4.518
 15 A2   53 A1   26 B2   27 B2   35 B1   28 B2   36 B1   37 B1                 
  4.518   4.552   4.652   4.661   4.687   4.803   4.859   4.974
 29 B2   54 A1   16 A2   55 A1   56 A1   57 A1   30 B2   31 B2                 
  5.020   5.074   5.173   5.262   5.345   5.350   5.445   5.472
 58 A1   38 B1   39 B1   17 A2   59 A1   60 A1   61 A1   18 A2                 
  5.488   5.583   5.609   5.623   5.623   5.663   6.003   6.139
 40 B1   32 B2   62 A1   41 B1   33 B2   42 B1   63 A1   43 B1                 
  6.316   6.387   6.556   6.865   6.865   6.895   6.895   6.919
 44 B1   64 A1   65 A1   19 A2   66 A1   45 B1   34 B2   46 B1                 
  7.437   7.437   7.442   7.442   7.484   7.543   7.543   8.107
 67 A1   20 A2   47 B1   35 B2   68 A1   48 B1   36 B2   69 A1                 
 11.802  11.942  14.795
 70 A1   71 A1   72 A1                                                         
 
 Beta MOs, Restricted
 -- Occupied --                  
-20.187 -11.181 -11.179  -0.993  -0.902  -0.735  -0.614  -0.521
  1 A1    2 A1    3 A1    4 A1    5 A1    6 A1    1 B1    7 A1                 
 -0.470  -0.332  -0.251  -0.109  -0.109
  2 B1    1 B2    8 A1    3 B1    2 B2                                         
 -- Virtual --                   
  0.200   0.202   0.230   0.239   0.286   0.333   0.387   0.387
  3 B2    9 A1    4 B1   10 A1    5 B1   11 A1    6 B1    4 B2                 
  0.399   0.404   0.408   0.491   0.501   0.516   0.523   0.611
 12 A1   13 A1   14 A1    5 B2   15 A1    7 B1   16 A1    6 B2                 
  0.633   0.642   0.670   0.685   0.712   0.739   0.831   0.873
 17 A1    8 B1   18 A1   19 A1    1 A2    9 B1   20 A1    2 A2                 
  0.920   0.920   0.939   0.941   0.949   0.958   0.958   1.031
 10 B1    7 B2   21 A1    8 B2   11 B1    3 A2   22 A1   23 A1                 
  1.067   1.082   1.098   1.156   1.225   1.229   1.274   1.285
 12 B1   13 B1   24 A1   25 A1    9 B2   10 B2   26 A1   14 B1                 
  1.285   1.299   1.367   1.391   1.409   1.502   1.502   1.509
 11 B2    4 A2   27 A1   15 B1   12 B2   16 B1   13 B2   17 B1                 
  1.524   1.553   1.578   1.643   1.681   1.774   1.845   1.898
 28 A1   29 A1   30 A1   18 B1    5 A2   31 A1   32 A1   33 A1                 
  1.971   2.016   2.331   2.390   2.390   2.409   2.425   2.425
 34 A1   19 B1   35 A1    6 A2   36 A1   14 B2   15 B2   20 B1                 
  2.494   2.494   2.543   2.543   2.593   2.609   2.648   2.669
 21 B1   16 B2   37 A1    7 A2   38 A1   17 B2   39 A1   22 B1                 
  2.751   2.754   2.786   2.793   2.793   2.807   2.887   2.961
 40 A1   23 B1   41 A1   24 B1   18 B2   19 B2   25 B1    8 A2                 
  3.110   3.141   3.152   3.154   3.166   3.198   3.224   3.274
 26 B1   20 B2    9 A2   42 A1   27 B1   10 A2   43 A1   21 B2                 
  3.312   3.383   3.447   3.471   3.472   3.493   3.499   3.596
 44 A1   28 B1   22 B2   45 A1   11 A2   29 B1   46 A1   23 B2                 
  3.622   3.687   3.768   3.862   3.871   3.922   3.958   4.014
 47 A1   12 A2   30 B1   31 B1   48 A1   49 A1   32 B1   24 B2                 
  4.023   4.053   4.057   4.103   4.230   4.237   4.239   4.248
 13 A2   50 A1   33 B1   25 B2   51 A1   34 B1   52 A1   14 A2                 
  4.314   4.314   4.375   4.396   4.440   4.440   4.516   4.518
 15 A2   53 A1   26 B2   27 B2   35 B1   28 B2   36 B1   37 B1                 
  4.518   4.552   4.652   4.661   4.687   4.803   4.859   4.974
 29 B2   54 A1   16 A2   55 A1   56 A1   57 A1   30 B2   31 B2                 
  5.020   5.074   5.173   5.262   5.345   5.350   5.445   5.472
 58 A1   38 B1   39 B1   17 A2   59 A1   60 A1   61 A1   18 A2                 
  5.488   5.583   5.609   5.623   5.623   5.663   6.003   6.139
 40 B1   32 B2   62 A1   41 B1   33 B2   42 B1   63 A1   43 B1                 
  6.316   6.387   6.556   6.865   6.865   6.895   6.895   6.919
 44 B1   64 A1   65 A1   19 A2   66 A1   45 B1   34 B2   46 B1                 
  7.437   7.437   7.442   7.442   7.484   7.543   7.543   8.107
 67 A1   20 A2   47 B1   35 B2   68 A1   48 B1   36 B2   69 A1                 
 11.802  11.942  14.795
 70 A1   71 A1   72 A1                                                         
 --------------------------------------------------------------
 
          Ground-State Mulliken Net Atomic Charges

     Atom                 Charge (a.u.)
  ----------------------------------------
      1 C                    -0.308350
      2 C                    -0.300207
      3 H                     0.146612
      4 H                     0.157666
      5 H                     0.146612
      6 H                     0.157666
      7 O                    -1.151427
      8 H                     0.151427
  ----------------------------------------
  Sum of atomic charges =    -1.000000

 -----------------------------------------------------------------
                    Cartesian Multipole Moments
 -----------------------------------------------------------------
    Charge (ESU x 10^10)
                -4.8032
    Dipole Moment (Debye)
         X      -0.0000      Y      -0.0000      Z      36.6947
       Tot      36.6947
    Quadrupole Moments (Debye-Ang)
        XX     -23.2618     XY       0.0000     YY     -26.9242
        XZ      -0.0000     YZ      -0.0000     ZZ    -304.9427
    Octopole Moments (Debye-Ang^2)
       XXX      -0.0000    XXY      -0.0000    XYY      -0.0000
       YYY      -0.0000    XXZ      33.7310    XYZ      -0.0000
       YYZ      18.6213    XZZ      -0.0000    YZZ      -0.0000
       ZZZ    2174.9222
    Hexadecapole Moments (Debye-Ang^3)
      XXXX     -49.9098   XXXY       0.0000   XXYY     -16.0758
      XYYY       0.0000   YYYY     -41.0770   XXXZ      -0.0000
      XXYZ      -0.0000   XYYZ      -0.0000   YYYZ      -0.0000
      XXZZ    -843.5381   XYZZ       0.0000   YYZZ    -907.5337
      XZZZ      -0.0000   YZZZ      -0.0000   ZZZZ  -20721.3052
 -----------------------------------------------------------------
 DrvMan is completing analytic gradient of the MP2 energy
 MP2 relaxed dipole moment
            1
    1  -0.0000000
    2  -0.0000000
    3  14.4368092
	Magnitude:	14.437 au	36.695 Debye
 MP2 energy read as -154.097004
 Full Analytical Gradient of MP2 Energy (in au.)
             1             2             3             4             5
    1   -0.00000000    0.00000000    0.00711098    0.00742526   -0.00711098
    2   -0.00000000   -0.00000000    0.00000000    0.00000000    0.00000000
    3    0.00519786   -0.00540111   -0.00970429    0.00981467   -0.00970429
             6             7             8
    1   -0.00742526    0.00000000   -0.00000000
    2    0.00000000   -0.00000000    0.00000000
    3    0.00981467   -0.00004454    0.00002703
 Gradient time:  CPU 1.55 s  wall 0.16 s
 Geometry Optimization Parameters
   NAtoms,    NIC,     NZ,  NCons,   NDum,   NFix, NCnnct, MaxDiis
        8      63       0       0       0       7       0       0

 Cartesian Hessian Update
 Hessian updated using BFGS update


** GEOMETRY OPTIMIZATION IN CARTESIAN COORDINATES **
   Searching for a Minimum

   Optimization Cycle:   4

                       Coordinates (Angstroms)
     ATOM                X               Y               Z
      1  C         0.0000000000    0.0000000000    4.8046187325
      2  C         0.0000000000    0.0000000000    3.4756187325
      3  H         0.9623488630    0.0000000000    5.2991987428
      4  H         0.9623488879    0.0000000000    2.9810387428
      5  H        -0.9623488630    0.0000000000    5.2991987428
      6  H        -0.9623488879    0.0000000000    2.9810387428
      7  O         0.0000000000    0.0000000000   -7.4598812675
      8  H         0.0000000000    0.0000000000   -6.4928311272
   Point Group: c2v   Number of degrees of freedom:     7


   Energy is   -154.097004460

            Atoms with "Fixed" Coordinates
                Atom    Coordinates
                     1        X  Y  Z
                     2        X  Y  Z
                     3        X  Y  Z
                     4        X  Y  Z
                     5        X  Y  Z
                     6        X  Y  Z
                     7           Y  Z

  1 Hessian modes will be used to form the next step
  Hessian Eigenvalues:
     0.592505

 Minimum search - taking simple RFO step
 Searching for Lamda that Minimizes Along All modes
 Value Taken    Lamda =  -0.00000000
 Step Taken.  Stepsize is  0.000046

                             Maximum     Tolerance    Cnvgd?
         Gradient           0.000027      0.000300     YES
         Displacement       0.000040      0.001200     YES
         Energy change     -0.000000      0.000001     YES


                       Distance Matrix (Angstroms)
             C (  1)   C (  2)   H (  3)   H (  4)   H (  5)   H (  6)
   C (  2)  1.329000
   H (  3)  1.082000  2.061931
   H (  4)  2.061931  1.082000  2.318160
   H (  5)  1.082000  2.061931  1.924698  3.013026
   H (  6)  2.061931  1.082000  3.013026  1.924698  2.318160
   O (  7) 12.264500 10.935500 12.795321 10.485176 12.795321 10.485176
   H (  8) 11.297450  9.968450 11.831233  9.522622 11.831233  9.522622
             O (  7)
   H (  8)  0.967050
 
 Final energy is   -154.097004459937     


 ******************************
 **  OPTIMIZATION CONVERGED  **
 ******************************

                       Coordinates (Angstroms)
     ATOM                X               Y               Z
      1  C         0.0000000000    0.0000000000    4.8046187325
      2  C         0.0000000000    0.0000000000    3.4756187325
      3  H         0.9623488630    0.0000000000    5.2991987428
      4  H         0.9623488879    0.0000000000    2.9810387428
      5  H        -0.9623488630    0.0000000000    5.2991987428
      6  H        -0.9623488879    0.0000000000    2.9810387428
      7  O         0.0000000000    0.0000000000   -7.4598812675
      8  H         0.0000000000    0.0000000000   -6.4928311272

Z-matrix Print:
$molecule
-1 1
C 
H  1 1.082000
H  1 1.082000 2 125.600015
C  1 1.329000 2 117.199993 3 -180.000000 0
H  4 1.082000 1 117.199994 2 -0.000000 0
H  4 1.082000 1 117.199994 2 -180.000000 0
H  2 9.522622 1 111.399823 3 -0.000000 0
O  7 0.967050 2 174.199831 1 -180.000000 0
$end

 
 --------------------------------------------------------------
             Orbital Energies (a.u.) and Symmetries
 --------------------------------------------------------------
 
 Alpha MOs, Restricted
 -- Occupied --                  
-20.187 -11.181 -11.179  -0.993  -0.902  -0.735  -0.614  -0.521
  1 A1    2 A1    3 A1    4 A1    5 A1    6 A1    1 B1    7 A1                 
 -0.470  -0.332  -0.251  -0.109  -0.109
  2 B1    1 B2    8 A1    3 B1    2 B2                                         
 -- Virtual --                   
  0.200   0.202   0.230   0.239   0.286   0.333   0.387   0.387
  3 B2    9 A1    4 B1   10 A1    5 B1   11 A1    6 B1    4 B2                 
  0.399   0.404   0.408   0.491   0.501   0.516   0.523   0.611
 12 A1   13 A1   14 A1    5 B2   15 A1    7 B1   16 A1    6 B2                 
  0.633   0.642   0.670   0.685   0.712   0.739   0.831   0.873
 17 A1    8 B1   18 A1   19 A1    1 A2    9 B1   20 A1    2 A2                 
  0.920   0.920   0.939   0.941   0.949   0.958   0.958   1.031
 10 B1    7 B2   21 A1    8 B2   11 B1    3 A2   22 A1   23 A1                 
  1.067   1.082   1.098   1.156   1.225   1.229   1.274   1.285
 12 B1   13 B1   24 A1   25 A1    9 B2   10 B2   26 A1   14 B1                 
  1.285   1.299   1.367   1.391   1.409   1.502   1.502   1.509
 11 B2    4 A2   27 A1   15 B1   12 B2   16 B1   13 B2   17 B1                 
  1.524   1.553   1.578   1.643   1.681   1.774   1.845   1.898
 28 A1   29 A1   30 A1   18 B1    5 A2   31 A1   32 A1   33 A1                 
  1.971   2.016   2.331   2.390   2.390   2.409   2.425   2.425
 34 A1   19 B1   35 A1    6 A2   36 A1   14 B2   15 B2   20 B1                 
  2.494   2.494   2.543   2.543   2.593   2.609   2.648   2.669
 21 B1   16 B2   37 A1    7 A2   38 A1   17 B2   39 A1   22 B1                 
  2.751   2.754   2.786   2.793   2.793   2.807   2.887   2.961
 40 A1   23 B1   41 A1   24 B1   18 B2   19 B2   25 B1    8 A2                 
  3.110   3.141   3.152   3.154   3.166   3.198   3.224   3.274
 26 B1   20 B2    9 A2   42 A1   27 B1   10 A2   43 A1   21 B2                 
  3.312   3.383   3.447   3.471   3.472   3.493   3.499   3.596
 44 A1   28 B1   22 B2   45 A1   11 A2   29 B1   46 A1   23 B2                 
  3.622   3.687   3.768   3.862   3.871   3.922   3.958   4.014
 47 A1   12 A2   30 B1   31 B1   48 A1   49 A1   32 B1   24 B2                 
  4.023   4.053   4.057   4.103   4.230   4.237   4.239   4.248
 13 A2   50 A1   33 B1   25 B2   51 A1   34 B1   52 A1   14 A2                 
  4.314   4.314   4.375   4.396   4.440   4.440   4.516   4.518
 15 A2   53 A1   26 B2   27 B2   35 B1   28 B2   36 B1   37 B1                 
  4.518   4.552   4.652   4.661   4.687   4.803   4.859   4.974
 29 B2   54 A1   16 A2   55 A1   56 A1   57 A1   30 B2   31 B2                 
  5.020   5.074   5.173   5.262   5.345   5.350   5.445   5.472
 58 A1   38 B1   39 B1   17 A2   59 A1   60 A1   61 A1   18 A2                 
  5.488   5.583   5.609   5.623   5.623   5.663   6.003   6.139
 40 B1   32 B2   62 A1   41 B1   33 B2   42 B1   63 A1   43 B1                 
  6.316   6.387   6.556   6.865   6.865   6.895   6.895   6.919
 44 B1   64 A1   65 A1   19 A2   66 A1   45 B1   34 B2   46 B1                 
  7.437   7.437   7.442   7.442   7.484   7.543   7.543   8.107
 67 A1   20 A2   47 B1   35 B2   68 A1   48 B1   36 B2   69 A1                 
 11.802  11.942  14.795
 70 A1   71 A1   72 A1                                                         
 
 Beta MOs, Restricted
 -- Occupied --                  
-20.187 -11.181 -11.179  -0.993  -0.902  -0.735  -0.614  -0.521
  1 A1    2 A1    3 A1    4 A1    5 A1    6 A1    1 B1    7 A1                 
 -0.470  -0.332  -0.251  -0.109  -0.109
  2 B1    1 B2    8 A1    3 B1    2 B2                                         
 -- Virtual --                   
  0.200   0.202   0.230   0.239   0.286   0.333   0.387   0.387
  3 B2    9 A1    4 B1   10 A1    5 B1   11 A1    6 B1    4 B2                 
  0.399   0.404   0.408   0.491   0.501   0.516   0.523   0.611
 12 A1   13 A1   14 A1    5 B2   15 A1    7 B1   16 A1    6 B2                 
  0.633   0.642   0.670   0.685   0.712   0.739   0.831   0.873
 17 A1    8 B1   18 A1   19 A1    1 A2    9 B1   20 A1    2 A2                 
  0.920   0.920   0.939   0.941   0.949   0.958   0.958   1.031
 10 B1    7 B2   21 A1    8 B2   11 B1    3 A2   22 A1   23 A1                 
  1.067   1.082   1.098   1.156   1.225   1.229   1.274   1.285
 12 B1   13 B1   24 A1   25 A1    9 B2   10 B2   26 A1   14 B1                 
  1.285   1.299   1.367   1.391   1.409   1.502   1.502   1.509
 11 B2    4 A2   27 A1   15 B1   12 B2   16 B1   13 B2   17 B1                 
  1.524   1.553   1.578   1.643   1.681   1.774   1.845   1.898
 28 A1   29 A1   30 A1   18 B1    5 A2   31 A1   32 A1   33 A1                 
  1.971   2.016   2.331   2.390   2.390   2.409   2.425   2.425
 34 A1   19 B1   35 A1    6 A2   36 A1   14 B2   15 B2   20 B1                 
  2.494   2.494   2.543   2.543   2.593   2.609   2.648   2.669
 21 B1   16 B2   37 A1    7 A2   38 A1   17 B2   39 A1   22 B1                 
  2.751   2.754   2.786   2.793   2.793   2.807   2.887   2.961
 40 A1   23 B1   41 A1   24 B1   18 B2   19 B2   25 B1    8 A2                 
  3.110   3.141   3.152   3.154   3.166   3.198   3.224   3.274
 26 B1   20 B2    9 A2   42 A1   27 B1   10 A2   43 A1   21 B2                 
  3.312   3.383   3.447   3.471   3.472   3.493   3.499   3.596
 44 A1   28 B1   22 B2   45 A1   11 A2   29 B1   46 A1   23 B2                 
  3.622   3.687   3.768   3.862   3.871   3.922   3.958   4.014
 47 A1   12 A2   30 B1   31 B1   48 A1   49 A1   32 B1   24 B2                 
  4.023   4.053   4.057   4.103   4.230   4.237   4.239   4.248
 13 A2   50 A1   33 B1   25 B2   51 A1   34 B1   52 A1   14 A2                 
  4.314   4.314   4.375   4.396   4.440   4.440   4.516   4.518
 15 A2   53 A1   26 B2   27 B2   35 B1   28 B2   36 B1   37 B1                 
  4.518   4.552   4.652   4.661   4.687   4.803   4.859   4.974
 29 B2   54 A1   16 A2   55 A1   56 A1   57 A1   30 B2   31 B2                 
  5.020   5.074   5.173   5.262   5.345   5.350   5.445   5.472
 58 A1   38 B1   39 B1   17 A2   59 A1   60 A1   61 A1   18 A2                 
  5.488   5.583   5.609   5.623   5.623   5.663   6.003   6.139
 40 B1   32 B2   62 A1   41 B1   33 B2   42 B1   63 A1   43 B1                 
  6.316   6.387   6.556   6.865   6.865   6.895   6.895   6.919
 44 B1   64 A1   65 A1   19 A2   66 A1   45 B1   34 B2   46 B1                 
  7.437   7.437   7.442   7.442   7.484   7.543   7.543   8.107
 67 A1   20 A2   47 B1   35 B2   68 A1   48 B1   36 B2   69 A1                 
 11.802  11.942  14.795
 70 A1   71 A1   72 A1                                                         
 --------------------------------------------------------------
 
          Ground-State Mulliken Net Atomic Charges

     Atom                 Charge (a.u.)
  ----------------------------------------
      1 C                    -0.308350
      2 C                    -0.300207
      3 H                     0.146612
      4 H                     0.157666
      5 H                     0.146612
      6 H                     0.157666
      7 O                    -1.151427
      8 H                     0.151427
  ----------------------------------------
  Sum of atomic charges =    -1.000000

 -----------------------------------------------------------------
                    Cartesian Multipole Moments
 -----------------------------------------------------------------
    Charge (ESU x 10^10)
                -4.8032
    Dipole Moment (Debye)
         X      -0.0000      Y      -0.0000      Z      36.6947
       Tot      36.6947
    Quadrupole Moments (Debye-Ang)
        XX     -23.2618     XY       0.0000     YY     -26.9242
        XZ      -0.0000     YZ      -0.0000     ZZ    -304.9427
    Octopole Moments (Debye-Ang^2)
       XXX      -0.0000    XXY      -0.0000    XYY      -0.0000
       YYY      -0.0000    XXZ      33.7310    XYZ      -0.0000
       YYZ      18.6213    XZZ      -0.0000    YZZ      -0.0000
       ZZZ    2174.9222
    Hexadecapole Moments (Debye-Ang^3)
      XXXX     -49.9098   XXXY       0.0000   XXYY     -16.0758
      XYYY       0.0000   YYYY     -41.0770   XXXZ      -0.0000
      XXYZ      -0.0000   XYYZ      -0.0000   YYYZ      -0.0000
      XXZZ    -843.5381   XYZZ       0.0000   YYZZ    -907.5337
      XZZZ      -0.0000   YZZZ      -0.0000   ZZZZ  -20721.3052
 -----------------------------------------------------------------
 Total job time:  75.88s(wall), 429.31s(cpu) 
 Mon Apr  4 01:27:45 2022

        *************************************************************
        *                                                           *
        *  Thank you very much for using Q-Chem.  Have a nice day.  *
        *                                                           *
        *************************************************************


