/src/tsommerfeld/qchem/exe/qcprog.exe .cap.inp.13412.qcin.1 /src/jdavis/qchem.scratch/qchem13412/

                  Welcome to Q-Chem
     A Quantum Leap Into The Future Of Chemistry


 Q-Chem 5.4 (devel), Q-Chem, Inc., Pleasanton, CA (2021)

 E. Epifanovsky,  A. T. B. Gilbert,  Xintian Feng,  Joonho Lee,  Yuezhi Mao,  
 N. Mardirossian,  P. Pokhilko,  A. White,  M. Wormit,  M. P. Coons,  
 A. L. Dempwolff,  Zhengting Gan,  D. Hait,  P. R. Horn,  L. D. Jacobson,  
 I. Kaliman,  J. Kussmann,  A. W. Lange,  Ka Un Lao,  D. S. Levine,  Jie Liu,  
 S. C. McKenzie,  A. F. Morrison,  K. Nanda,  F. Plasser,  D. R. Rehn,  
 M. L. Vidal,  Zhi-Qiang You,  Ying Zhu,  B. Alam,  B. Albrecht,  
 A. Aldossary,  E. Alguire,  J. H. Andersen,  D. Barton,  K. Begam,  A. Behn,  
 Y. A. Bernard,  E. J. Berquist,  H. Burton,  A. Carreras,  K. Carter-Fenk,  
 R. Chakraborty,  A. D. Chien,  K. D. Closser,  V. Cofer-Shabica,  
 S. Dasgupta,  Jia Deng,  M. de Wergifosse,  M. Diedenhofen,  Hainam Do,  
 S. Ehlert,  Po-Tung Fang,  S. Fatehi,  Qingguo Feng,  T. Friedhoff,  
 J. Gayvert,  Qinghui Ge,  G. Gidofalvi,  M. Goldey,  J. Gomes,  
 C. Gonzalez-Espinoza,  S. Gulania,  A. Gunina,  M. W. D. Hanson-Heine,  
 P. H. P. Harbach,  A. W. Hauser,  M. F. Herbst,  M. Hernandez Vera,  
 M. Hodecker,  Z. C. Holden,  S. Houck,  Xunkun Huang,  Kerwin Hui,  
 B. C. Huynh,  M. Ivanov,  Hyunjun Ji,  Hanjie Jiang,  B. Kaduk,  S. Kaehler,  
 K. Khistyaev,  Jaehoon Kim,  P. Klunzinger,  Z. Koczor-Benda,  
 Joong Hoon Koh,  D. Kosenkov,  L. Koulias,  T. Kowalczyk,  C. M. Krauter,  
 K. Kue,  A. Kunitsa,  T. Kus,  A. Landau,  K. V. Lawler,  D. Lefrancois,  
 S. Lehtola,  Rain Li,  Yi-Pei Li,  Jiashu Liang,  M. Liebenthal,  
 Hung-Hsuan Lin,  You-Sheng Lin,  Fenglai Liu,  Kuan-Yu Liu,  
 M. Loipersberger,  A. Luenser,  A. Manjanath,  P. Manohar,  E. Mansoor,  
 S. F. Manzer,  Shan-Ping Mao,  A. V. Marenich,  T. Markovich,  S. Mason,  
 S. A. Maurer,  P. F. McLaughlin,  M. F. S. J. Menger,  J.-M. Mewes,  
 S. A. Mewes,  P. Morgante,  J. W. Mullinax,  K. J. Oosterbaan,  G. Paran,  
 Alexander C. Paul,  Suranjan K. Paul,  F. Pavosevic,  Zheng Pei,  S. Prager,  
 E. I. Proynov,  E. Ramos,  B. Rana,  A. E. Rask,  A. Rettig,  R. M. Richard,  
 F. Rob,  E. Rossomme,  T. Scheele,  M. Scheurer,  M. Schneider,  
 N. Sergueev,  S. M. Sharada,  W. Skomorowski,  D. W. Small,  C. J. Stein,  
 Yu-Chuan Su,  E. J. Sundstrom,  Zhen Tao,  J. Thirman,  T. Tsuchimochi,  
 N. M. Tubman,  S. P. Veccham,  O. Vydrov,  J. Wenzel,  J. Witte,  A. Yamada,  
 Kun Yao,  S. Yeganeh,  S. R. Yost,  A. Zech,  Igor Ying Zhang,  Xing Zhang,  
 Yu Zhang,  D. Zuev,  A. Aspuru-Guzik,  A. T. Bell,  N. A. Besley,  
 K. B. Bravaya,  B. R. Brooks,  D. Casanova,  Jeng-Da Chai,  S. Coriani,  
 C. J. Cramer,  A. E. DePrince, III,  R. A. DiStasio Jr.,  A. Dreuw,  
 B. D. Dunietz,  T. R. Furlani,  W. A. Goddard III,  S. Grimme,  
 S. Hammes-Schiffer,  T. Head-Gordon,  W. J. Hehre,  Chao-Ping Hsu,  
 T.-C. Jagau,  Yousung Jung,  A. Klamt,  Jing Kong,  D. S. Lambrecht,  
 WanZhen Liang,  N. J. Mayhall,  C. W. McCurdy,  J. B. Neaton,  
 C. Ochsenfeld,  J. A. Parkhill,  R. Peverati,  V. A. Rassolov,  Yihan Shao,  
 L. V. Slipchenko,  T. Stauch,  R. P. Steele,  J. E. Subotnik,  
 A. J. W. Thom,  A. Tkatchenko,  D. G. Truhlar,  T. Van Voorhis,  
 T. A. Wesolowski,  K. B. Whaley,  H. L. Woodcock III,  P. M. Zimmerman,  
 S. Faraji,  P. M. W. Gill,  M. Head-Gordon,  J. M. Herbert,  A. I. Krylov

 Additional authors for Version 5.4.1: 
 S. Kotaru,  Shaozhi Li,  Xiangyuan Li,  F. Matz,  A. Molle,  Haisheng Ren,  
 Yingli Su,  Hung-Yi Tsai,  C. Utku,  Fang Wang

 Contributors to earlier versions of Q-Chem not listed above: 
 R. D. Adamson,  B. Austin,  R. Baer,  J. Baker,  G. J. O. Beran,  
 K. Brandhorst,  S. T. Brown,  E. F. C. Byrd,  A. K. Chakraborty,  
 G. K. L. Chan,  Chun-Min Chang,  Yunqing Chen,  C.-L. Cheng,  
 Siu Hung Chien,  D. M. Chipman,  D. L. Crittenden,  H. Dachsel,  
 R. J. Doerksen,  A. D. Dutoi,  R. G. Edgar,  J. Fosso-Tande,  
 L. Fusti-Molnar,  D. Ghosh,  A. Ghysels,  A. Golubeva-Zadorozhnaya,  
 J. Gonthier,  M. S. Gordon,  S. R. Gwaltney,  G. Hawkins,  J. E. Herr,  
 A. Heyden,  S. Hirata,  E. G. Hohenstein,  G. Kedziora,  F. J. Keil,  
 C. Kelley,  Jihan Kim,  R. A. King,  R. Z. Khaliullin,  P. P. Korambath,  
 W. Kurlancheek,  A. Laurent,  A. M. Lee,  M. S. Lee,  S. V. Levchenko,  
 Ching Yeh Lin,  D. Liotard,  E. Livshits,  R. C. Lochan,  I. Lotan,  
 L. A. Martinez-Martinez,  P. E. Maslen,  N. Nair,  D. P. O'Neill,  
 D. Neuhauser,  E. Neuscamman,  C. M. Oana,  R. Olivares-Amaya,  R. Olson,  
 T. M. Perrine,  B. Peters,  P. A. Pieniazek,  A. Prociuk,  Y. M. Rhee,  
 J. Ritchie,  M. A. Rohrdanz,  E. Rosta,  N. J. Russ,  H. F. Schaefer III,  
 M. W. Schmidt,  N. E. Schultz,  S. Sharma,  N. Shenvi,  C. D. Sherrill,  
 A. C. Simmonett,  A. Sodt,  T. Stein,  D. Stuck,  K. S. Thanthiriwatte,  
 V. Vanovschi,  L. Vogt,  Tao Wang,  A. Warshel,  M. A. Watson,  
 C. F. Williams,  Q. Wu,  X. Xu,  Jun Yang,  W. Zhang,  Yan Zhao

 Please cite Q-Chem as follows:
 Y. Shao et al., Mol. Phys. 113, 184-215 (2015)
 DOI: 10.1080/00268976.2014.952696

 Q-Chem 5.4.1 for Intel X86 EM64T Linux

 Parts of Q-Chem use Armadillo 9.900.5 (Nocturnal Misbehaviour).
 http://arma.sourceforge.net/

 Q-Chem begins on Mon Mar 28 00:45:43 2022  

 Host: node01
0

     Scratch files written to /src/jdavis/qchem.scratch/qchem13412//
 Processing $rem in /src/tsommerfeld/qchem/config/preferences:
 Processing $rem in /home/jdavis/.qchemrc:

 Checking the input file for inconsistencies... 	...done.

--------------------------------------------------------------
User input:
--------------------------------------------------------------
$comment
	Ethylene CAP-ADC(2)
	Basis: C: aDZ+4p1d, H: DZ
$end

$molecule
0 1
C       0.6645000000    -0.0000000000    -0.0000000000
C      -0.6645000000     0.0000000000     0.0000000000
H       1.1590799571     0.9623485159     0.0000000000
H       1.1590799571    -0.9623485159    -0.0000000000
H      -1.1590799571    -0.9623485159    -0.0000000000
H      -1.1590799571     0.9623485159     0.0000000000
$end

$rem
	basis gen
	method adc(3)
        EA_STATES [0,0,30,0,0,0,0,0]
	scf_convergence 8
	thresh 14
	adc_cap 1
	cap_type 2
	cap_x 1500
	cap_x_end 5000
	cap_x_step 500
	xc_grid 000250000974
	adc_print 3
	adc_davidson_conv 5
	adc_nguess_singles 100
	adc_nguess_doubles 50
	adc_davidson_maxsubspace 400
	adc_davidson_maxiter 40
	adc_davidson_thresh 14
	mem_total 95000
	threads 12
$end

$basis
H     0
S   4   1.00
      1.301000D+01           1.968500D-02
      1.962000D+00           1.379770D-01
      4.446000D-01           4.781480D-01
      1.220000D-01           5.012400D-01
S   1   1.00
      1.220000D-01           1.000000D+00
P   1   1.00
      7.270000D-01           1.0000000
****
C     0
S   9   1.00
      6.665000D+03           6.920000D-04
      1.000000D+03           5.329000D-03
      2.280000D+02           2.707700D-02
      6.471000D+01           1.017180D-01
      2.106000D+01           2.747400D-01
      7.495000D+00           4.485640D-01
      2.797000D+00           2.850740D-01
      5.215000D-01           1.520400D-02
      1.596000D-01          -3.191000D-03
S   9   1.00
      6.665000D+03          -1.460000D-04
      1.000000D+03          -1.154000D-03
      2.280000D+02          -5.725000D-03
      6.471000D+01          -2.331200D-02
      2.106000D+01          -6.395500D-02
      7.495000D+00          -1.499810D-01
      2.797000D+00          -1.272620D-01
      5.215000D-01           5.445290D-01
      1.596000D-01           5.804960D-01
S   1   1.00
      1.596000D-01           1.000000D+00
S   1   1.00
      0.0469000              1.0000000
P   4   1.00
      9.439000D+00           3.810900D-02
      2.002000D+00           2.094800D-01
      5.456000D-01           5.085570D-01
      1.517000D-01           4.688420D-01
P   1   1.00
      1.517000D-01           1.000000D+00
P   1   1.00
      0.0404100              1.0000000
P    1  1.00
     0.0269400   1.0
P    1  1.00
     0.0179600   1.0
P    1  1.00
     0.0119733   1.0
P    1  1.00
     0.0079822   1.0
D   1   1.00
      5.500000D-01           1.0000000
D   1   1.00
      0.1510000              1.0000000
D    1  1.00
     0.0755000   1.0
****
$end
--------------------------------------------------------------
 ----------------------------------------------------------------
             Standard Nuclear Orientation (Angstroms)
    I     Atom           X                Y                Z
 ----------------------------------------------------------------
    1      C       0.6645000000     0.0000000000    -0.0000000000
    2      C      -0.6645000000    -0.0000000000     0.0000000000
    3      H       1.1590799571     0.9623485159    -0.0000000000
    4      H       1.1590799571    -0.9623485159    -0.0000000000
    5      H      -1.1590799571    -0.9623485159     0.0000000000
    6      H      -1.1590799571     0.9623485159     0.0000000000
 ----------------------------------------------------------------
 Molecular Point Group                 D2h   NOp =  8
 Largest Abelian Subgroup              D2h   NOp =  8
 Nuclear Repulsion Energy =          33.58921683 hartrees
 There are        8 alpha and        8 beta electrons
 Requested basis set is non-standard
 There are 40 shells and 100 basis functions
 Total memory of 95000 MB is distributed as follows: 
   MEM_STATIC is set to 192 MB
   QALLOC/CCMAN JOB total memory use is  94808 MB
 Warning: actual memory use might exceed 95000 MB

 Total QAlloc Memory Limit  95000 MB
 Mega-Array Size       188 MB
 MEM_STATIC part       192 MB

                       Distance Matrix (Angstroms)
             C (  1)   C (  2)   H (  3)   H (  4)   H (  5)
   C (  2)  1.329000
   H (  3)  1.082000  2.061931
   H (  4)  1.082000  2.061931  1.924697
   H (  5)  2.061931  1.082000  3.013026  2.318160
   H (  6)  2.061931  1.082000  2.318160  3.013026  1.924697
 
 A cutoff of  1.0D-14 yielded    820 shell pairs
 There are      5164 function pairs (      5815 Cartesian)
 Smallest overlap matrix eigenvalue = 7.59E-06

 Scale SEOQF with 1.000000e-01/1.000000e-01/1.000000e-01

 Standard Electronic Orientation quadrupole field applied
 Nucleus-field energy     =     0.0000000006 hartrees
 ================ Generating on-the-fly SAD Guess ================
Attempting to make child job directory: /src/jdavis/qchem.scratch/qchem13412//Frg1/
Attempting to make child job directory: /src/jdavis/qchem.scratch/qchem13412//Frg2/
Creating input file /src/jdavis/qchem.scratch/qchem13412/Frg1.input
using default PutDataFrgm: nothing
calling putenv with: QCSCRATCH=/src/jdavis/qchem.scratch/qchem13412/ 
Spawning Job For Fragment 0
Done Job For Fragment 0
calling putenv with: QCSCRATCH=/src/jdavis/qchem.scratch 
calling putenv with: QCTHREADS=1 
Creating input file /src/jdavis/qchem.scratch/qchem13412/Frg2.input
using default PutDataFrgm: nothing
calling putenv with: QCSCRATCH=/src/jdavis/qchem.scratch/qchem13412/ 
Spawning Job For Fragment 1
Done Job For Fragment 1
calling putenv with: QCSCRATCH=/src/jdavis/qchem.scratch 
calling putenv with: QCTHREADS=1 
 Time for running child jobs:  CPU 2.15 s  wall 54.77 s
 ============= Method Specific SAD Guess Constructed =============
 Guess from on-the-fly superposition of atomic densities
 Warning: Energy on first SCF cycle will be non-variational
 A restricted Hartree-Fock SCF calculation will be
 performed using Pulay DIIS extrapolation
 SCF converges when DIIS error is below 1.0E-08
 using 12 threads for integral computing
 -------------------------------------------------------
 OpenMP Integral computing Module                
 Release: version 1.0, May 2013, Q-Chem Inc. Pittsburgh 
 -------------------------------------------------------
 ---------------------------------------
  Cycle       Energy         DIIS Error
 ---------------------------------------
    1     -78.4565767611      4.94E-02
    2     -78.0154394370      3.58E-03
    3     -78.0368289296      9.48E-04
    4     -78.0385292503      3.19E-04
    5     -78.0387131777      3.87E-05
    6     -78.0387181843      7.48E-06
    7     -78.0387184487      1.91E-06
    8     -78.0387184658      2.02E-07
    9     -78.0387184659      2.50E-08
   10     -78.0387184663      2.15E-09 Convergence criterion met
 ---------------------------------------
 SCF time:  CPU 13.02 s  wall 1.09 s
 SCF   energy in the final basis set = -78.03871847
 Total energy in the final basis set = -78.03871847
================================================================================
|                                                                              |
|                                 A D C  M A N                                 |
|                                                                              |
 ------------------------------------------------------------------------------ 
|                                                                              |
| Components:                                                                  |
|                                                                              |
| - libvmm - 1.3-trunk                                                         |
|   Authors:                                                                   |
|   Evgeny Epifanovsky, Ilya Kaliman                                           |
|                                                                              |
| - libtensor - 2.5-trunk                                                      |
|   Authors:                                                                   |
|   Evgeny Epifanovsky, Michael Wormit, Dmitry Zuev, Sam Manzer,               |
|   Ilya Kaliman                                                               |
|                                                                              |
| - libwfa - 1.1-trunk                                                         |
|   Authors:                                                                   |
|   Felix Plasser, Stefanie Mewes (Baeppler), Benjamin Thomitzni,              |
|   Michael Wormit, Feng Chen, Anna I. Krylov, Pavel Pokhilko                  |
|                                                                              |
| - libadc - 1.1-trunk                                                         |
|   Authors:                                                                   |
|   Michael Wormit, Adrian L. Dempwolff, Philipp H. P. Harbach,                |
|   Caroline Krauter, Dirk Rehn, Matthias Schneider, Jan Wenzel                |
|                                                                              |
| - adcman - 2.6-trunk                                                         |
|   Authors:                                                                   |
|   Michael Wormit, Adrian L. Dempwolff, Philipp H. P. Harbach,                |
|   Caroline Krauter, Daniel Lefrancois, Jan-Michael Mewes, Dirk Rehn,         |
|   Matthias Schneider, Jan Wenzel, Andreas Dreuw                              |
|                                                                              |
| Authors of earlier versions of ADCMAN:                                       |
| Andreas Dreuw, Jan Hendrik Starcke, Dirk Rehn, Michael Wormit                |
|                                                                              |
================================================================================

  Import QC data ...  CPU 0.00 s  wall 0.00 s
 
 Alpha MOs, Restricted
 -- Occupied --                  
-11.236 -11.235  -1.042  -0.782  -0.660  -0.567  -0.515  -0.377
  1 Ag    1 B3u   2 Ag    2 B3u   1 B2u   3 Ag    1 B1g   1 B1u                
 -- Virtual --                   
  0.011   0.012   0.012   0.018   0.018   0.021   0.037   0.037
  3 B3u   2 B2u   2 B1u   2 B1g   1 B2g   4 Ag    4 B3u   3 B2u                
  0.040   0.047   0.047   0.047   0.076   0.081   0.084   0.089
  3 B1u   5 Ag    3 B1g   2 B2g   6 Ag    5 B3u   4 B2u   4 B1u                
  0.091   0.097   0.114   0.139   0.156   0.162   0.174   0.176
  3 B2g   4 B1g   7 Ag    4 B2g   6 B3u   5 B2u   8 Ag    5 B1u                
  0.177   0.179   0.197   0.206   0.209   0.254   0.260   0.282
  5 B1g   7 B3u   9 Ag    1 B3g   5 B2g   8 B3u   6 B2u   1 Au                 
  0.291   0.309   0.312   0.320   0.324   0.346   0.360   0.382
  6 B1u  10 Ag    6 B1g   9 B3u   7 B2u   6 B2g   7 B1u  10 B3u                
  0.386   0.419   0.454   0.456   0.489   0.510   0.541   0.567
 11 Ag    7 B1g  12 Ag    8 B2u  11 B3u   7 B2g  13 Ag    8 B1g                
  0.568   0.593   0.653   0.657   0.706   0.713   0.734   0.842
  2 B3g   9 B2u  12 B3u  14 Ag    8 B1u   2 Au   13 B3u   9 B1g                
  0.913   0.927   1.041   1.059   1.074   1.093   1.133   1.198
 14 B3u   8 B2g  10 B2u   9 B1u  15 Ag   10 B1g   9 B2g  15 B3u                
  1.233   1.278   1.515   1.539   1.583   1.647   1.654   1.797
 11 B2u  16 Ag   16 B3u  11 B1g  17 Ag   10 B1u   3 B3g   3 Au                 
  1.805   1.825   1.895   1.946   1.947   1.960   2.028   2.040
 18 Ag   12 B2u  10 B2g  11 B1u  17 B3u  12 B1g   4 B3g  19 Ag                 
  2.239   2.276   2.367   2.474   2.550   2.634   2.661   2.720
 13 B2u  18 B3u  11 B2g   4 Au   20 Ag   13 B1g  19 B3u  20 B3u                
  2.877   2.898   3.453   3.657
 14 B2u  21 Ag   14 B1g  21 B3u                                                
 
 Beta MOs, Restricted
 -- Occupied --                  
-11.236 -11.235  -1.042  -0.782  -0.660  -0.567  -0.515  -0.377
  1 Ag    1 B3u   2 Ag    2 B3u   1 B2u   3 Ag    1 B1g   1 B1u                
 -- Virtual --                   
  0.011   0.012   0.012   0.018   0.018   0.021   0.037   0.037
  3 B3u   2 B2u   2 B1u   2 B1g   1 B2g   4 Ag    4 B3u   3 B2u                
  0.040   0.047   0.047   0.047   0.076   0.081   0.084   0.089
  3 B1u   5 Ag    3 B1g   2 B2g   6 Ag    5 B3u   4 B2u   4 B1u                
  0.091   0.097   0.114   0.139   0.156   0.162   0.174   0.176
  3 B2g   4 B1g   7 Ag    4 B2g   6 B3u   5 B2u   8 Ag    5 B1u                
  0.177   0.179   0.197   0.206   0.209   0.254   0.260   0.282
  5 B1g   7 B3u   9 Ag    1 B3g   5 B2g   8 B3u   6 B2u   1 Au                 
  0.291   0.309   0.312   0.320   0.324   0.346   0.360   0.382
  6 B1u  10 Ag    6 B1g   9 B3u   7 B2u   6 B2g   7 B1u  10 B3u                
  0.386   0.419   0.454   0.456   0.489   0.510   0.541   0.567
 11 Ag    7 B1g  12 Ag    8 B2u  11 B3u   7 B2g  13 Ag    8 B1g                
  0.568   0.593   0.653   0.657   0.706   0.713   0.734   0.842
  2 B3g   9 B2u  12 B3u  14 Ag    8 B1u   2 Au   13 B3u   9 B1g                
  0.913   0.927   1.041   1.059   1.074   1.093   1.133   1.198
 14 B3u   8 B2g  10 B2u   9 B1u  15 Ag   10 B1g   9 B2g  15 B3u                
  1.233   1.278   1.515   1.539   1.583   1.647   1.654   1.797
 11 B2u  16 Ag   16 B3u  11 B1g  17 Ag   10 B1u   3 B3g   3 Au                 
  1.805   1.825   1.895   1.946   1.947   1.960   2.028   2.040
 18 Ag   12 B2u  10 B2g  11 B1u  17 B3u  12 B1g   4 B3g  19 Ag                 
  2.239   2.276   2.367   2.474   2.550   2.634   2.661   2.720
 13 B2u  18 B3u  11 B2g   4 Au   20 Ag   13 B1g  19 B3u  20 B3u                
  2.877   2.898   3.453   3.657
 14 B2u  21 Ag   14 B1g  21 B3u                                                
  Import AO data ...  CPU 0.01 s  wall 0.01 s
  Using point group: D2h
  Irreducible representations in point group: Ag B1g B2g B3g Au B1u B2u B3u
  Molecular orbitals: 
  Occupied MOs:
  Block   0:   1 ( Ag) A   2 ( Ag) A   3 ( Ag) A
                  -11.24      -1.042     -0.5671
  Block   1:   1 (B1g) A
                 -0.5151
  Block   2:   1 (B1u) A
                 -0.3769
  Block   3:   1 (B2u) A
                 -0.6604
  Block   4:   1 (B3u) A   2 (B3u) A
                  -11.23     -0.7819
  Block   5:   1 ( Ag) B   2 ( Ag) B   3 ( Ag) B
                  -11.24      -1.042     -0.5671
  Block   6:   1 (B1g) B
                 -0.5151
  Block   7:   1 (B1u) B
                 -0.3769
  Block   8:   1 (B2u) B
                 -0.6604
  Block   9:   1 (B3u) B   2 (B3u) B
                  -11.23     -0.7819
  Virtual MOs:
  Block   0:   4 ( Ag) A   5 ( Ag) A   6 ( Ag) A   7 ( Ag) A   8 ( Ag) A
                 0.02062     0.04701     0.07565      0.1141      0.1744
               9 ( Ag) A  10 ( Ag) A  11 ( Ag) A  12 ( Ag) A  13 ( Ag) A
                  0.1969       0.309      0.3864      0.4544       0.541
  Block   1:  14 ( Ag) A  15 ( Ag) A  16 ( Ag) A  17 ( Ag) A  18 ( Ag) A
                  0.6573       1.074       1.278       1.583       1.805
              19 ( Ag) A  20 ( Ag) A  21 ( Ag) A
                    2.04        2.55       2.898
  Block   2:   2 (B1g) A   3 (B1g) A   4 (B1g) A   5 (B1g) A   6 (B1g) A
                 0.01777     0.04731     0.09653      0.1772      0.3122
               7 (B1g) A   8 (B1g) A   9 (B1g) A  10 (B1g) A  11 (B1g) A
                  0.4189      0.5667      0.8421       1.093       1.539
              12 (B1g) A  13 (B1g) A  14 (B1g) A
                    1.96       2.634       3.453
  Block   3:   1 (B2g) A   2 (B2g) A   3 (B2g) A   4 (B2g) A   5 (B2g) A
                 0.01804     0.04745     0.09123      0.1386      0.2092
               6 (B2g) A   7 (B2g) A   8 (B2g) A   9 (B2g) A  10 (B2g) A
                  0.3456      0.5104      0.9268       1.133       1.895
              11 (B2g) A
                   2.367
  Block   4:   1 (B3g) A   2 (B3g) A   3 (B3g) A   4 (B3g) A
                  0.2055      0.5676       1.654       2.028
  Block   5:   1 ( Au) A   2 ( Au) A   3 ( Au) A   4 ( Au) A
                  0.2824       0.713       1.797       2.474
  Block   6:   2 (B1u) A   3 (B1u) A   4 (B1u) A   5 (B1u) A   6 (B1u) A
                 0.01244      0.0397     0.08895      0.1757      0.2909
               7 (B1u) A   8 (B1u) A   9 (B1u) A  10 (B1u) A  11 (B1u) A
                  0.3601      0.7059       1.059       1.647       1.946
  Block   7:   2 (B2u) A   3 (B2u) A   4 (B2u) A   5 (B2u) A   6 (B2u) A
                 0.01167     0.03713     0.08365      0.1624      0.2597
               7 (B2u) A   8 (B2u) A   9 (B2u) A  10 (B2u) A  11 (B2u) A
                  0.3236      0.4562      0.5925       1.041       1.233
              12 (B2u) A  13 (B2u) A  14 (B2u) A
                   1.825       2.239       2.877
  Block   8:   3 (B3u) A   4 (B3u) A   5 (B3u) A   6 (B3u) A   7 (B3u) A
                 0.01147     0.03655     0.08144      0.1564      0.1789
               8 (B3u) A   9 (B3u) A  10 (B3u) A  11 (B3u) A  12 (B3u) A
                  0.2541      0.3201      0.3825      0.4889      0.6534
  Block   9:  13 (B3u) A  14 (B3u) A  15 (B3u) A  16 (B3u) A  17 (B3u) A
                  0.7342      0.9134       1.198       1.515       1.947
              18 (B3u) A  19 (B3u) A  20 (B3u) A  21 (B3u) A
                   2.276       2.661        2.72       3.657
  Block  10:   4 ( Ag) B   5 ( Ag) B   6 ( Ag) B   7 ( Ag) B   8 ( Ag) B
                 0.02062     0.04701     0.07565      0.1141      0.1744
               9 ( Ag) B  10 ( Ag) B  11 ( Ag) B  12 ( Ag) B  13 ( Ag) B
                  0.1969       0.309      0.3864      0.4544       0.541
  Block  11:  14 ( Ag) B  15 ( Ag) B  16 ( Ag) B  17 ( Ag) B  18 ( Ag) B
                  0.6573       1.074       1.278       1.583       1.805
              19 ( Ag) B  20 ( Ag) B  21 ( Ag) B
                    2.04        2.55       2.898
  Block  12:   2 (B1g) B   3 (B1g) B   4 (B1g) B   5 (B1g) B   6 (B1g) B
                 0.01777     0.04731     0.09653      0.1772      0.3122
               7 (B1g) B   8 (B1g) B   9 (B1g) B  10 (B1g) B  11 (B1g) B
                  0.4189      0.5667      0.8421       1.093       1.539
              12 (B1g) B  13 (B1g) B  14 (B1g) B
                    1.96       2.634       3.453
  Block  13:   1 (B2g) B   2 (B2g) B   3 (B2g) B   4 (B2g) B   5 (B2g) B
                 0.01804     0.04745     0.09123      0.1386      0.2092
               6 (B2g) B   7 (B2g) B   8 (B2g) B   9 (B2g) B  10 (B2g) B
                  0.3456      0.5104      0.9268       1.133       1.895
              11 (B2g) B
                   2.367
  Block  14:   1 (B3g) B   2 (B3g) B   3 (B3g) B   4 (B3g) B
                  0.2055      0.5676       1.654       2.028
  Block  15:   1 ( Au) B   2 ( Au) B   3 ( Au) B   4 ( Au) B
                  0.2824       0.713       1.797       2.474
  Block  16:   2 (B1u) B   3 (B1u) B   4 (B1u) B   5 (B1u) B   6 (B1u) B
                 0.01244      0.0397     0.08895      0.1757      0.2909
               7 (B1u) B   8 (B1u) B   9 (B1u) B  10 (B1u) B  11 (B1u) B
                  0.3601      0.7059       1.059       1.647       1.946
  Block  17:   2 (B2u) B   3 (B2u) B   4 (B2u) B   5 (B2u) B   6 (B2u) B
                 0.01167     0.03713     0.08365      0.1624      0.2597
               7 (B2u) B   8 (B2u) B   9 (B2u) B  10 (B2u) B  11 (B2u) B
                  0.3236      0.4562      0.5925       1.041       1.233
              12 (B2u) B  13 (B2u) B  14 (B2u) B
                   1.825       2.239       2.877
  Block  18:   3 (B3u) B   4 (B3u) B   5 (B3u) B   6 (B3u) B   7 (B3u) B
                 0.01147     0.03655     0.08144      0.1564      0.1789
               8 (B3u) B   9 (B3u) B  10 (B3u) B  11 (B3u) B  12 (B3u) B
                  0.2541      0.3201      0.3825      0.4889      0.6534
  Block  19:  13 (B3u) B  14 (B3u) B  15 (B3u) B  16 (B3u) B  17 (B3u) B
                  0.7342      0.9134       1.198       1.515       1.947
              18 (B3u) B  19 (B3u) B  20 (B3u) B  21 (B3u) B
                   2.276       2.661        2.72       3.657
  Import MO data ...  CPU 0.08 s  wall 0.02 s
  Import HF data ...  CPU 0.93 s  wall 0.20 s
  Import 2e integrals ...  CPU 10.94 s  wall 1.00 s
  Import CAP matrix ...  CPU 41.41 s  wall 3.45 s

--------------------------------------------------------------------------------
                                   HF Summary                                   
--------------------------------------------------------------------------------
  Energy:                                                  -78.0387184663 a.u.
  Dip. moment [a.u.]:                  [   0.000000,    0.000000,   -0.000000]
  Total dipole [Debye]:                                               0.000000
  <r^2> [a.u.]:                        [  47.703609,   22.131805,   12.002505]
  Total <r^2> [a.u.]:                                                81.837918
--------------------------------------------------------------------------------
  HF properties ...  CPU 0.53 s  wall 0.03 s
  MP(1) calculation ...  CPU 3.64 s  wall 1.56 s
  N^6 prerequesite intermediates ...  CPU 3.28 s  wall 0.44 s

--------------------------------------------------------------------------------
                                 MP(2) Summary                                  
--------------------------------------------------------------------------------
  MP energy contribution:                                   -0.2895414397 a.u.
  Total energy:                                            -78.3282599060 a.u.
  Dip. moment [a.u.]:                  [  -0.000000,    0.000000,    0.000000]
  Total dipole [Debye]:                                               0.000000
  <r^2> [a.u.]:                        [  47.870224,   22.209729,   11.896776]
  Total <r^2> [a.u.]:                                                81.976729
--------------------------------------------------------------------------------
  MP(2) calculation ...  CPU 2.83 s  wall 1.73 s

--------------------------------------------------------------------------------
                                 MP(3) Summary                                  
--------------------------------------------------------------------------------
  MP energy contribution:                                   -0.0248739185 a.u.
  Total energy:                                            -78.3531338245 a.u.
--------------------------------------------------------------------------------
  MP(3) calculation ...  CPU 0.02 s  wall 0.00 s
  Start ADC(3) ...  CPU 0.08 s  wall 0.02 s
  EA-ADC(2) Effective Transition Moments ...  CPU 0.38 s  wall 0.07 s
  EA-ADC(3) intermediates ...  CPU 0.78 s  wall 0.14 s
Less particle guess vectors found than requested: 11 (found), 100 (requested).
Adjusting number of hole-2particle guess vectors to 139.
  Starting Davidson for electron-attached states of irrep B2g ... 
--------------------------------------------------------------------------------
   It NVec Conv  Avg. Norm  Max. Norm  Conv. states           Remark
--------------------------------------------------------------------------------
       150    0  1.583e-02  2.215e-01  0.0180 n n n n n n n n Guess.
    1  180    0  4.806e-03  6.853e-02  0.0179 n n n n n n n n 
    2  210    0  1.722e-03  2.100e-02  0.0179 n n n n n n n n 
    3  240    0  1.151e-03  2.117e-02  0.0179 n n n n n n n n 
    4  270    0  2.895e-03  6.217e-02  0.0179 n n n n n n n n 
    5  300    1  1.318e-03  1.991e-02  0.0179 y n n n n n n n 
    6  330    2  4.493e-04  9.315e-03  0.0179 y y n n n n n n 
    7  360    5  1.490e-04  2.984e-03  0.0179 y y y n y y n n 
    8  390    9  5.334e-05  9.958e-04  0.0179 y y y y y y y n 
    9  400   15  2.657e-05  4.503e-04  0.0179 y y y y y y y y 
   10   60   17  1.164e-05  1.979e-04  0.0179 y y y y y y y y Subspace collapsed.
   11   90   20  4.383e-06  7.757e-05  0.0179 y y y y y y y y 
   12  120   26  1.856e-06  3.407e-05  0.0179 y y y y y y y y 
   13  150   29  7.505e-07  1.411e-05  0.0179 y y y y y y y y 
   14  180   30  2.939e-07  5.778e-06  0.0179 y y y y y y y y Converged.
--------------------------------------------------------------------------------
  Davidson Summary: 
 ------------------------------------------------------------
  State  0: electron attachment energy =   0.0179 a.u.   (converged)
  State  1: electron attachment energy =   0.0462 a.u.   (converged)
  State  2: electron attachment energy =   0.0790 a.u.   (converged)
  State  3: electron attachment energy =   0.1140 a.u.   (converged)
  State  4: electron attachment energy =   0.1490 a.u.   (converged)
  State  5: electron attachment energy =   0.1760 a.u.   (converged)
  State  6: electron attachment energy =   0.1913 a.u.   (converged)
  State  7: electron attachment energy =   0.2288 a.u.   (converged)
  State  8: electron attachment energy =   0.2661 a.u.   (converged)
  State  9: electron attachment energy =   0.2725 a.u.   (converged)
  State 10: electron attachment energy =   0.2838 a.u.   (converged)
  State 11: electron attachment energy =   0.2912 a.u.   (converged)
  State 12: electron attachment energy =   0.2952 a.u.   (converged)
  State 13: electron attachment energy =   0.2966 a.u.   (converged)
  State 14: electron attachment energy =   0.2996 a.u.   (converged)
  State 15: electron attachment energy =   0.3036 a.u.   (converged)
  State 16: electron attachment energy =   0.3067 a.u.   (converged)
  State 17: electron attachment energy =   0.3105 a.u.   (converged)
  State 18: electron attachment energy =   0.3113 a.u.   (converged)
  State 19: electron attachment energy =   0.3136 a.u.   (converged)
  State 20: electron attachment energy =   0.3175 a.u.   (converged)
  State 21: electron attachment energy =   0.3194 a.u.   (converged)
  State 22: electron attachment energy =   0.3213 a.u.   (converged)
  State 23: electron attachment energy =   0.3254 a.u.   (converged)
  State 24: electron attachment energy =   0.3285 a.u.   (converged)
  State 25: electron attachment energy =   0.3302 a.u.   (converged)
  State 26: electron attachment energy =   0.3313 a.u.   (converged)
  State 27: electron attachment energy =   0.3342 a.u.   (converged)
  State 28: electron attachment energy =   0.3353 a.u.   (converged)
  State 29: electron attachment energy =   0.3363 a.u.   (converged)
 ------------------------------------------------------------

  Electron-attached states of irrep B2g ...  CPU 2281.62 s  wall 376.98 s
  Pole strengths ...  CPU 0.81 s  wall 0.25 s
  SDMs ...  CPU 15.94 s  wall 3.75 s
  Properties ...  CPU 7.52 s  wall 1.57 s
  ISR TDMs ...  CPU 295.03 s  wall 69.07 s
  ISR transition properties ...  CPU 37.56 s  wall 6.67 s

--------------------------------------------------------------------------------
                        Electron-Attached State Summary
--------------------------------------------------------------------------------

  Electron-attached state  1 (B2g)                                 [converged]
  ----------------------------------------------------------------------------
  Term symbol:  1 (2) B2g                                   R^2 =  1.05748e-12

  Total energy:                                            -78.3352243232 a.u.
  Electron attachment energy:                                      0.487342 eV

  Pole strength:                                                      0.999711

  Dip. moment [a.u.]:                  [   0.000000,    0.000000,    0.000000]
  Total dipole [Debye]:                                               0.000000
  <r^2> [a.u.]:                        [ 214.191743,   77.485603,  177.691607]
  Total <r^2> [a.u.]:                                               469.368953

  V1^2 = 0.9997, V2^2 = 0.0003

  Important amplitudes:
       occ i       vir a        vir b           v   
    -------------------------------------------------
                               1 (B2g) B     -0.9997
                               2 (B2g) B      0.0099
                               3 (B2g) B      0.0086
                               4 (B2g) B      0.0072
     1 (B1u) B    4 (B2g) B    2 (B1u) B      0.0034
     1 (B1u) A    4 (B2g) A    2 (B1u) B      0.0031
                               5 (B2g) B     -0.0024
     1 (B1u) B    3 (B2g) B    2 (B1u) B      0.0023
     1 (B1u) A    9 (Ag ) A    3 (B3u) B      0.0022
     1 (B1u) B    9 (Ag ) B    3 (B3u) B      0.0022
     1 (B1u) A    3 (B2g) A    2 (B1u) B      0.0021
     1 (B1u) B    5 (B2g) B    2 (B1u) B     -0.0017
     1 (B1u) A    7 (Ag ) A    3 (B3u) B      0.0017
     1 (B1u) B    7 (Ag ) B    3 (B3u) B      0.0017
     1 (B1u) A    5 (B2g) A    2 (B1u) B     -0.0015
     1 (B1u) B    4 (B2g) B    3 (B1u) B      0.0015
     1 (B1g) A    6 (B2u) A    2 (B1u) B     -0.0015
     1 (B1g) B    2 (B1u) B    6 (B2u) B      0.0015
     1 (B1u) A    6 (Ag ) A    3 (B3u) B      0.0012
     1 (B1u) B    6 (Ag ) B    3 (B3u) B      0.0011
     1 (B1u) B    4 (B2g) B    4 (B1u) B      0.0011
     1 (B1u) B    3 (B2g) B    3 (B1u) B      0.0010
     1 (B1u) B    4 (B2g) B    6 (B1u) B     -0.0009
     1 (B1u) A    4 (B2g) A    3 (B1u) B      0.0009
     1 (B1u) B   13 (Ag ) B    3 (B3u) B      0.0009
     1 (B1u) A   13 (Ag ) A    3 (B3u) B      0.0009
     1 (B1u) B   12 (Ag ) B    3 (B3u) B      0.0009
     1 (B1u) A   12 (Ag ) A    3 (B3u) B      0.0009
     1 (B1u) B    2 (B2g) B    2 (B1u) B      0.0009
     1 (B1g) A    8 (B2u) A    2 (B1u) B      0.0008
     1 (B1g) B    2 (B1u) B    8 (B2u) B     -0.0008
     2 (B3u) B    4 (B2g) B    3 (B3u) B      0.0008
     1 (B1u) A    4 (Ag ) A    3 (B3u) B      0.0008
     1 (B1u) B    5 (B2g) B    3 (B1u) B     -0.0008
     1 (B1u) A    2 (B2g) A    2 (B1u) B      0.0008
     1 (B1u) A    9 (Ag ) A    8 (B3u) B     -0.0008
     1 (B1u) A    4 (B2g) A    6 (B1u) B     -0.0008
     1 (B1u) B    4 (Ag ) B    3 (B3u) B      0.0008
     2 (B3u) A    4 (B2g) A    3 (B3u) B      0.0008
     1 (B1u) A    4 (B1u) A    4 (B2g) B     -0.0008
    -------------------------------------------------
  ----------------------------------------------------------------------------


  Electron-attached state  2 (B2g)                                 [converged]
  ----------------------------------------------------------------------------
  Term symbol:  2 (2) B2g                                   R^2 =  9.67050e-12

  Total energy:                                            -78.3069519461 a.u.
  Electron attachment energy:                                      1.256673 eV

  Pole strength:                                                      0.996143

  Dip. moment [a.u.]:                  [   0.000000,    0.000000,    0.000000]
  Total dipole [Debye]:                                               0.000000
  <r^2> [a.u.]:                        [ 161.912745,   60.060055,  125.240199]
  Total <r^2> [a.u.]:                                               347.212999

  V1^2 = 0.9966, V2^2 = 0.0034

  Important amplitudes:
       occ i       vir a        vir b           v   
    -------------------------------------------------
                               2 (B2g) B     -0.9936
                               3 (B2g) B     -0.0744
                               4 (B2g) B     -0.0575
                               5 (B2g) B      0.0203
                               1 (B2g) B     -0.0117
     1 (B1u) B    4 (B2g) B    3 (B1u) B     -0.0089
     1 (B1u) B    4 (B2g) B    4 (B1u) B     -0.0066
     1 (B1u) B    3 (B2g) B    3 (B1u) B     -0.0058
                               6 (B2g) B     -0.0058
     1 (B1u) A    4 (B1u) A    4 (B2g) B      0.0056
     1 (B1u) B    4 (B2g) B    6 (B1u) B      0.0055
     1 (B1u) A    5 (B1u) A    4 (B2g) B      0.0051
     1 (B1u) B    5 (B2g) B    3 (B1u) B      0.0048
     1 (B1u) B    4 (B2g) B    2 (B1u) B     -0.0047
     1 (B1u) B    4 (B2g) B    5 (B1u) B     -0.0047
     1 (B1u) A    4 (B2g) A    6 (B1u) B      0.0046
     1 (B1u) A    3 (B1u) A    4 (B2g) B      0.0045
     1 (B1u) A    4 (B2g) A    3 (B1u) B     -0.0044
     1 (B1u) A    9 (Ag ) A    4 (B3u) B     -0.0043
     1 (B1u) B    9 (Ag ) B    4 (B3u) B     -0.0042
     1 (B1u) B    3 (B2g) B    4 (B1u) B     -0.0040
     1 (B1u) A    4 (B1u) A    5 (B2g) B     -0.0039
     1 (B1u) B    5 (B2g) B    4 (B1u) B      0.0039
     1 (B1u) A    5 (B1u) A    5 (B2g) B     -0.0037
     1 (B1u) A    7 (B1u) A    4 (B2g) B     -0.0037
     1 (B1u) B    5 (B2g) B    6 (B1u) B     -0.0036
     3 (Ag ) B    6 (Ag ) B    4 (B2g) B      0.0034
     1 (B1u) A    7 (Ag ) A    4 (B3u) B     -0.0033
     1 (B1u) A    3 (B2g) A    3 (B1u) B     -0.0033
     1 (B1u) A    9 (Ag ) A    8 (B3u) B      0.0032
     1 (B1u) B    3 (B2g) B    6 (B1u) B      0.0031
     1 (B1u) B    7 (Ag ) B    4 (B3u) B     -0.0031
     1 (B1u) B    3 (B2g) B    2 (B1u) B     -0.0031
     1 (B1u) A    3 (B1u) A    5 (B2g) B     -0.0031
     1 (B1u) A    4 (B1u) A    3 (B2g) B      0.0030
                               7 (B2g) B      0.0030
     1 (B1u) B    5 (B2g) B    5 (B1u) B      0.0029
     1 (B1u) A    3 (B2g) A    6 (B1u) B      0.0029
     1 (B1u) A    7 (B1u) A    5 (B2g) B      0.0029
     1 (B1u) B    3 (B2g) B    5 (B1u) B     -0.0028
    -------------------------------------------------
  ----------------------------------------------------------------------------


  Electron-attached state  3 (B2g)                                 [converged]
  ----------------------------------------------------------------------------
  Term symbol:  3 (2) B2g                                   R^2 =  6.82752e-11

  Total energy:                                            -78.2741833852 a.u.
  Electron attachment energy:                                      2.148351 eV

  Pole strength:                                                      0.955751

  Dip. moment [a.u.]:                  [  -0.000000,   -0.000000,    0.000000]
  Total dipole [Debye]:                                               0.000000
  <r^2> [a.u.]:                        [ 102.657101,   41.175599,   66.883830]
  Total <r^2> [a.u.]:                                               210.716531

  V1^2 = 0.9624, V2^2 = 0.0376

  Important amplitudes:
       occ i       vir a        vir b           v   
    -------------------------------------------------
                               3 (B2g) B      0.9017
                               4 (B2g) B      0.3498
                               5 (B2g) B     -0.1217
                               2 (B2g) B     -0.1007
                               6 (B2g) B      0.0376
     1 (B1u) A    4 (B1u) A    4 (B2g) B     -0.0264
     1 (B1u) B    4 (B2g) B    4 (B1u) B      0.0236
     1 (B1u) A    3 (B1u) A    4 (B2g) B     -0.0232
     1 (B1u) A    5 (B1u) A    4 (B2g) B     -0.0226
                               7 (B2g) B     -0.0197
     1 (B1u) A    4 (B1u) A    5 (B2g) B      0.0195
     1 (B1u) B    4 (B2g) B    5 (B1u) B      0.0184
     1 (B1u) B    4 (B2g) B    3 (B1u) B      0.0178
     1 (B1u) A    5 (B1u) A    5 (B2g) B      0.0173
     1 (B1u) A    3 (B1u) A    5 (B2g) B      0.0165
     1 (B1u) A    7 (B1u) A    4 (B2g) B      0.0155
     1 (B1u) B    5 (B2g) B    4 (B1u) B     -0.0151
     1 (B1u) A    4 (B1u) A    3 (B2g) B     -0.0141
     1 (B1u) B    3 (B2g) B    4 (B1u) B      0.0140
     1 (B1u) B    4 (B2g) B    6 (B1u) B     -0.0138
     1 (B1u) A    7 (B1u) A    5 (B2g) B     -0.0128
     1 (B1u) A    3 (B1u) A    3 (B2g) B     -0.0128
     1 (B1u) A    2 (B1u) A    4 (B2g) B     -0.0124
     1 (B1u) B    5 (B2g) B    5 (B1u) B     -0.0124
     1 (B1u) A    5 (B1u) A    3 (B2g) B     -0.0117
     1 (B1u) B    5 (B2g) B    3 (B1u) B     -0.0114
                               1 (B2g) B      0.0113
     3 (Ag ) B    6 (Ag ) B    4 (B2g) B     -0.0113
                               9 (B2g) B      0.0113
     1 (B1u) A    4 (B1u) A    6 (B2g) B     -0.0111
     1 (B1u) B    3 (B2g) B    3 (B1u) B      0.0107
     1 (B1u) A    5 (B1u) A    6 (B2g) B     -0.0106
     1 (B1u) B    3 (B2g) B    5 (B1u) B      0.0105
     3 (Ag ) A    6 (Ag ) A    4 (B2g) B     -0.0102
     1 (B1u) A    4 (B2g) A    6 (B1u) B     -0.0098
     1 (B1u) A    4 (B2g) A    8 (B1u) B      0.0094
     1 (B1u) A    7 (B1u) A    6 (B2g) B      0.0093
     1 (B1u) B    5 (B2g) B    6 (B1u) B      0.0091
     1 (B1g) A    5 (B1g) A    4 (B2g) B      0.0090
     1 (B1u) A    3 (B1u) A    6 (B2g) B     -0.0090
    -------------------------------------------------
  ----------------------------------------------------------------------------


  Electron-attached state  4 (B2g)                                 [converged]
  ----------------------------------------------------------------------------
  Term symbol:  4 (2) B2g                                   R^2 =  1.49636e-10

  Total energy:                                            -78.2391740220 a.u.
  Electron attachment energy:                                      3.101004 eV

  Pole strength:                                                      0.945771

  Dip. moment [a.u.]:                  [  -0.000000,    0.000000,   -0.000000]
  Total dipole [Debye]:                                               0.000000
  <r^2> [a.u.]:                        [ 112.831243,   44.833175,   77.891007]
  Total <r^2> [a.u.]:                                               235.555425

  V1^2 = 0.9522, V2^2 = 0.0478

  Important amplitudes:
       occ i       vir a        vir b           v   
    -------------------------------------------------
                               4 (B2g) B     -0.8591
                               3 (B2g) B      0.4105
                               5 (B2g) B      0.1994
                               6 (B2g) B     -0.0608
     1 (B1u) A    3 (B1u) A    4 (B2g) B      0.0361
     1 (B1u) A    4 (B1u) A    4 (B2g) B      0.0348
                               2 (B2g) B      0.0323
                               7 (B2g) B      0.0307
     1 (B1u) A    5 (B1u) A    4 (B2g) B      0.0268
     1 (B1u) A    3 (B1u) A    5 (B2g) B     -0.0261
     1 (B1u) A    4 (B1u) A    5 (B2g) B     -0.0260
     1 (B1u) A    2 (B1u) A    4 (B2g) B      0.0248
     1 (B1u) A    5 (B1u) A    5 (B2g) B     -0.0209
     1 (B1u) A    4 (B2g) A    3 (B1u) B      0.0208
     1 (B1u) A    3 (B1u) A    3 (B2g) B      0.0196
     1 (B1u) A    4 (B2g) A    4 (B1u) B      0.0186
     1 (B1u) A    4 (B1u) A    3 (B2g) B      0.0184
     1 (B1u) B    4 (B2g) B    5 (B1u) B     -0.0176
     1 (B1u) A    2 (B1u) A    5 (B2g) B     -0.0176
     1 (B1u) A    7 (B1u) A    4 (B2g) B     -0.0175
     1 (B1u) B    4 (B2g) B    4 (B1u) B     -0.0162
     1 (B1u) B    4 (B2g) B    3 (B1u) B     -0.0153
     1 (B1u) A    4 (B1u) A    6 (B2g) B      0.0147
                               9 (B2g) B     -0.0147
     1 (B1u) A    7 (B1u) A    5 (B2g) B      0.0145
     1 (B1u) A    5 (B2g) A    3 (B1u) B     -0.0143
     1 (B1u) A    3 (B1u) A    6 (B2g) B      0.0140
     1 (B1u) A    2 (B1u) A    3 (B2g) B      0.0138
     1 (B1u) A    5 (B1u) A    3 (B2g) B      0.0137
     1 (B1u) A    5 (B2g) A    4 (B1u) B     -0.0135
     1 (B1u) A    4 (B2g) A    2 (B1u) B      0.0134
     1 (B1u) B    5 (B2g) B    5 (B1u) B      0.0127
     1 (B1u) A    5 (B1u) A    6 (B2g) B      0.0126
     1 (B1u) B    5 (B2g) B    4 (B1u) B      0.0125
     1 (B1u) B    5 (B2g) B    3 (B1u) B      0.0118
     1 (B1u) A    3 (B2g) A    3 (B1u) B      0.0118
     1 (B1u) B    4 (B2g) B    2 (B1u) B     -0.0114
     3 (Ag ) A    6 (Ag ) A    4 (B2g) B      0.0114
     1 (B1u) A    4 (B1u) A    7 (B2g) B     -0.0106
     1 (B1u) A    3 (B2g) A    4 (B1u) B      0.0100
    -------------------------------------------------
  ----------------------------------------------------------------------------


  Electron-attached state  5 (B2g)                                 [converged]
  ----------------------------------------------------------------------------
  Term symbol:  5 (2) B2g                                   R^2 =  1.57355e-10

  Total energy:                                            -78.2041631969 a.u.
  Electron attachment energy:                                      4.053697 eV

  Pole strength:                                                      0.005469

  Dip. moment [a.u.]:                  [  -0.000000,   -0.000000,   -0.000000]
  Total dipole [Debye]:                                               0.000000
  <r^2> [a.u.]:                        [ 113.762839,   85.444215,  201.492237]
  Total <r^2> [a.u.]:                                               400.699292

  V1^2 = 0.0055, V2^2 = 0.9945

  Important amplitudes:
       occ i       vir a        vir b           v   
    -------------------------------------------------
     1 (B1u) A    2 (B1u) A    4 (B2g) B      0.4045
     1 (B1u) A    2 (B1u) A    5 (B2g) B     -0.2773
     1 (B1u) A    2 (B1u) A    3 (B2g) B      0.2315
     1 (B1u) A    4 (B2g) A    2 (B1u) B      0.2025
     1 (B1u) B    4 (B2g) B    2 (B1u) B     -0.2020
     1 (B1u) A    5 (B2g) A    2 (B1u) B     -0.1388
     1 (B1u) A    2 (B1u) A    6 (B2g) B      0.1387
     1 (B1u) B    5 (B2g) B    2 (B1u) B      0.1385
     1 (B1u) A    3 (B2g) A    2 (B1u) B      0.1158
     1 (B1u) B    3 (B2g) B    2 (B1u) B     -0.1157
     1 (B1u) A    2 (B1u) A    7 (B2g) B     -0.0924
     1 (B1u) A    2 (B1u) A    2 (B2g) B      0.0731
                               4 (B2g) B      0.0721
     1 (B1u) A    6 (B2g) A    2 (B1u) B      0.0694
     1 (B1u) B    6 (B2g) B    2 (B1u) B     -0.0693
     1 (B1u) B    7 (B2g) B    2 (B1u) B      0.0462
     1 (B1u) A    7 (B2g) A    2 (B1u) B     -0.0462
     1 (B1u) A    2 (B1u) A    9 (B2g) B      0.0383
     1 (B1u) B    2 (B2g) B    2 (B1u) B     -0.0368
     1 (B1u) A    2 (B2g) A    2 (B1u) B      0.0362
     1 (B1u) B    9 (B2g) B    2 (B1u) B     -0.0192
     1 (B1u) A    9 (B2g) A    2 (B1u) B      0.0192
     2 (Ag ) A    2 (B1u) A   11 (B3u) B     -0.0183
     1 (B1u) A    2 (B1u) A    1 (B2g) B     -0.0173
     2 (Ag ) A    2 (B1u) A   13 (B3u) B     -0.0162
                               5 (B2g) B      0.0159
     2 (Ag ) A    2 (B1u) A   14 (B3u) B     -0.0123
     2 (B3u) A    2 (B1u) A   11 (Ag ) B      0.0116
     1 (B1u) A    2 (B1u) A    8 (B2g) B     -0.0111
     2 (Ag ) A    2 (B1u) A    8 (B3u) B     -0.0110
     2 (B3u) A    2 (B1u) A   13 (Ag ) B      0.0109
     3 (Ag ) A    2 (B1u) A   12 (B3u) B      0.0094
     2 (B3u) A    2 (B1u) A    9 (Ag ) B      0.0094
     2 (Ag ) B    2 (B1u) B   11 (B3u) B     -0.0092
     1 (B1u) B    1 (B2g) B    2 (B1u) B      0.0091
     2 (Ag ) A   11 (B3u) A    2 (B1u) B     -0.0091
     1 (B1u) A    1 (B2g) A    2 (B1u) B     -0.0081
     2 (Ag ) A   13 (B3u) A    2 (B1u) B     -0.0081
     2 (Ag ) B    2 (B1u) B   13 (B3u) B     -0.0081
     1 (B1g) A    2 (B1u) A    8 (B2u) B     -0.0073
    -------------------------------------------------
  ----------------------------------------------------------------------------


  Electron-attached state  6 (B2g)                                 [converged]
  ----------------------------------------------------------------------------
  Term symbol:  6 (2) B2g                                   R^2 =  2.14138e-10

  Total energy:                                            -78.1771624057 a.u.
  Electron attachment energy:                                      4.788426 eV

  Pole strength:                                                      0.070672

  Dip. moment [a.u.]:                  [   0.000000,   -0.000000,   -0.000000]
  Total dipole [Debye]:                                               0.000000
  <r^2> [a.u.]:                        [ 101.554395,   71.248812,  158.874919]
  Total <r^2> [a.u.]:                                               331.678127

  V1^2 = 0.0707, V2^2 = 0.9293

  Important amplitudes:
       occ i       vir a        vir b           v   
    -------------------------------------------------
     1 (B1u) A    3 (B1u) A    4 (B2g) B     -0.3910
     1 (B1u) A    3 (B1u) A    5 (B2g) B      0.2677
     1 (B1u) A    3 (B1u) A    3 (B2g) B     -0.2237
                               5 (B2g) B     -0.2045
     1 (B1u) A    4 (B2g) A    3 (B1u) B     -0.1983
     1 (B1u) B    4 (B2g) B    3 (B1u) B      0.1927
                               4 (B2g) B     -0.1629
     1 (B1u) A    5 (B2g) A    3 (B1u) B      0.1352
     1 (B1u) A    3 (B1u) A    6 (B2g) B     -0.1340
     1 (B1u) B    5 (B2g) B    3 (B1u) B     -0.1325
     1 (B1u) A    3 (B2g) A    3 (B1u) B     -0.1128
     1 (B1u) B    3 (B2g) B    3 (B1u) B      0.1109
     1 (B1u) A    3 (B1u) A    7 (B2g) B      0.0891
     1 (B1u) A    3 (B1u) A    2 (B2g) B     -0.0705
     1 (B1u) A    6 (B2g) A    3 (B1u) B     -0.0673
     1 (B1u) B    6 (B2g) B    3 (B1u) B      0.0667
     1 (B1u) B    7 (B2g) B    3 (B1u) B     -0.0447
     1 (B1u) A    7 (B2g) A    3 (B1u) B      0.0444
     1 (B1u) A    3 (B1u) A    9 (B2g) B     -0.0371
     1 (B1u) B    2 (B2g) B    3 (B1u) B      0.0360
                               6 (B2g) B      0.0357
     1 (B1u) A    2 (B2g) A    3 (B1u) B     -0.0345
                               3 (B2g) B     -0.0259
     1 (B1u) B    9 (B2g) B    3 (B1u) B      0.0186
     1 (B1u) A    9 (B2g) A    3 (B1u) B     -0.0184
                               7 (B2g) B     -0.0183
     2 (Ag ) A    3 (B1u) A   11 (B3u) B      0.0177
     1 (B1u) A    3 (B1u) A    1 (B2g) B      0.0171
     2 (Ag ) A    3 (B1u) A   13 (B3u) B      0.0156
     2 (Ag ) A    3 (B1u) A   14 (B3u) B      0.0119
     2 (B3u) A    3 (B1u) A   11 (Ag ) B     -0.0112
     2 (Ag ) A    3 (B1u) A    8 (B3u) B      0.0107
     2 (B3u) A    3 (B1u) A   13 (Ag ) B     -0.0105
     1 (B1u) A    3 (B1u) A    8 (B2g) B      0.0104
     3 (Ag ) A    3 (B1u) A   12 (B3u) B     -0.0091
     2 (B3u) A    3 (B1u) A    9 (Ag ) B     -0.0090
     2 (Ag ) B    3 (B1u) B   11 (B3u) B      0.0089
     2 (Ag ) A   11 (B3u) A    3 (B1u) B      0.0088
     1 (B1u) B    1 (B2g) B    3 (B1u) B     -0.0087
     1 (B1u) A    1 (B2g) A    3 (B1u) B      0.0084
    -------------------------------------------------
  ----------------------------------------------------------------------------


  Electron-attached state  7 (B2g)                                 [converged]
  ----------------------------------------------------------------------------
  Term symbol:  7 (2) B2g                                   R^2 =  1.30002e-09

  Total energy:                                            -78.1618040096 a.u.
  Electron attachment energy:                                      5.206349 eV

  Pole strength:                                                      0.876322

  Dip. moment [a.u.]:                  [   0.000000,    0.000000,   -0.000000]
  Total dipole [Debye]:                                               0.000000
  <r^2> [a.u.]:                        [ 108.273020,   45.848758,   81.683801]
  Total <r^2> [a.u.]:                                               235.805578

  V1^2 = 0.8790, V2^2 = 0.1210

  Important amplitudes:
       occ i       vir a        vir b           v   
    -------------------------------------------------
                               5 (B2g) B      0.8951
                               4 (B2g) B      0.2554
     1 (B1u) A    3 (B1u) A    4 (B2g) B     -0.0980
                               6 (B2g) B     -0.0926
     1 (B1u) A    4 (B1u) A    4 (B2g) B      0.0776
     1 (B1u) A    3 (B1u) A    5 (B2g) B      0.0646
     1 (B1u) A    3 (B1u) A    3 (B2g) B     -0.0580
     1 (B1u) A    4 (B1u) A    5 (B2g) B     -0.0566
     1 (B1u) B    4 (B2g) B    3 (B1u) B      0.0549
     1 (B1u) A    4 (B2g) A    4 (B1u) B      0.0502
                               7 (B2g) B      0.0435
     1 (B1u) A    4 (B2g) A    3 (B1u) B     -0.0432
                               3 (B2g) B      0.0430
     1 (B1u) A    4 (B1u) A    3 (B2g) B      0.0421
     1 (B1u) B    5 (B2g) B    3 (B1u) B     -0.0347
     1 (B1u) B    3 (B2g) B    3 (B1u) B      0.0339
     1 (B1u) A    5 (B2g) A    4 (B1u) B     -0.0336
     1 (B1u) A    3 (B1u) A    6 (B2g) B     -0.0312
     1 (B1u) A    5 (B1u) A    4 (B2g) B      0.0302
     1 (B1u) A    4 (B1u) A    6 (B2g) B      0.0301
     1 (B1u) A    5 (B2g) A    3 (B1u) B      0.0299
     1 (B1u) A    3 (B2g) A    4 (B1u) B      0.0297
     1 (B1u) B    4 (B2g) B    4 (B1u) B     -0.0273
     1 (B1u) A    5 (B1u) A    5 (B2g) B     -0.0242
     1 (B1u) A    3 (B2g) A    3 (B1u) B     -0.0241
     1 (B1u) A    4 (B2g) A    5 (B1u) B      0.0233
     1 (B1u) B    5 (B2g) B    4 (B1u) B      0.0230
     1 (B1u) A    4 (B1u) A    7 (B2g) B     -0.0213
     1 (B1u) A    3 (B1u) A    7 (B2g) B      0.0202
     1 (B1u) A    3 (B1u) A    2 (B2g) B     -0.0190
     1 (B1u) A    6 (B2g) A    4 (B1u) B      0.0163
     1 (B1u) B    6 (B2g) B    3 (B1u) B      0.0160
     1 (B1u) A    5 (B2g) A    5 (B1u) B     -0.0159
     1 (B1u) A    7 (B1u) A    4 (B2g) B     -0.0158
                               9 (B2g) B     -0.0157
     1 (B1u) A    6 (B2g) A    3 (B1u) B     -0.0152
     1 (B1u) A    5 (B1u) A    3 (B2g) B      0.0151
     1 (B1u) A    5 (B1u) A    6 (B2g) B      0.0142
     1 (B1u) B    6 (B2g) B    4 (B1u) B     -0.0138
     1 (B1u) A    3 (B2g) A    5 (B1u) B      0.0137
    -------------------------------------------------
  ----------------------------------------------------------------------------


  Electron-attached state  8 (B2g)                                 [converged]
  ----------------------------------------------------------------------------
  Term symbol:  8 (2) B2g                                   R^2 =  4.28671e-09

  Total energy:                                            -78.1243330388 a.u.
  Electron attachment energy:                                      6.225986 eV

  Pole strength:                                                      0.045714

  Dip. moment [a.u.]:                  [   0.000000,   -0.000000,   -0.000000]
  Total dipole [Debye]:                                               0.000000
  <r^2> [a.u.]:                        [  88.638733,   60.687480,  126.846590]
  Total <r^2> [a.u.]:                                               276.172803

  V1^2 = 0.0461, V2^2 = 0.9539

  Important amplitudes:
       occ i       vir a        vir b           v   
    -------------------------------------------------
     1 (B1u) A    4 (B1u) A    4 (B2g) B      0.3941
     1 (B1u) A    4 (B1u) A    5 (B2g) B     -0.2668
     1 (B1u) A    4 (B1u) A    3 (B2g) B      0.2283
                               5 (B2g) B     -0.2055
     1 (B1u) A    4 (B2g) A    4 (B1u) B      0.1987
     1 (B1u) B    4 (B2g) B    4 (B1u) B     -0.1954
     1 (B1u) A    5 (B2g) A    4 (B1u) B     -0.1356
     1 (B1u) A    4 (B1u) A    6 (B2g) B      0.1321
     1 (B1u) B    5 (B2g) B    4 (B1u) B      0.1313
     1 (B1u) B    3 (B2g) B    4 (B1u) B     -0.1155
     1 (B1u) A    3 (B2g) A    4 (B1u) B      0.1128
     1 (B1u) A    4 (B1u) A    7 (B2g) B     -0.0871
     1 (B1u) A    4 (B1u) A    2 (B2g) B      0.0751
     1 (B1u) A    6 (B2g) A    4 (B1u) B      0.0665
     1 (B1u) B    6 (B2g) B    4 (B1u) B     -0.0656
                               4 (B2g) B      0.0494
     1 (B1u) B    7 (B2g) B    4 (B1u) B      0.0437
     1 (B1u) A    7 (B2g) A    4 (B1u) B     -0.0434
     1 (B1u) B    2 (B2g) B    4 (B1u) B     -0.0378
     1 (B1u) A    2 (B2g) A    4 (B1u) B      0.0373
     1 (B1u) A    4 (B1u) A    9 (B2g) B      0.0362
                               6 (B2g) B     -0.0305
     1 (B1u) A    5 (B1u) A    4 (B2g) B     -0.0235
     1 (B1u) A    5 (B1u) A    5 (B2g) B      0.0199
     1 (B1u) A    4 (B1u) A    1 (B2g) B     -0.0189
     1 (B1u) B    9 (B2g) B    4 (B1u) B     -0.0184
     1 (B1u) A    9 (B2g) A    4 (B1u) B      0.0178
     2 (Ag ) A    4 (B1u) A   11 (B3u) B     -0.0175
     2 (Ag ) A    4 (B1u) A   13 (B3u) B     -0.0155
                               3 (B2g) B      0.0153
     1 (B1u) B    4 (B2g) B    5 (B1u) B      0.0148
                               7 (B2g) B      0.0141
     1 (B1u) A    3 (B1u) A    4 (B2g) B      0.0137
     1 (B1u) B    5 (B2g) B    5 (B1u) B     -0.0125
     1 (B1u) A    5 (B1u) A    6 (B2g) B     -0.0118
     2 (Ag ) A    4 (B1u) A   14 (B3u) B     -0.0117
     2 (B3u) A    4 (B1u) A   11 (Ag ) B      0.0111
     1 (B1u) A    7 (B1u) A    5 (B2g) B     -0.0109
     2 (Ag ) A    4 (B1u) A    8 (B3u) B     -0.0105
     1 (B1u) A    5 (B1u) A    3 (B2g) B     -0.0105
    -------------------------------------------------
  ----------------------------------------------------------------------------


  Electron-attached state  9 (B2g)                                 [converged]
  ----------------------------------------------------------------------------
  Term symbol:  9 (2) B2g                                   R^2 =  3.02149e-09

  Total energy:                                            -78.0870706682 a.u.
  Electron attachment energy:                                      7.239947 eV

  Pole strength:                                                      0.000065

  Dip. moment [a.u.]:                  [  -0.000000,    0.000000,   -0.000000]
  Total dipole [Debye]:                                               0.000000
  <r^2> [a.u.]:                        [ 200.805897,   83.971614,   68.394328]
  Total <r^2> [a.u.]:                                               353.171839

  V1^2 = 0.0001, V2^2 = 0.9999

  Important amplitudes:
       occ i       vir a        vir b           v   
    -------------------------------------------------
     1 (B1u) A    3 (B3u) A    7 (Ag ) B      0.2980
     1 (B1u) A    3 (B3u) A    4 (Ag ) B      0.2765
     1 (B1u) A    3 (B3u) A    6 (Ag ) B      0.2626
     1 (B1u) B    4 (Ag ) B    3 (B3u) B     -0.1820
     1 (B1u) B    7 (Ag ) B    3 (B3u) B     -0.1793
     1 (B1u) B    6 (Ag ) B    3 (B3u) B     -0.1687
     1 (B1u) A    7 (Ag ) A    3 (B3u) B      0.1187
     1 (B1u) A    4 (B3u) A    4 (Ag ) B      0.1181
     1 (B1u) A    3 (B3u) A    8 (Ag ) B     -0.1028
     1 (B1u) B    4 (Ag ) B    4 (B3u) B     -0.0982
     1 (B1u) A    4 (Ag ) A    3 (B3u) B      0.0944
     1 (B1u) A    6 (Ag ) A    3 (B3u) B      0.0939
     1 (B1u) B    6 (Ag ) B    4 (B3u) B     -0.0870
     1 (B1u) A    3 (B3u) A    5 (Ag ) B      0.0739
     1 (B1u) A    4 (B3u) A    7 (Ag ) B      0.0729
     1 (B1u) A    3 (B3u) A   11 (Ag ) B     -0.0701
     1 (B1u) A    4 (B3u) A    6 (Ag ) B      0.0675
     1 (B1u) B    7 (Ag ) B    4 (B3u) B     -0.0618
     1 (B1u) B    8 (Ag ) B    3 (B3u) B      0.0604
     1 (B1u) A    5 (B3u) A    4 (Ag ) B      0.0599
     1 (B1u) B    4 (Ag ) B    5 (B3u) B     -0.0547
     1 (B1u) A    3 (B3u) A   12 (Ag ) B      0.0543
     1 (B1u) A    2 (B1g) A    3 (B2u) B      0.0536
     1 (B1u) B    6 (Ag ) B    5 (B3u) B     -0.0484
     1 (B1u) A    5 (Ag ) A    4 (B3u) B      0.0474
     1 (B1u) A    2 (B1g) A    4 (B2u) B      0.0459
     1 (B1u) A    3 (B3u) A    9 (Ag ) B      0.0434
     1 (B1u) A    8 (Ag ) A    3 (B3u) B     -0.0424
     1 (B1u) A    5 (Ag ) A    5 (B3u) B      0.0421
     1 (B1u) B   11 (Ag ) B    3 (B3u) B      0.0416
     1 (B1u) A    1 (B2g) A    3 (B1u) B      0.0400
     1 (B1u) B    5 (Ag ) B    3 (B3u) B     -0.0391
     1 (B1u) B    2 (B1g) B    3 (B2u) B      0.0362
     1 (B1u) A    3 (B1g) A    3 (B2u) B      0.0356
     1 (B1u) A    5 (Ag ) A    3 (B3u) B      0.0348
     1 (B1u) A    1 (B2g) A    4 (B1u) B      0.0342
     1 (B1u) A    4 (B3u) A    5 (Ag ) B      0.0321
     1 (B1u) A    2 (B1g) A    2 (B2u) B      0.0318
     1 (B1u) B   12 (Ag ) B    3 (B3u) B     -0.0314
     1 (B1u) A    2 (B1g) A    5 (B2u) B      0.0307
    -------------------------------------------------
  ----------------------------------------------------------------------------


  Electron-attached state 10 (B2g)                                 [converged]
  ----------------------------------------------------------------------------
  Term symbol:  10 (2) B2g                                  R^2 =  8.05522e-09

  Total energy:                                            -78.0805882168 a.u.
  Electron attachment energy:                                      7.416343 eV

  Pole strength:                                                      0.000336

  Dip. moment [a.u.]:                  [  -0.000000,    0.000000,   -0.000000]
  Total dipole [Debye]:                                               0.000000
  <r^2> [a.u.]:                        [ 189.099996,   80.874221,   62.937051]
  Total <r^2> [a.u.]:                                               332.911269

  V1^2 = 0.0003, V2^2 = 0.9997

  Important amplitudes:
       occ i       vir a        vir b           v   
    -------------------------------------------------
     1 (B1u) A    4 (Ag ) A    3 (B3u) B      0.2710
     1 (B1u) A    7 (Ag ) A    3 (B3u) B      0.2439
     1 (B1u) A    6 (Ag ) A    3 (B3u) B      0.2338
     1 (B1u) B    4 (Ag ) B    3 (B3u) B      0.2042
     1 (B1u) B    4 (Ag ) B    4 (B3u) B      0.1726
     1 (B1u) B    6 (Ag ) B    3 (B3u) B      0.1653
     1 (B1u) B    7 (Ag ) B    3 (B3u) B      0.1538
     1 (B1u) A    4 (Ag ) A    4 (B3u) B      0.1491
     1 (B1u) B    6 (Ag ) B    4 (B3u) B      0.1429
     1 (B1u) B    4 (Ag ) B    5 (B3u) B      0.0989
     1 (B1u) B    7 (Ag ) B    4 (B3u) B      0.0977
     1 (B1u) A    3 (B3u) A    7 (Ag ) B      0.0901
     1 (B1u) A    8 (Ag ) A    3 (B3u) B     -0.0875
     1 (B1u) A    4 (Ag ) A    5 (B3u) B      0.0865
     1 (B1u) A    6 (Ag ) A    4 (B3u) B      0.0796
     1 (B1u) B    6 (Ag ) B    5 (B3u) B      0.0761
     1 (B1u) A    3 (B3u) A    6 (Ag ) B      0.0685
     1 (B1u) A    7 (Ag ) A    4 (B3u) B      0.0681
     1 (B1u) A    3 (B3u) A    4 (Ag ) B      0.0668
     1 (B1u) A    4 (B3u) A    6 (Ag ) B     -0.0633
     1 (B1u) A    3 (B2u) A    2 (B1g) B      0.0603
     1 (B1u) A    5 (Ag ) A    3 (B3u) B      0.0582
     1 (B1u) B    8 (Ag ) B    3 (B3u) B     -0.0530
     1 (B1u) B    4 (Ag ) B    6 (B3u) B      0.0517
     1 (B1u) A   11 (Ag ) A    3 (B3u) B     -0.0516
     1 (B1u) A    4 (B2u) A    2 (B1g) B      0.0487
     1 (B1u) B    2 (B1g) B    3 (B2u) B     -0.0483
     1 (B1u) A    4 (Ag ) A    6 (B3u) B      0.0456
     1 (B1u) A    4 (B3u) A    5 (Ag ) B      0.0434
     1 (B1u) A    5 (B3u) A    6 (Ag ) B     -0.0408
     1 (B1u) A    3 (B2u) A    3 (B1g) B      0.0407
     1 (B1u) A    5 (B3u) A    5 (Ag ) B      0.0406
     1 (B1u) B    3 (B1g) B    3 (B2u) B     -0.0384
     1 (B1u) A    2 (B2u) A    2 (B1g) B      0.0380
     1 (B1u) B    6 (Ag ) B    6 (B3u) B      0.0375
     1 (B1u) B    2 (B1g) B    4 (B2u) B     -0.0369
     1 (B1u) B    7 (Ag ) B    5 (B3u) B      0.0362
     1 (B1u) A    6 (Ag ) A    5 (B3u) B      0.0352
     1 (B1u) B    2 (B1g) B    2 (B2u) B     -0.0352
     1 (B1u) A    3 (B3u) A    8 (Ag ) B     -0.0345
    -------------------------------------------------
  ----------------------------------------------------------------------------


  Electron-attached state 11 (B2g)                                 [converged]
  ----------------------------------------------------------------------------
  Term symbol:  11 (2) B2g                                  R^2 =  1.63324e-08

  Total energy:                                            -78.0693059106 a.u.
  Electron attachment energy:                                      7.723350 eV

  Pole strength:                                                      0.000405

  Dip. moment [a.u.]:                  [  -0.000000,    0.000000,   -0.000000]
  Total dipole [Debye]:                                               0.000000
  <r^2> [a.u.]:                        [ 256.039554,  104.229216,   88.853973]
  Total <r^2> [a.u.]:                                               449.122743

  V1^2 = 0.0004, V2^2 = 0.9996

  Important amplitudes:
       occ i       vir a        vir b           v   
    -------------------------------------------------
     1 (B1u) A    4 (B3u) A    4 (Ag ) B      0.2456
     1 (B1u) B    4 (Ag ) B    4 (B3u) B     -0.2373
     1 (B1u) A    4 (B3u) A    7 (Ag ) B      0.2062
     1 (B1u) B    6 (Ag ) B    4 (B3u) B     -0.1941
     1 (B1u) B    7 (Ag ) B    3 (B3u) B      0.1905
     1 (B1u) A    4 (B3u) A    6 (Ag ) B      0.1874
     1 (B1u) B    7 (Ag ) B    4 (B3u) B     -0.1655
     1 (B1u) B    6 (Ag ) B    3 (B3u) B      0.1579
     1 (B1u) B    4 (Ag ) B    3 (B3u) B      0.1334
     1 (B1u) A    3 (B3u) A    7 (Ag ) B     -0.1194
     1 (B1u) B    4 (Ag ) B    5 (B3u) B     -0.1154
     1 (B1u) A    5 (B3u) A    4 (Ag ) B      0.0954
     1 (B1u) A    3 (B3u) A    6 (Ag ) B     -0.0931
     1 (B1u) A    4 (Ag ) A    3 (B3u) B      0.0852
     1 (B1u) B    8 (Ag ) B    3 (B3u) B     -0.0778
     1 (B1u) A    7 (Ag ) A    3 (B3u) B      0.0711
     1 (B1u) B    6 (Ag ) B    5 (B3u) B     -0.0699
     1 (B1u) A    4 (B3u) A    8 (Ag ) B     -0.0675
     1 (B1u) A    4 (B3u) A    5 (Ag ) B      0.0648
     1 (B1u) A    6 (Ag ) A    3 (B3u) B      0.0648
     1 (B1u) B    4 (Ag ) B    6 (B3u) B     -0.0571
     1 (B1u) B    5 (Ag ) B    3 (B3u) B      0.0560
     1 (B1u) A    3 (B3u) A    4 (Ag ) B     -0.0482
     1 (B1u) A    4 (B3u) A   11 (Ag ) B     -0.0476
     1 (B1u) A    3 (B3u) A    8 (Ag ) B      0.0475
     1 (B1u) B    8 (Ag ) B    4 (B3u) B      0.0466
     1 (B1u) A    6 (B3u) A    4 (Ag ) B      0.0443
     1 (B1u) B   11 (Ag ) B    3 (B3u) B     -0.0435
     1 (B1u) A    5 (Ag ) A    4 (B3u) B      0.0432
     1 (B1u) B    2 (B1g) B    3 (B2u) B     -0.0408
     1 (B1u) A    7 (Ag ) A    4 (B3u) B      0.0408
     1 (B1u) A    3 (B2g) A    2 (B1u) B     -0.0403
     1 (B1u) B    3 (B2g) B    2 (B1u) B     -0.0403
     1 (B1u) A    5 (B3u) A    7 (Ag ) B      0.0399
     1 (B1u) B   11 (Ag ) B    4 (B3u) B      0.0385
     1 (B1u) A    5 (B3u) A    6 (Ag ) B      0.0384
     1 (B1u) A    2 (B2g) A    3 (B1u) B     -0.0380
     1 (B1u) A    3 (B1g) A    3 (B2u) B      0.0377
     1 (B1u) B    7 (Ag ) B    5 (B3u) B     -0.0376
     1 (B1u) A    4 (B3u) A   12 (Ag ) B      0.0373
    -------------------------------------------------
  ----------------------------------------------------------------------------


  Electron-attached state 12 (B2g)                                 [converged]
  ----------------------------------------------------------------------------
  Term symbol:  12 (2) B2g                                  R^2 =  6.30362e-08

  Total energy:                                            -78.0619466048 a.u.
  Electron attachment energy:                                      7.923607 eV

  Pole strength:                                                      0.000051

  Dip. moment [a.u.]:                  [  -0.000000,    0.000000,   -0.000000]
  Total dipole [Debye]:                                               0.000000
  <r^2> [a.u.]:                        [ 252.656896,  105.853814,   87.694376]
  Total <r^2> [a.u.]:                                               446.205086

  V1^2 = 0.0001, V2^2 = 0.9999

  Important amplitudes:
       occ i       vir a        vir b           v   
    -------------------------------------------------
     1 (B1u) A    4 (Ag ) A    4 (B3u) B      0.3081
     1 (B1u) A    7 (Ag ) A    4 (B3u) B      0.2333
     1 (B1u) A    6 (Ag ) A    4 (B3u) B      0.2029
     1 (B1u) A    4 (B3u) A    7 (Ag ) B      0.1722
     1 (B1u) A    4 (B3u) A    4 (Ag ) B      0.1666
     1 (B1u) A    7 (Ag ) A    3 (B3u) B     -0.1622
     1 (B1u) B    4 (Ag ) B    4 (B3u) B      0.1415
     1 (B1u) A    6 (Ag ) A    3 (B3u) B     -0.1358
     1 (B1u) A    4 (Ag ) A    5 (B3u) B      0.1239
     1 (B1u) A    4 (B3u) A    6 (Ag ) B      0.1024
     1 (B1u) B    6 (Ag ) B    4 (B3u) B      0.1005
     1 (B1u) B    7 (Ag ) B    3 (B3u) B     -0.0946
     1 (B1u) A    4 (B3u) A    5 (Ag ) B      0.0897
     1 (B1u) B    4 (Ag ) B    5 (B3u) B      0.0863
     1 (B1u) A    8 (Ag ) A    4 (B3u) B     -0.0847
     1 (B1u) A    5 (Ag ) A    4 (B3u) B      0.0838
     1 (B1u) B    6 (Ag ) B    3 (B3u) B     -0.0765
     1 (B1u) A    4 (B3u) A    8 (Ag ) B     -0.0694
     1 (B1u) A    3 (B3u) A    7 (Ag ) B     -0.0676
     1 (B1u) A    8 (Ag ) A    3 (B3u) B      0.0657
     1 (B1u) A    4 (Ag ) A    3 (B3u) B     -0.0624
     1 (B1u) B    4 (Ag ) B    3 (B3u) B     -0.0620
     1 (B1u) A    4 (Ag ) A    6 (B3u) B      0.0619
     1 (B1u) B    7 (Ag ) B    4 (B3u) B      0.0611
     1 (B1u) A    3 (B3u) A    6 (Ag ) B     -0.0593
     1 (B1u) A    3 (B2u) A    3 (B1g) B      0.0532
     1 (B1u) A   11 (Ag ) A    4 (B3u) B     -0.0485
     1 (B1u) B    6 (Ag ) B    5 (B3u) B      0.0474
     1 (B1u) A    7 (Ag ) A    5 (B3u) B      0.0434
     1 (B1u) A    5 (Ag ) A    3 (B3u) B     -0.0431
     1 (B1u) B    4 (Ag ) B    6 (B3u) B      0.0430
     1 (B1u) A    3 (B2u) A    2 (B1g) B     -0.0421
     1 (B1u) B    8 (Ag ) B    3 (B3u) B      0.0414
     1 (B1u) A    4 (B2u) A    3 (B1g) B      0.0409
     1 (B1u) A    3 (B1g) A    3 (B2u) B      0.0394
     1 (B1u) A    5 (B3u) A    5 (Ag ) B      0.0393
     1 (B1u) A   11 (Ag ) A    3 (B3u) B      0.0378
     1 (B1u) A    5 (B3u) A    4 (Ag ) B      0.0376
     1 (B1u) A    2 (B2u) A    3 (B1g) B      0.0373
     1 (B1u) A    4 (B3u) A   11 (Ag ) B     -0.0370
    -------------------------------------------------
  ----------------------------------------------------------------------------


  Electron-attached state 13 (B2g)                                 [converged]
  ----------------------------------------------------------------------------
  Term symbol:  13 (2) B2g                                  R^2 =  4.65472e-08

  Total energy:                                            -78.0579050150 a.u.
  Electron attachment energy:                                      8.033584 eV

  Pole strength:                                                      0.002112

  Dip. moment [a.u.]:                  [  -0.000000,   -0.000000,    0.000000]
  Total dipole [Debye]:                                               0.000000
  <r^2> [a.u.]:                        [ 141.176357,   98.967441,  161.649654]
  Total <r^2> [a.u.]:                                               401.793452

  V1^2 = 0.0021, V2^2 = 0.9979

  Important amplitudes:
       occ i       vir a        vir b           v   
    -------------------------------------------------
     1 (B1u) A    4 (B2g) A    2 (B1u) B      0.2424
     1 (B1u) B    3 (B2g) B    2 (B1u) B      0.2404
     1 (B1u) B    4 (B2g) B    2 (B1u) B      0.2359
     1 (B1u) A    3 (B2g) A    2 (B1u) B      0.2287
     1 (B1u) B    2 (B2g) B    2 (B1u) B      0.1774
     1 (B1u) B    1 (B2g) B    2 (B1u) B     -0.1530
     1 (B1u) A    2 (B2g) A    2 (B1u) B      0.1458
     1 (B1u) A    2 (B1g) A    3 (B2u) B      0.1202
     1 (B1u) B    1 (B2g) B    3 (B1u) B     -0.1190
     1 (B1u) A    1 (B2g) A    2 (B1u) B     -0.1177
     1 (B1u) B    2 (B1g) B    3 (B2u) B      0.1157
     1 (B1u) A    2 (B1g) A    4 (B2u) B      0.0991
     1 (B1u) B    2 (B1g) B    2 (B2u) B      0.0969
     1 (B1u) A    5 (B2g) A    2 (B1u) B     -0.0962
     1 (B1u) A    1 (B2g) A    3 (B1u) B     -0.0933
     1 (B1u) B    2 (B1g) B    4 (B2u) B      0.0909
     1 (B1u) B    5 (B2g) B    2 (B1u) B     -0.0869
     1 (B1u) A    2 (B1g) A    2 (B2u) B      0.0857
     1 (B1u) B    1 (B2g) B    4 (B1u) B     -0.0816
     1 (B1u) A    1 (B2g) A    4 (B1u) B     -0.0723
     1 (B1u) A    2 (B1g) A    5 (B2u) B      0.0636
     1 (B1u) B    2 (B2g) B    3 (B1u) B      0.0577
     1 (B1u) B    2 (B1g) B    5 (B2u) B      0.0569
     1 (B1u) A    4 (B3u) A    7 (Ag ) B      0.0543
     1 (B1u) A    4 (B3u) A    6 (Ag ) B      0.0513
     1 (B1u) A    1 (B2g) A    5 (B1u) B     -0.0449
     1 (B1u) B    3 (B1g) B    2 (B2u) B      0.0447
     1 (B1u) B    6 (Ag ) B    4 (B3u) B     -0.0447
     1 (B1u) B    1 (B2g) B    5 (B1u) B     -0.0433
                               6 (B2g) B     -0.0381
     1 (B1u) B    3 (B2g) B    3 (B1u) B      0.0363
     1 (B1u) A    2 (B1u) A    1 (B2g) B      0.0352
     1 (B1u) B    7 (Ag ) B    4 (B3u) B     -0.0332
     1 (B1u) B    2 (B2g) B    4 (B1u) B      0.0327
     1 (B1u) A    2 (B2g) A    3 (B1u) B      0.0325
     1 (B1u) A    2 (B1u) A    2 (B2g) B     -0.0316
     1 (B1u) B    3 (B1g) B    3 (B2u) B      0.0306
     1 (B1u) B    4 (Ag ) B    3 (B3u) B      0.0288
     1 (B1u) A    3 (B2g) A    3 (B1u) B      0.0281
     3 (Ag ) B    2 (B1u) B   12 (B3u) B      0.0280
    -------------------------------------------------
  ----------------------------------------------------------------------------


  Electron-attached state 14 (B2g)                                 [converged]
  ----------------------------------------------------------------------------
  Term symbol:  14 (2) B2g                                  R^2 =  3.84215e-08

  Total energy:                                            -78.0565816051 a.u.
  Electron attachment energy:                                      8.069596 eV

  Pole strength:                                                      0.000266

  Dip. moment [a.u.]:                  [  -0.000000,   -0.000000,    0.000000]
  Total dipole [Debye]:                                               0.000000
  <r^2> [a.u.]:                        [ 192.712897,  175.542678,   88.480280]
  Total <r^2> [a.u.]:                                               456.735855

  V1^2 = 0.0003, V2^2 = 0.9997

  Important amplitudes:
       occ i       vir a        vir b           v   
    -------------------------------------------------
     1 (B1u) B    2 (B1g) B    3 (B2u) B     -0.2668
     1 (B1u) A    2 (B1g) A    3 (B2u) B     -0.2508
     1 (B1u) B    2 (B1g) B    2 (B2u) B     -0.2214
     1 (B1u) B    2 (B1g) B    4 (B2u) B     -0.2087
     1 (B1u) A    2 (B1g) A    4 (B2u) B     -0.2049
     1 (B1u) A    2 (B1g) A    2 (B2u) B     -0.1774
     1 (B1u) A    2 (B1g) A    5 (B2u) B     -0.1308
     1 (B1u) B    2 (B1g) B    5 (B2u) B     -0.1295
     1 (B1u) A    4 (B2g) A    2 (B1u) B      0.1198
     1 (B1u) B    4 (B2g) B    2 (B1u) B      0.1177
     1 (B1u) B    3 (B2g) B    2 (B1u) B      0.1152
     1 (B1u) A    3 (B2g) A    2 (B1u) B      0.1120
     1 (B1u) B    6 (Ag ) B    3 (B3u) B     -0.1007
     1 (B1u) B    3 (B1g) B    2 (B2u) B     -0.0833
     1 (B1u) B    2 (B2g) B    2 (B1u) B      0.0759
     1 (B1u) B    5 (Ag ) B    4 (B3u) B      0.0728
     1 (B1u) A    2 (B2g) A    2 (B1u) B      0.0664
     1 (B1u) A    2 (B2u) A    3 (B1g) B      0.0597
     1 (B1u) B    5 (Ag ) B    3 (B3u) B      0.0591
     1 (B1u) A    3 (B3u) A    6 (Ag ) B      0.0566
     1 (B1u) A    2 (B1g) A    7 (B2u) B      0.0565
     1 (B1u) B    2 (B1g) B    7 (B2u) B      0.0550
     1 (B1u) B    6 (Ag ) B    4 (B3u) B     -0.0550
     1 (B1u) B    4 (B1g) B    2 (B2u) B     -0.0513
     1 (B1u) A    5 (Ag ) A    4 (B3u) B      0.0507
     1 (B1u) A    2 (B1g) A    6 (B2u) B     -0.0507
     1 (B1u) B    7 (Ag ) B    3 (B3u) B     -0.0495
     1 (B1u) B    2 (B1g) B    6 (B2u) B     -0.0482
     1 (B1u) A    5 (B2g) A    2 (B1u) B     -0.0475
     1 (B1u) B    3 (B1g) B    3 (B2u) B     -0.0448
     1 (B1u) B    5 (B2g) B    2 (B1u) B     -0.0446
     1 (B1u) B    5 (Ag ) B    5 (B3u) B      0.0443
     1 (B1u) A    6 (Ag ) A    3 (B3u) B     -0.0441
     1 (B1u) A    2 (B2u) A    2 (B1g) B      0.0440
     1 (B1u) A    2 (B1g) A    8 (B2u) B      0.0438
     1 (B1u) B    2 (B1g) B    8 (B2u) B      0.0408
     1 (B1u) A    4 (B3u) A    6 (Ag ) B      0.0405
     1 (B1u) B    1 (B2g) B    2 (B1u) B     -0.0380
     1 (B1u) A    2 (B2u) A    4 (B1g) B      0.0373
     1 (B1u) B    6 (Ag ) B    5 (B3u) B     -0.0368
    -------------------------------------------------
  ----------------------------------------------------------------------------


  Electron-attached state 15 (B2g)                                 [converged]
  ----------------------------------------------------------------------------
  Term symbol:  15 (2) B2g                                  R^2 =  4.31227e-08

  Total energy:                                            -78.0535012300 a.u.
  Electron attachment energy:                                      8.153418 eV

  Pole strength:                                                      0.000005

  Dip. moment [a.u.]:                  [  -0.000000,   -0.000000,   -0.000000]
  Total dipole [Debye]:                                               0.000000
  <r^2> [a.u.]:                        [ 224.066319,  207.255068,   81.100404]
  Total <r^2> [a.u.]:                                               512.421790

  V1^2 = 0.0000, V2^2 = 1.0000

  Important amplitudes:
       occ i       vir a        vir b           v   
    -------------------------------------------------
     1 (B1u) A    3 (B2u) A    2 (B1g) B      0.3415
     1 (B1u) A    4 (B2u) A    2 (B1g) B      0.2750
     1 (B1u) A    2 (B2u) A    2 (B1g) B      0.2214
     1 (B1u) A    2 (B1g) A    3 (B2u) B      0.2073
     1 (B1u) A    2 (B1g) A    4 (B2u) B      0.1777
     1 (B1u) A    5 (B2u) A    2 (B1g) B      0.1707
     1 (B1u) B    2 (B1g) B    3 (B2u) B     -0.1341
     1 (B1u) B    2 (B1g) B    2 (B2u) B     -0.1205
     1 (B1u) A    2 (B1g) A    5 (B2u) B      0.1147
     1 (B1u) A    2 (B1g) A    2 (B2u) B      0.1010
     1 (B1u) B    2 (B1g) B    4 (B2u) B     -0.0973
     1 (B1u) A    6 (Ag ) A    3 (B3u) B     -0.0720
     1 (B1u) A    7 (B2u) A    2 (B1g) B     -0.0716
     1 (B1u) A    3 (B1g) A    2 (B2u) B     -0.0662
     1 (B1u) B    6 (Ag ) B    3 (B3u) B     -0.0653
     1 (B1u) A    1 (B2g) A    3 (B1u) B     -0.0613
     1 (B1u) A    6 (B2u) A    2 (B1g) B      0.0612
     1 (B1u) A    3 (B1u) A    1 (B2g) B     -0.0593
     1 (B1u) B    3 (B1g) B    2 (B2u) B     -0.0575
     1 (B1u) A    7 (Ag ) A    3 (B3u) B     -0.0568
     1 (B1u) B    2 (B1g) B    5 (B2u) B     -0.0560
     1 (B1u) A    8 (B2u) A    2 (B1g) B     -0.0523
     1 (B1u) B    5 (Ag ) B    4 (B3u) B      0.0512
     1 (B1u) A    1 (B2g) A    4 (B1u) B     -0.0498
     1 (B1u) A    2 (B1g) A    7 (B2u) B     -0.0492
     1 (B1u) A    4 (B1u) A    1 (B2g) B     -0.0442
[...]
-2.13406072183000034e-01 3.92720819292323498e-01 9.55726000275528426e-02 -7.55970487714029277e-02 -1.56354745215501245e-01 -2.08150155724520863e-01 4.14532850833683297e-01 3.86620220284900951e-01 4.07214390584992314e-01 -1.50925681247030852e+00 2.95255781268297213e+00 1.36569471745249893e+00 -3.66110757120330419e+01 -1.67437867209816016e+00 1.69151336763481419e+00 -1.05459613356309134e+00 5.31208247173574621e-01 1.82084124884312182e+00 -1.06132364010098779e+00 -4.40678633316713153e+00 -1.32699641015296810e+00 -1.84180717164393726e+00 2.49166001817619520e+00 1.79313130110418073e+00 2.90711567170304175e+00 1.06997090524604044e+00 6.80198072335652992e-01 -4.27354006209720705e+00 3.19470500718830763e+00 -3.00267362262363235e+00
-7.60717318498384254e-02 1.42898696945514853e-01 2.29668477186905154e-02 -2.83779049471377838e-02 -2.31789179948706965e-02 -8.79968786364703215e-02 1.37130452275257220e-01 1.25399904201822482e-01 1.61671856612790532e+00 -2.31427387600310253e+00 1.45316576491811666e+00 9.70209860163499860e-01 -1.67437867209816016e+00 -3.16674994990065599e+01 -2.13828199894944859e+00 7.45491156977867275e-01 -6.52735757546538009e-01 1.05459399963775780e+00 3.29081014392836879e-01 4.20475688831512873e-01 5.41843918750326647e+00 2.15287869469420645e+00 -7.43235878970117270e+00 -1.65516379762690913e+00 -3.19035484518112122e+00 3.22350218746178463e+00 1.35641503305692379e+00 7.24399896486801609e+00 -1.82330888901988142e+00 -2.89107242434679090e+00
1.10862700436525404e-02 4.57144910232671340e-04 9.80625812143811476e-03 1.05817813707124227e-02 -1.03058911855011176e-01 -1.38940405318789921e-02 2.29706026046965772e-02 1.50122157079969121e-01 4.37565707734481890e-01 -1.03450633133091086e+00 -1.52705271175612389e-01 4.23453385416472761e-01 1.69151336763481419e+00 -2.13828199894944859e+00 -2.79459079184961645e+01 -1.17262462033177006e+00 2.90701104364351037e-01 -2.28086151858139186e-01 -5.71706214341437258e-02 1.60037983273018170e+00 2.55586355665607723e-01 3.33458039337981127e-01 -2.94200330231393092e+00 8.67476860660120641e-01 1.02777517829010918e+01 -9.21913798512366789e+00 -1.78847781325766997e+00 2.98267971172291313e+00 2.33279957048962494e+00 5.45353553643083688e-01
-7.69390086167295734e-02 1.53676074111953442e-01 1.10032931146425081e-01 1.91316300082718521e-02 -1.97034604995480200e-01 -1.44320482259764737e-01 1.61084972954140482e-01 4.32983323739779991e-01 2.38733846604859101e+00 -1.05295580352969820e+00 -3.38568978432860213e-01 -3.06270245965278298e-02 -1.05459613356309134e+00 7.45491156977867275e-01 -1.17262462033177006e+00 -3.11926163718006535e+01 -1.10536782433054359e+00 6.29999858303376792e-01 7.07071630488393499e-01 -4.28350366128229965e+00 9.07533163650846575e-02 8.52111048293689999e-02 1.95542610812852891e+00 2.33151304607723286e+00 -1.79917077202062681e-01 2.34051800676270405e-02 4.94424018900374129e+00 1.51361429716761631e+00 9.38219387041412034e+00 -1.00151313210229951e+01
-7.69983124078794656e-02 1.38850689642639247e-01 7.70048538632685659e-02 4.62026290155424704e-03 9.74481413879851044e-02 -7.83608628010652036e-02 9.24924193954538704e-02 3.66432448821925891e-03 2.32382250957764036e+00 -2.85981881735027965e+00 -6.57764697139992305e-01 -1.09856692907788256e+00 5.31208247173574621e-01 -6.52735757546538009e-01 2.90701104364351037e-01 -1.10536782433054359e+00 -2.96793926971525153e+01 4.56289168890847252e-01 6.32583640363026944e-02 -1.93148975709971849e+00 -3.26567502458064052e+00 1.27962659785999389e+00 7.63381168888371864e+00 -1.90588288194996713e+00 -5.97843797742121152e-01 9.87468412090639180e-01 -1.30839965171426553e+00 1.16578703792519223e+00 -2.99592497514761291e+00 8.00108539674488028e-01
-1.59001738521545333e+00 3.13967991018143300e+00 2.10927943049484279e+00 4.67208892416321242e-01 -5.47230574694152239e+00 -3.97777438871813027e+00 5.01042154125354333e+00 1.14972000071806626e+01 -2.25210215448428475e+00 -2.29760981611788817e-01 3.49488057617334980e-01 2.48785672121832335e-01 1.82084124884312182e+00 1.05459399963775780e+00 -2.28086151858139186e-01 6.29999858303376792e-01 4.56289168890847252e-01 -1.68611325145024615e+01 5.84331164367032807e-01 1.38013120512975340e+00 -4.52017793055163875e-02 7.68430156836515166e-01 1.73813395053740605e-01 -2.58672666847420019e-01 2.48315823284718684e+00 2.78069186481040376e+00 6.30432085556202670e-01 4.12449512658697615e-01 -9.95685314642494435e-01 1.12210849626733067e+00
-1.46631126658336802e-01 2.71243468463836568e-01 1.75768883645565227e-01 2.53700556063487966e-02 -5.33995125591582354e-01 -3.81296709975070591e-01 4.41125682369279348e-01 1.15925285730436833e+00 5.99332410688427952e+00 2.87799717513298514e+00 -2.39670946771251625e+00 -5.25707895852631069e+00 -1.06132364010098779e+00 3.29081014392836879e-01 -5.71706214341437258e-02 7.07071630488393499e-01 6.32583640363026944e-02 5.84331164367032807e-01 -2.69005807605229634e+01 -1.57193441124191602e+00 1.57853340843050893e+00 -1.63448858678742859e+00 -1.19374668189622368e+00 3.47765014606761458e-01 7.36650328446832092e-01 8.90262194993402423e-01 -9.42376688536810558e-01 -1.51159876212459354e-01 1.89945334548964850e+00 -6.07765330864376008e-02
-1.12575899210942729e-01 3.82489089249372846e-02 2.26420449223638312e-02 -3.33564175607043920e-03 5.55579169144217233e-01 2.10718061550661390e-01 -1.53342515475481861e-01 -9.42366715565222779e-01 -3.33861388510786838e-01 -2.23433336806354355e+00 7.46143227990382574e-01 1.13759632688222256e-01 -4.40678633316713153e+00 4.20475688831512873e-01 1.60037983273018170e+00 -4.28350366128229965e+00 -1.93148975709971849e+00 1.38013120512975340e+00 -1.57193441124191602e+00 -3.61212246729603592e+01 7.90102825014055199e+00 1.95789359898747350e+00 -2.29165554300876706e-01 -1.67217532030490224e-01 4.83519329744475201e-01 1.19653362057467949e+00 -1.61628760747105038e+00 -2.27649781840683385e+00 3.14402211203248338e+00 -1.16621609250799914e+01
1.21181409686417788e-01 -7.98257866755601175e-02 -1.15767877003423086e-01 -7.39496492476820200e-02 1.13646257306362819e+00 8.26309502294480858e-01 -3.94953546382091791e-01 -2.61121397621197149e+00 -1.95512279546395007e+00 2.01679481005418104e+00 3.35824267547562272e+00 -2.58700337837503058e+00 -1.32699641015296810e+00 5.41843918750326647e+00 2.55586355665607723e-01 9.07533163650846575e-02 -3.26567502458064052e+00 -4.52017793055163875e-02 1.57853340843050893e+00 7.90102825014055199e+00 -2.26216087742253720e+01 1.56596330578648768e+00 -3.82798654943338312e-01 -1.32234373797455240e+00 6.14820845465346766e-01 -5.37351038184396668e-01 1.25330946942105959e+00 -2.90132859605770177e-01 -1.29833733915571248e+00 4.61094578561026669e+00
-2.05610429475882067e-01 4.22983317826345073e-01 2.72698051130229380e-01 2.21904564942250644e-02 9.95537192631842149e-01 5.19517444815131069e-01 2.88642685985290914e-01 -2.30136139954939400e+00 -1.20021464474203365e+00 2.08513497528456426e+00 -3.69828012551818652e+00 2.22285862542970714e+00 -1.84180717164393726e+00 2.15287869469420645e+00 3.33458039337981127e-01 8.52111048293689999e-02 1.27962659785999389e+00 7.68430156836515166e-01 -1.63448858678742859e+00 1.95789359898747350e+00 1.56596330578648768e+00 -2.66673657490098286e+01 2.32361113600032088e+00 -2.25826939255654613e-01 6.17710921466646523e-01 2.55900655684313927e+00 3.46211557337191278e-01 -4.62267142850328927e+00 1.12702331145594048e+00 2.06554708208888904e+00
-7.02319228788077649e-02 2.07120123830387637e-01 8.38583018784159473e-02 -1.83488942320233703e-02 9.34618290205958435e-01 6.64243944887517257e-01 -5.16364269254575292e-03 -2.23295624721005614e+00 4.68914953664879786e-01 -5.83892889543391025e-01 1.84100120744492757e+00 -1.10428235937513275e+00 2.49166001817619520e+00 -7.43235878970117270e+00 -2.94200330231393092e+00 1.95542610812852891e+00 7.63381168888371864e+00 1.73813395053740605e-01 -1.19374668189622368e+00 -2.29165554300876706e-01 -3.82798654943338312e-01 2.32361113600032088e+00 -2.40510250580150000e+01 9.36028670196087043e-01 7.81952457721095007e-01 -2.27981067953509031e-01 -5.84033665879568842e-01 6.65268926062664523e+00 -2.17810180553099286e+00 4.89121028449941431e-01
-3.55322044896576150e-01 6.08146533573429737e-01 5.07779467301288090e-01 1.18921320905328393e-01 5.58478949631082022e-01 1.85018311595797375e-01 7.68666372716223734e-01 -1.31237411592706454e+00 -1.71013066904574202e+01 8.14008359949769122e+00 6.68058132251775394e+00 -4.84742044019173335e+00 1.79313130110418073e+00 -1.65516379762690913e+00 8.67476860660120641e-01 2.33151304607723286e+00 -1.90588288194996713e+00 -2.58672666847420019e-01 3.47765014606761458e-01 -1.67217532030490224e-01 -1.32234373797455240e+00 -2.25826939255654613e-01 9.36028670196087043e-01 -2.81936383041274858e+01 1.96525888888190847e+00 2.37294191426371537e+00 -5.26970776831126031e-02 -1.50387394648551620e+00 -3.00973314017015159e-01 1.04146903206664065e+00
-1.61366414591429419e+00 2.86745502406061803e+00 2.36689867144091659e+00 6.24609894892618644e-01 1.45999365765611921e+00 2.23646453820451230e-01 3.47227662010369320e+00 -3.93571366720011095e+00 6.04282843382598944e+00 2.58210495984323041e+00 -4.75033015944746062e-01 -6.25223015819228012e-01 2.90711567170304175e+00 -3.19035484518112122e+00 1.02777517829010918e+01 -1.79917077202062681e-01 -5.97843797742121152e-01 2.48315823284718684e+00 7.36650328446832092e-01 4.83519329744475201e-01 6.14820845465346766e-01 6.17710921466646523e-01 7.81952457721095007e-01 1.96525888888190847e+00 -2.22411138695109472e+01 6.28297591342793638e+00 5.20814565052409861e+00 -2.29376291103230601e-01 -4.63352563114013405e-01 1.30766346344272932e+00
-1.73176606781961318e+00 2.98284877950912719e+00 2.57794402954426349e+00 7.01559770273055716e-01 1.69983052766210130e+00 6.24354417267948492e-01 3.73330120861890213e+00 -4.99491885555545423e+00 3.30662023425389906e+00 4.39556239156215600e+00 1.12162550473730693e+00 1.01879914548084871e+00 1.06997090524604044e+00 3.22350218746178463e+00 -9.21913798512366789e+00 2.34051800676270405e-02 9.87468412090639180e-01 2.78069186481040376e+00 8.90262194993402423e-01 1.19653362057467949e+00 -5.37351038184396668e-01 2.55900655684313927e+00 -2.27981067953509031e-01 2.37294191426371537e+00 6.28297591342793638e+00 -2.23035114059397443e+01 5.32986653527679444e+00 3.18412146997346079e+00 -2.39302295950578525e+00 -6.68760901048118805e-02
-9.37892360150607729e-01 1.65039940258660556e+00 1.38922634661642830e+00 3.84630730664033582e-01 1.06249620486174945e+00 3.56759616612794206e-01 1.96655660285876088e+00 -2.61883811713176096e+00 -5.19385617129923993e+00 -1.34896921292003693e+01 -5.61339732118626245e+00 1.53168645592532071e+00 6.80198072335652992e-01 1.35641503305692379e+00 -1.78847781325766997e+00 4.94424018900374129e+00 -1.30839965171426553e+00 6.30432085556202670e-01 -9.42376688536810558e-01 -1.61628760747105038e+00 1.25330946942105959e+00 3.46211557337191278e-01 -5.84033665879568842e-01 -5.26970776831126031e-02 5.20814565052409861e+00 5.32986653527679444e+00 -3.03691244368867146e+01 2.25919703599991495e+00 -1.12282525924617427e+00 1.36011366956842572e-01
-1.65000845123842332e-01 2.91310604951965313e-01 2.45755774343957234e-01 7.64062494654796087e-02 1.49467882581297701e-01 8.87768628562700252e-02 3.48975029006198589e-01 -4.29886368752212034e-01 -4.06318177004417413e-01 -6.79348816921522491e-01 1.68161679229070593e+00 1.10707328377930764e-01 -4.27354006209720705e+00 7.24399896486801609e+00 2.98267971172291313e+00 1.51361429716761631e+00 1.16578703792519223e+00 4.12449512658697615e-01 -1.51159876212459354e-01 -2.27649781840683385e+00 -2.90132859605770177e-01 -4.62267142850328927e+00 6.65268926062664523e+00 -1.50387394648551620e+00 -2.29376291103230601e-01 3.18412146997346079e+00 2.25919703599991495e+00 -4.83921758203808636e+01 2.74761609357565417e+00 -3.47655371182387096e-02
2.17804901212954594e-01 -3.87042345012936384e-01 -3.66419377638063148e-01 -9.80503441412328147e-02 -3.07184760269317847e-01 -8.00760810439908322e-02 -4.57603308000011477e-01 7.28757506732515159e-01 -4.21339657971803672e-01 -2.81089811577961690e+00 -1.34916346640402840e+00 3.18979567208380033e+00 3.19470500718830763e+00 -1.82330888901988142e+00 2.33279957048962494e+00 9.38219387041412034e+00 -2.99592497514761291e+00 -9.95685314642494435e-01 1.89945334548964850e+00 3.14402211203248338e+00 -1.29833733915571248e+00 1.12702331145594048e+00 -2.17810180553099286e+00 -3.00973314017015159e-01 -4.63352563114013405e-01 -2.39302295950578525e+00 -1.12282525924617427e+00 2.74761609357565417e+00 -3.75499699619009206e+01 4.33994300003077704e-01
-1.08535440233554437e-01 2.70449129907852970e-01 2.29931268741942973e-01 4.11408848331722421e-02 1.66191402432607632e-01 -3.30863890489735551e-02 2.62059995252627964e-01 -1.13114675107561805e-01 -4.50157794206210404e+00 -3.34914389701964987e+00 6.02521232963413422e-01 1.45132816684054999e+00 -3.00267362262363235e+00 -2.89107242434679090e+00 5.45353553643083688e-01 -1.00151313210229951e+01 8.00108539674488028e-01 1.12210849626733067e+00 -6.07765330864376008e-02 -1.16621609250799914e+01 4.61094578561026669e+00 2.06554708208888904e+00 4.89121028449941431e-01 1.04146903206664065e+00 1.30766346344272932e+00 -6.68760901048118805e-02 1.36011366956842572e-01 -3.47655371182387096e-02 4.33994300003077704e-01 -3.80987330393736698e+01

************************************************************
  Printing results (es2es) ...  CPU 0.15 s  wall 0.25 s
  Time of ADC calculation:  CPU 2703.75 s  wall 467.35 s
--------------------------------------------------------------------------------
================================================================================
 
 --------------------------------------------------------------
             Orbital Energies (a.u.) and Symmetries
 --------------------------------------------------------------
 
 Alpha MOs, Restricted
 -- Occupied --                  
-11.236 -11.235  -1.042  -0.782  -0.660  -0.567  -0.515  -0.377
  1 Ag    1 B3u   2 Ag    2 B3u   1 B2u   3 Ag    1 B1g   1 B1u                
 -- Virtual --                   
  0.011   0.012   0.012   0.018   0.018   0.021   0.037   0.037
  3 B3u   2 B2u   2 B1u   2 B1g   1 B2g   4 Ag    4 B3u   3 B2u                
  0.040   0.047   0.047   0.047   0.076   0.081   0.084   0.089
  3 B1u   5 Ag    3 B1g   2 B2g   6 Ag    5 B3u   4 B2u   4 B1u                
  0.091   0.097   0.114   0.139   0.156   0.162   0.174   0.176
  3 B2g   4 B1g   7 Ag    4 B2g   6 B3u   5 B2u   8 Ag    5 B1u                
  0.177   0.179   0.197   0.206   0.209   0.254   0.260   0.282
  5 B1g   7 B3u   9 Ag    1 B3g   5 B2g   8 B3u   6 B2u   1 Au                 
  0.291   0.309   0.312   0.320   0.324   0.346   0.360   0.382
  6 B1u  10 Ag    6 B1g   9 B3u   7 B2u   6 B2g   7 B1u  10 B3u                
  0.386   0.419   0.454   0.456   0.489   0.510   0.541   0.567
 11 Ag    7 B1g  12 Ag    8 B2u  11 B3u   7 B2g  13 Ag    8 B1g                
  0.568   0.593   0.653   0.657   0.706   0.713   0.734   0.842
  2 B3g   9 B2u  12 B3u  14 Ag    8 B1u   2 Au   13 B3u   9 B1g                
  0.913   0.927   1.041   1.059   1.074   1.093   1.133   1.198
 14 B3u   8 B2g  10 B2u   9 B1u  15 Ag   10 B1g   9 B2g  15 B3u                
  1.233   1.278   1.515   1.539   1.583   1.647   1.654   1.797
 11 B2u  16 Ag   16 B3u  11 B1g  17 Ag   10 B1u   3 B3g   3 Au                 
  1.805   1.825   1.895   1.946   1.947   1.960   2.028   2.040
 18 Ag   12 B2u  10 B2g  11 B1u  17 B3u  12 B1g   4 B3g  19 Ag                 
  2.239   2.276   2.367   2.474   2.550   2.634   2.661   2.720
 13 B2u  18 B3u  11 B2g   4 Au   20 Ag   13 B1g  19 B3u  20 B3u                
  2.877   2.898   3.453   3.657
 14 B2u  21 Ag   14 B1g  21 B3u                                                
 
 Beta MOs, Restricted
 -- Occupied --                  
-11.236 -11.235  -1.042  -0.782  -0.660  -0.567  -0.515  -0.377
  1 Ag    1 B3u   2 Ag    2 B3u   1 B2u   3 Ag    1 B1g   1 B1u                
 -- Virtual --                   
  0.011   0.012   0.012   0.018   0.018   0.021   0.037   0.037
  3 B3u   2 B2u   2 B1u   2 B1g   1 B2g   4 Ag    4 B3u   3 B2u                
  0.040   0.047   0.047   0.047   0.076   0.081   0.084   0.089
  3 B1u   5 Ag    3 B1g   2 B2g   6 Ag    5 B3u   4 B2u   4 B1u                
  0.091   0.097   0.114   0.139   0.156   0.162   0.174   0.176
  3 B2g   4 B1g   7 Ag    4 B2g   6 B3u   5 B2u   8 Ag    5 B1u                
  0.177   0.179   0.197   0.206   0.209   0.254   0.260   0.282
  5 B1g   7 B3u   9 Ag    1 B3g   5 B2g   8 B3u   6 B2u   1 Au                 
  0.291   0.309   0.312   0.320   0.324   0.346   0.360   0.382
  6 B1u  10 Ag    6 B1g   9 B3u   7 B2u   6 B2g   7 B1u  10 B3u                
  0.386   0.419   0.454   0.456   0.489   0.510   0.541   0.567
 11 Ag    7 B1g  12 Ag    8 B2u  11 B3u   7 B2g  13 Ag    8 B1g                
  0.568   0.593   0.653   0.657   0.706   0.713   0.734   0.842
  2 B3g   9 B2u  12 B3u  14 Ag    8 B1u   2 Au   13 B3u   9 B1g                
  0.913   0.927   1.041   1.059   1.074   1.093   1.133   1.198
 14 B3u   8 B2g  10 B2u   9 B1u  15 Ag   10 B1g   9 B2g  15 B3u                
  1.233   1.278   1.515   1.539   1.583   1.647   1.654   1.797
 11 B2u  16 Ag   16 B3u  11 B1g  17 Ag   10 B1u   3 B3g   3 Au                 
  1.805   1.825   1.895   1.946   1.947   1.960   2.028   2.040
 18 Ag   12 B2u  10 B2g  11 B1u  17 B3u  12 B1g   4 B3g  19 Ag                 
  2.239   2.276   2.367   2.474   2.550   2.634   2.661   2.720
 13 B2u  18 B3u  11 B2g   4 Au   20 Ag   13 B1g  19 B3u  20 B3u                
  2.877   2.898   3.453   3.657
 14 B2u  21 Ag   14 B1g  21 B3u                                                
 --------------------------------------------------------------
 
          Ground-State Mulliken Net Atomic Charges

     Atom                 Charge (a.u.)
  ----------------------------------------
      1 C                    -0.077393
      2 C                    -0.077393
      3 H                     0.038697
      4 H                     0.038697
      5 H                     0.038697
      6 H                     0.038697
  ----------------------------------------
  Sum of atomic charges =     0.000000

 -----------------------------------------------------------------
                    Cartesian Multipole Moments
 -----------------------------------------------------------------
    Charge (ESU x 10^10)
                -0.0000
    Dipole Moment (Debye)
         X       0.0000      Y       0.0000      Z      -0.0000
       Tot       0.0000
    Quadrupole Moments (Debye-Ang)
        XX     -12.9004     XY       0.0000     YY     -11.9748
        XZ      -0.0000     YZ      -0.0000     ZZ     -16.1438
    Octopole Moments (Debye-Ang^2)
       XXX       0.0000    XXY       0.0000    XYY       0.0000
       YYY      -0.0000    XXZ       0.0000    XYZ       0.0000
       YYZ      -0.0000    XZZ       0.0000    YZZ      -0.0000
       ZZZ      -0.0000
    Hexadecapole Moments (Debye-Ang^3)
      XXXX     -68.9338   XXXY       0.0000   XXYY     -13.4823
      XYYY       0.0000   YYYY     -27.1242   XXXZ      -0.0000
      XXYZ      -0.0000   XYYZ      -0.0000   YYYZ      -0.0000
      XXZZ     -15.5124   XYZZ       0.0000   YYZZ      -9.0111
      XZZZ      -0.0000   YZZZ      -0.0000   ZZZZ     -21.8512
 -----------------------------------------------------------------
 Total job time:  550.28s(wall), 2752.36s(cpu) 
 Mon Mar 28 00:54:53 2022

        *************************************************************
        *                                                           *
        *  Thank you very much for using Q-Chem.  Have a nice day.  *
        *                                                           *
        *************************************************************


