CFour on node02
 --invoking executable--
/home/tsommerfeld/zscale/bin/xjoda


   *************************************************************************
         <<<     CCCCCC     CCCCCC   |||     CCCCCC     CCCCCC   >>>
       <<<      CCC        CCC       |||    CCC        CCC         >>>
      <<<      CCC        CCC        |||   CCC        CCC            >>>
    <<<        CCC        CCC        |||   CCC        CCC              >>>
      <<<      CCC        CCC        |||   CCC        CCC            >>>
       <<<      CCC        CCC       |||    CCC        CCC         >>>
         <<<     CCCCCC     CCCCCC   |||     CCCCCC     CCCCCC   >>>
   *************************************************************************

     ****************************************************************
     * CFOUR Coupled-Cluster techniques for Computational Chemistry *
     ****************************************************************
 

   Department of Chemistry                Institut fuer Physikalische Chemie
   University of Florida                  Universitaet Mainz
   Gainesville, FL 32611, USA             D-55099 Mainz, Germany

   Department of Chemistry                Department of Chemistry
   Johns Hopkins University               Southern Methodist University
   Baltimore, MD 21218, USA               Dallas, TX 75275, USA

   Institute of Nanotechnology            Department of Physical Chemistry
   Karlsruhe Inst. of Technology          Eotvos Lorand University
   D-76021 Karlsruhe, Germany             H-1053 Budapest, Hungary

 
                       Version 2.1
 
                     node02                                            
                     Thu Mar 31 13:59:35 CST 2022                      
                     integer*8 version is running
 
********************************************************************************
*                          Input from ZMAT file                                *
********************************************************************************
h_ethylene                                                                      
C       0.000000      0.0   -0.664500                                           
C       0.000000      0.0    0.664500                                           
H       0.962348      0.0   -1.159080                                           
H       0.962348      0.0    1.159080                                           
H      -0.962348      0.0   -1.159080                                           
H      -0.962348      0.0    1.159080                                           
H      0.000000      4.2      0.000000                                          
                                                                                
*CFOUR(CALC=CCSD                                                                
#EXCITE=EOMEE                                                                   
#ESTATE_SYM=0/3/0/0                                                             
CC_PROG=VCC                                                                     
CHARGE=-1                                                                       
COORDINATES=CARTESIAN                                                           
BASIS=SPECIAL                                                                   
REFERENCE=RHF                                                                   
MEM_SIZE=90,MEM_UNIT=GB)                                                        
                                                                                
C:cc-pVTZ                                                                       
C:cc-pVTZ                                                                       
H:cc-pVTZ                                                                       
H:cc-pVTZ                                                                       
H:cc-pVTZ                                                                       
H:cc-pVTZ                                                                       
H:aug-cc-pVTZ                                                                   
                                                                                
********************************************************************************
  @GTFLGS-W, Keyword #EXCITE not known and is ignored.
  @GTFLGS-W, Keyword #ESTATE_SYM not known and is ignored.
    -------------------------------------------------------------------
                    CFOUR Control Parameters 
    -------------------------------------------------------------------
        External           Internal           Value            Units
          Name               Name
    -------------------------------------------------------------------
       ABCDTYPE             IABCDT         STANDARD    [  0]    ***   
       ANHARMONIC           IANHAR         OFF         [  0]    ***   
       ANH_ALGORIT          IANALG         STANDARD    [  0]    ***   
       ANH_DERIVAT          IANDER         SECOND      [  1]    ***   
       ANH_MODE             ANHMOD         VIBRATION   [  0]    ***   
       ANH_STEPSIZ          ICUBST             50000          x 10-6  
       ANH_SYMMETR          IANHSM         ABELIAN     [  0]    ***   
       AO_LADDERS           IAOLAD         SINGLEPASS  [  1]    ***   
       AV_SCF               IAVSCF         OFF         [  0]    ***   
       BASIS                IBASIS         SPECIAL     [  0]    ***   
       BOTHVECTORS          BOTHVC         OFF         [  0]    ***   
       BOX_POTENT           IPIAB          OFF         [  0]    ***   
       BREIT                IBREIT         OFF         [  0]    ***   
       BRUCK_CONV           IBRTOL          10D-  4             ***   
       BRUECKNER            IBRKNR         OFF         [  0]    ***   
       BUFFERSIZE           IBUFFS              4096            ***   
       CACHE_RECS           ICHREC             10               ***   
       CALCLEVEL            ICLLVL         CCSD        [ 10]    ***   
       CCORBOPT             ICCORB         OFF         [  0]  x 0.01  
       CC_CONV              ICCCNV          10D-  7             ***   
       CC_EXPORDER          ICCEOR              5               ***   
       CC_EXTRAPOL          ICCEXT         DIIS        [  1]    ***   
       CC_GUESS             ICCGES         MP2         [  0]    ***   
       CC_MAXCYC            ICCCYC            100              cycles 
       CC_PROGRAM           ICCPRO         VCC         [  0]    ***   
       CHARGE               ICHRGE             -1               ***   
       CHOLESKY             ICHOLE         OFF         [  0]    ***   
       CIS_CONV             ICISTL              5               ***   
       COMM_SIZE            IPSIZE            ***               ***   
       CONSTANT             ICONST         OLD         [  1]    ***   
       CONTINUUM            ICONTU         NONE        [  0]    ***   
       CONTRACTION          ICNTYP         GENERAL     [  1]    ***   
       COORDINATES          ICOORD         CARTESIAN   [  1]    ***   
       CPHF_CONVER          ICPHFT          10D- 16             ***   
       CPHF_MAXCYC          ICPHFC             64              cycles 
       CUBIC                ICUBIC         OFF         [  0]    ***   
       CURVILINEAR          ICURVY         OFF         [  0]    ***   
       DBOC                 IDBOC          OFF         [  0]    ***   
       DCT                  IDCT           OFF         [  0]    ***   
       DERIV_LEV            IDRLVL         ZERO        [  0]    ***   
       DEVMEM_SIZE          IDVMEM         *********           MByte  
       DIAG_MRCC            IEOMST          10D-  0             ***   
       DIFF_TYPE            IDIFTY         RELAXED     [  0]    ***   
       DIRECT               IDIRCT         OFF         [  0]    ***   
       DROPMO               IDRPMO      NONE         
       ECP                  IECP           OFF         [  0]    ***   
       EIGENVECTOR          IVEC                1               ***   
       EL_ANHARM            IELANH         OFF         [  0]    ***   
       EOMFOLLOW            IEOMSR         ENERGY      [  0]    ***   
       EOMIP                IEOMIP         OFF         [  0]    ***   
       EOMLEVEL             HBARFM         SAME        [  0]    ***   
       EOM_MRCC             IMRCCE         NEW         [  1]    ***   
       EOM_NONIT            EOMNON         OFF         [  0]    ***   
       EOM_NSING            IEOMSI          10D-  0             ***   
       EOM_NSTATES          IMRCCD         DAVIDSON    [  0]    ***   
       EOM_NTRIP            IEOMTR          10D-  0             ***   
       EOM_ORDER            IEXORD         ENERGY      [  0]    ***   
       EOM_PROPSTA          IEOMST              0               ***   
       ESTATE_CONV          IEXTOL          10D-  5             ***   
       ESTATE_DIAG          IEXDIG         ITERATIVE   [  0]    ***   
       ESTATE_LOCK          IESLOC         ON          [  1]    ***   
       ESTATE_MAXC          IEXMXC             40               ***   
       ESTATE_PROP          IEXPRP         OFF         [  0]    ***   
       EVAL_HESS            IRECAL              0            # of cyc.
       EXCITATION           IEXCIT              0               ***   
       EXCITE               IEXCIT         NONE        [  0]    ***   
       EXTERN_POT           IEXPOT         OFF         [  0]    ***   
       FCGRADNEW            IFCGNW         OFF         [  0]    ***   
       FC_FIELD             IFINFC              0             x 10-6  
       FD_CALTYPE           IFDCAL         GRADONLY    [  0]    ***   
       FD_PROJECT           IFDPRJ         OFF         [  1]    ***   
       FD_STEPSIZE          IDISFD              0            10-4 bohr
       FD_USEGROUP          IFDGRP         FULL        [  0]    ***   
       FILE_RECSIZ          IFLREC              4096           words  
       FINITE_PERT          IFIPER              0             x 10-6  
       FIXGEOM              IFIXGM         OFF         [  0]    ***   
       FOCK                 IFOCK          AO          [  1]    ***   
       FREQ_ALGORI          IVIALG         STANDARD    [  0]    ***   
       FROZEN_CORE          IFROCO         OFF         [  0]    ***   
       GAMMA_ABCD           IGABCD         STORE       [  0]    ***   
       GAMMA_ABCI           IGABCI         STORE       [  0]    ***   
       GENBAS_1             IGNBS1              0               ***   
       GENBAS_2             IGNBS2              0               ***   
       GENBAS_3             IGNBS3              0               ***   
       GENBAS_4             IGNBS4              0               ***   
       GEO_CONV             ICONTL              5              H/bohr 
       GEO_MAXCYC           IOPTCY             50               ***   
       GEO_MAXSTEP          IMXSTP            300            millibohr
       GEO_METHOD           INR            SINGLE_POINT[  5]    ***   
       GIAO                 IGIAO          OFF         [  1]    ***   
       GIMIC                IGIMIC         OFF         [  0]    ***   
       GRID                 IGRID          OFF         [  0]    ***   
       GRID_ALGO            IGALGO         SERIAL      [  0]    ***   
       GUESS                IGUESS         MOREAD      [  0]    ***   
       HBAR                 IHBAR          OFF         [  0]    ***   
       HESS_TYPE            IHESTP         SCF         [  0]    ***   
       HF2_FILE             IHF2Fl         USE         [  1]    ***   
       HFSTABILITY          ISTABL         OFF         [  0]    ***   
       INCORE               INCORE         OFF         [  0]    ***   
       INPUT_MRCC           IMRCC          ON          [  1]    ***   
       INTEGRALS            INTTYP         VMOL        [  1]    ***   
       JODA_PRINT           IJPRNT              0               ***   
       KEYWORD_OUT          IDMPKW         NO          [  0]    ***   
       LINDEP_TOL           ILINDP              8               ***   
       LINEQ_CONV           IZTACN          10D-  7           cycles  
       LINEQ_EXPOR          ILMAXD              5               ***   
       LINEQ_MAXCY          ILMAXC            100               ***   
       LINEQ_TYPE           ILTYPE         DIIS        [  1]    ***   
       LOCK_ORBOCC          ILOCOC         OFF         [  0]    ***   
       MEMORY_SIZE          IMEMSZ         *********           words  
       MEM_UNIT             IMEMU          GB          [  3]    ***   
       MRCC                 IMRCCC         OFF         [  0]    ***   
       MULTIPLICTY          IMULTP              1               ***   
       NACOUPLING           IVCOUP         OFF         [  0]    ***   
       NEGEVAL              IDIE           ABORT       [  0]    ***   
       NEWNORM              INEWNO         OFF         [  0]    ***   
       NON-HF               INONHF         OFF         [  0]    ***   
       NTOP_TAMP            ITOPT2             15               ***   
       NUC_MODEL            INUCMO         POINT       [  0]    ***   
       OCCUPATION           IOCCU   ESTIMATED BY SCF 
       OPEN-SHELL           IOPEN          SPIN-ORBITAL[  0]    ***   
       OPTVIB               IOPTVB         OFF         [  0]    ***   
       ORBITALS             IORBTP         STANDARD    [  0]    ***   
       PARALLEL             IPARAL         ON          [  1]    ***   
       PARA_INT             IPINTS         ON          [  1]    ***   
       PARA_PRINT           IPPRIN              0               ***   
       PERT_ORB             IPTORB         STANDARD    [  0]    ***   
       POINTS               IGRDFD              0               ***   
       PRINT                IPRNT               0               ***   
       PROPS                IPROPS         OFF         [  0]    ***   
       PROP_INTEGR          IINTYP         INTERNAL    [  0]    ***   
       PSI                  IPSI           OFF         [  0]    ***   
       QC_ALG               IQCALG         FLM         [  0]    ***   
       QC_LINALG            IQCLIN         TRIDIAG     [  2]    ***   
       QC_MAXCYC            IQCMAX          10D-100           cycles  
       QC_MAXSCFCY          IQCMSC          10D- 15           cycles  
       QC_RTRUST            IQCRTR          10D-  0           x 10-3  
       QC_SKIPSCF           IQCSKI         OFF         [  0]    ***   
       QC_START             IQCSTA          10D-  1             ***   
       QRHFGUESS            IQGUES         OFF         [  0]    ***   
       QUARTIC              IQUART         OFF         [  0]    ***   
       RAMAN_INT            IRAMIN         OFF         [  0]    ***   
       RAMAN_ORB            IRAMRE         UNRELAXED   [  0]    ***   
       RDO                  IRDOFM         OFF         [  0]    ***   
       REDUCE_REPR          REDREP         Ir          [  0]    ***   
       REFERENCE            IREFNC         RHF         [  0]    ***   
       RELATIVIST           IRELAT         OFF         [  0]    ***   
       RELAX_DENS           IRDENS         OFF         [  0]    ***   
       RESET_FLAGS          IRESET         OFF         [  0]    ***   
       RESTART_CC           ICCRES         OFF         [  0]    ***   
       ROT_EVEC             ROTVEC              0               ***   
       SAVE_INTS            ISVINT         OFF         [  0]    ***   
       SCALE_ON             ISTCRT              0               ***   
       SCF_CONV             ISCFCV          10D-  7             ***   
       SCF_DAMPING          IDAMP               0             x 10-3  
       SCF_EXPORDE          IRPPOR              6               ***   
       SCF_EXPSTAR          IRPPLS              8               ***   
       SCF_EXTRAPO          IRPP           ON          [  1]    ***   
       SCF_MAXCYC           ISCFCY            150              cycles 
       SCF_NOSTOP           ISCFST         OFF         [  0]    ***   
       SCF_PRINT            ISCFPR              0               ***   
       SCF_PROG             ISCFPR         SCF         [  0]    ***   
       SD_FIELD             IFINSD              0             x 10-6  
       SOPERT               IPERSO         OFF         [  0]    ***   
       SPHERICAL            IDFGHI         ON          [  1]    ***   
       SPINORBIT            ISOCAL         OFF         [  0]    ***   
       SPINROTATIO          ISRCON         OFF         [  0]    ***   
       SPIN_FLIP            ISPFLP         OFF         [  0]    ***   
       SPIN_ORBIT           ISPORB         OFF         [  0]    ***   
       SPIN_SCAL            ISCSMP         OFF         [  0]    ***   
       STEEPSCALE           ISTPSC              1000          x 10-3  
       SUBGROUP             ISUBGP         DEFAULT     [  0]    ***   
       SUBGRPAXIS           ISBXYZ         X           [  0]    ***   
       SYMMETRY             ISYM           ON          [  0]    ***   
       SYM_CHECK            ISYMCK         OVERRIDE    [  1]    ***   
       T3_EXTRAPOL          IT3EXT         OFF         [  0]    ***   
       T4_EXTRAPOL          IT4EXP         OFF         [  0]    ***   
       TAMP_SUM             IEVERY              5               ***   
       TESTSUITE            ITESTS         OFF         [  0]    ***   
       THERMOCH             ITHERM         OFF         [  0]    ***   
       TOL_CHOLESK          ITOLCH          10D-  4             ***   
       TRANGRAD             IRESRM         OFF         [  0]    ***   
       TRANS_INV            ITRAIN         USE         [  0]    ***   
       TREAT_PERT           ITREAT         SIMULTANEOUS[  0]    ***   
       TRIP_ALGORI          ITRALG         NORMAL      [  0]    ***   
       UIJ_THRESHO          IUIJTH              1               ***   
       UNITS                IUNITS         ANGSTROM    [  0]    ***   
       UNOS                 IUNOS          OFF         [  0]    ***   
       UPDATE_HESS          IHUPDT         ON          [  1]    ***   
       VIBPHASE             ISETPH         STANDARD    [  0]    ***   
       VIBRATION            IVIB           NO          [  0]    ***   
       VIB_ALGORIT          IGEALG         STANDARD    [  0]    ***   
       VNATORB              IVNORB         OFF         [  0]    ***   
       VTRAN                IVTRAN         FULL/PARTIAL[  0]    ***   
       XFIELD               IXEFLD              0             x 10-6  
       XFORM_TOL            IXFTOL          10D- 11             ***   
       YFIELD               IYEFLD              0             x 10-6  
       ZFIELD               IZEFLD              0             x 10-6  
       ZSCALE_EXP           IZEXPS         OFF         [  0]    ***   
    -------------------------------------------------------------------
  @GETXYZ-I,     7 atoms read from ZMAT.
   Rotational constants (in cm-1): 
          0.5081518753             0.8067984966             0.8536890782
   Rotational constants (in MHz): 
      15234.0121090490         24187.2138288124         25592.9582983935
********************************************************************************
   The full molecular point group is C2v .
   The largest Abelian subgroup of the full molecular point group is C2v .
   The computational point group is C2v .
********************************************************************************


 ----------------------------------------------------------------
         Coordinates used in calculation (QCOMP) 
 ----------------------------------------------------------------
 Z-matrix   Atomic            Coordinates (in bohr)
  Symbol    Number           X              Y              Z
 ----------------------------------------------------------------
     C         6        -1.25572327     0.00000000    -0.27545449
     C         6         1.25572327     0.00000000    -0.27545449
     H         1        -2.19034422     1.81857454    -0.27545449
     H         1         2.19034422     1.81857454    -0.27545449
     H         1        -2.19034422    -1.81857454    -0.27545449
     H         1         2.19034422    -1.81857454    -0.27545449
     H         1         0.00000000     0.00000000     7.66139689
 ----------------------------------------------------------------
 
   Interatomic distance matrix (Angstroms) 
 
                 C             C             H             H             H    
                [ 1]        [ 2]        [ 3]        [ 4]        [ 5]
  C    [ 1]     0.00000
  C    [ 2]     1.32900     0.00000
  H    [ 3]     1.08200     2.06193     0.00000
  H    [ 4]     2.06193     1.08200     2.31816     0.00000
  H    [ 5]     1.08200     2.06193     1.92470     3.01303     0.00000
  H    [ 6]     2.06193     1.08200     3.01303     1.92470     2.31816
  H    [ 7]     4.25224     4.25224     4.46202     4.46202     4.46202
 
                 H             H    
                [ 6]        [ 7]
  H    [ 6]     0.00000
  H    [ 7]     4.46202     0.00000
 rotcon2
   Rotational constants (in cm-1): 
          0.8067984966             0.5081518753             0.8536890782
   Rotational constants (in MHz): 
      24187.2138288124         15234.0121090490         25592.9582983935
  ECPDATA file not present.   Using default ECPDATA. 
  @GTFLGS-W, Keyword #EXCITE not known and is ignored.
  @GTFLGS-W, Keyword #ESTATE_SYM not known and is ignored.
  There are  139 basis functions.
 @GEOPT-W, Archive file not created for single-point calculation.
 @CHECKOUT-I, Total execution time (CPU/WALL):        0.12/       0.14 seconds.
--executable xjoda finished with status     0 in        0.15 seconds (walltime).
 --invoking executable--
/home/tsommerfeld/zscale/bin/xvmol
 SERIAL VERSION OF MOLECULE STARTED
********************************************************************************
                    INPUT FROM MOL FILE
********************************************************************************
INTGRL        1    0    1    0    0    0    0    0    0                         
         *** CFOUR Program System (Release V0.1) ***                            
h_ethylene                                                                      
    3    2 X  Y       0.10E-08              0    0                              
   9999.00      3.00                                                            
          6.00000000    1    4    1    1    1    1                              
C #1  -1.255723272983657   0.000000000000000  -0.275454493842055                
   10    4                                                                      
   8236.00000000000       5.310000000000000E-004  0.000000000000000E+000        
 -1.130000000000000E-004  0.000000000000000E+000                                
   1235.00000000000       4.108000000000000E-003  0.000000000000000E+000        
 -8.780000000000000E-004  0.000000000000000E+000                                
   280.800000000000       2.108700000000000E-002  0.000000000000000E+000        
 -4.540000000000000E-003  0.000000000000000E+000                                
   79.2700000000000       8.185300000000000E-002  0.000000000000000E+000        
 -1.813300000000000E-002  0.000000000000000E+000                                
   25.5900000000000       0.234817000000000       0.000000000000000E+000        
 -5.576000000000000E-002  0.000000000000000E+000                                
   8.99700000000000       0.434401000000000       0.000000000000000E+000        
 -0.126895000000000       0.000000000000000E+000                                
   3.31900000000000       0.346129000000000       0.000000000000000E+000        
 -0.170352000000000       0.000000000000000E+000                                
  0.905900000000000       3.937800000000000E-002   1.00000000000000             
  0.140382000000000       0.000000000000000E+000                                
  0.364300000000000      -8.983000000000000E-003  0.000000000000000E+000        
  0.598684000000000       0.000000000000000E+000                                
  0.128500000000000       2.385000000000000E-003  0.000000000000000E+000        
  0.395389000000000        1.00000000000000                                     
    5    3                                                                      
   18.7100000000000       0.000000000000000E+000  1.403100000000000E-002        
  0.000000000000000E+000                                                        
   4.13300000000000       0.000000000000000E+000  8.686600000000000E-002        
  0.000000000000000E+000                                                        
   1.20000000000000       0.000000000000000E+000  0.290216000000000             
  0.000000000000000E+000                                                        
  0.382700000000000        1.00000000000000       0.501008000000000             
  0.000000000000000E+000                                                        
  0.120900000000000       0.000000000000000E+000  0.343406000000000             
   1.00000000000000                                                             
    2    2                                                                      
   1.09700000000000        1.00000000000000       0.000000000000000E+000        
  0.318000000000000       0.000000000000000E+000   1.00000000000000             
    1    1                                                                      
  0.761000000000000        1.00000000000000                                     
          1.00000000    1    3    1    1    1                                   
H #2  -2.190344215575466   1.818574537711477  -0.275454493842055                
    5    3                                                                      
   33.8700000000000       0.000000000000000E+000  6.068000000000000E-003        
  0.000000000000000E+000                                                        
   5.09500000000000       0.000000000000000E+000  4.530800000000000E-002        
  0.000000000000000E+000                                                        
   1.15900000000000       0.000000000000000E+000  0.202822000000000             
  0.000000000000000E+000                                                        
  0.325800000000000        1.00000000000000       0.503903000000000             
  0.000000000000000E+000                                                        
  0.102700000000000       0.000000000000000E+000  0.383421000000000             
   1.00000000000000                                                             
    2    2                                                                      
   1.40700000000000        1.00000000000000       0.000000000000000E+000        
  0.388000000000000       0.000000000000000E+000   1.00000000000000             
    1    1                                                                      
   1.05700000000000        1.00000000000000                                     
          1.00000000    1    3    1    1    1                                   
H #3   0.000000000000000   0.000000000000000   7.661396892962099                
    6    4                                                                      
   33.8700000000000       0.000000000000000E+000  6.068000000000000E-003        
  0.000000000000000E+000  0.000000000000000E+000                                
   5.09500000000000       0.000000000000000E+000  4.530800000000000E-002        
  0.000000000000000E+000  0.000000000000000E+000                                
   1.15900000000000       0.000000000000000E+000  0.202822000000000             
  0.000000000000000E+000  0.000000000000000E+000                                
  0.325800000000000        1.00000000000000       0.503903000000000             
  0.000000000000000E+000  0.000000000000000E+000                                
  0.102700000000000       0.000000000000000E+000  0.383421000000000             
   1.00000000000000       0.000000000000000E+000                                
  2.526000000000000E-002  0.000000000000000E+000  0.000000000000000E+000        
  0.000000000000000E+000   1.00000000000000                                     
    3    3                                                                      
   1.40700000000000        1.00000000000000       0.000000000000000E+000        
  0.000000000000000E+000                                                        
  0.388000000000000       0.000000000000000E+000   1.00000000000000             
  0.000000000000000E+000                                                        
  0.102000000000000       0.000000000000000E+000  0.000000000000000E+000        
   1.00000000000000                                                             
    2    2                                                                      
   1.05700000000000        1.00000000000000       0.000000000000000E+000        
  0.247000000000000       0.000000000000000E+000   1.00000000000000             
FINISH                                                                          
 
********************************************************************************
 ONE- AND TWO-ELECTRON INTEGRALS OVER SYMMETRY-ADAPTED AOS ARE CALCULATED.

  SPHERICAL HARMONICS ARE USED.
  
  INTEGRALS LESS THAN  0.10E-13 ARE NEGLECTED.

  NUCLEAR REPULSION ENERGY :   35.5569588481 A.U.
  @MOLECU-I, ONE ELECTRON INTEGRALS (CPU/WALL):        0.04/       0.04 SECONDS.
  @TWOEL-I,     709794 INTEGRALS OF SYMMETRY TYPE  I I I I
  @TWOEL-I,    3064375 INTEGRALS OF SYMMETRY TYPE  I J I J
  @TWOEL-I,    1651845 INTEGRALS OF SYMMETRY TYPE  I I J J
  @TWOEL-I,    2640422 INTEGRALS OF SYMMETRY TYPE  I J K L
  @TWOEL-I, TOTAL NUMBER OF 2-E INTEGRALS    8066436.
  @MOLECU-I, TWO ELECTRON INTEGRALS (CPU/WALL):       27.69/       4.50 SECONDS.
 @CHECKOUT-I, Total execution time (CPU/WALL):       27.74/       4.55 seconds.

Running with 8 threads/proc

--executable xvmol finished with status     0 in        4.57 seconds (walltime).
 --invoking executable--
/home/tsommerfeld/zscale/bin/xvmol2ja
 @GETMEM-I,  Allocated   85830 MB of main memory.
 @CHECKOUT-I, Total execution time (CPU/WALL):        0.08/       0.02 seconds.
--executable xvmol2ja finished with status     0 in        0.04 seconds (walltime).
 --invoking executable--
/home/tsommerfeld/zscale/bin/xvscf
  There are  139 functions in the AO basis.

  There are 4 irreducible representations.

       Irrep        # of functions
         1                 45
         2                 39
         3                 29
         4                 26


  Parameters for SCF calculation: 
        SCF reference function:  RHF  
  Maximum number of iterations:  150
     Full symmetry point group: C2v 
     Computational point group: C2v 
        Initial density matrix: MOREAD                 
     SCF convergence tolerance: 10**(- 7)
  DIIS convergence acceleration:  ON
          Latest start for DIIS:   8
                     DIIS order:   6

  Memory information:     823082 words required.
  Fock matrices are constructed from AO integral file.
 @GETMEM-I,  Allocated       6 MB of main memory.
  Initialization and symmetry analysis required      0.002 seconds.

  @INITGES-I, Occupancies from core Hamiltonian:

          Alpha population by irrep:   4    3    1    1
           Beta population by irrep:   4    3    1    1


 total no. of electrons in initial guess :  0.000000000000000E+000
  --------------------------------------------------------------------
  Iteration         Total Energy            Largest Density Difference
  --------------------------------------------------------------------
       0            35.556958848077365              0.0000000000D+00
   current occupation vector 
     4  3  1  1
     4  3  1  1
       1           -51.842456905385411              0.8750842399D+01
   current occupation vector 
     4  3  1  1
     4  3  1  1
       2           -52.595877341091899              0.2942049036D+02
   current occupation vector 
     5  3  1  0
     5  3  1  0
       3           -68.358278780977940              0.2914879118D+02
   current occupation vector 
     4  3  1  1
     4  3  1  1
       4           -55.762972320271224              0.1183098084D+02
   current occupation vector 
     5  3  1  0
     5  3  1  0
       5           -69.428057903047176              0.1181279900D+02
   current occupation vector 
     4  3  1  1
     4  3  1  1
       6           -56.577170776623937              0.7805051993D+01
   current occupation vector 
     5  3  1  0
     5  3  1  0
       7           -69.707104846347590              0.7819195101D+01
   current occupation vector 
     4  3  1  1
     4  3  1  1
       8           -56.782960381435821              0.6872643775D+01
   current occupation vector 
     5  3  1  0
     5  3  1  0
       9           -74.487432104996259              0.7075045816D+01
   current occupation vector 
     4  3  1  1
     4  3  1  1
      10           -76.777429309461183              0.9202716327D+00
   current occupation vector 
     4  3  1  1
     4  3  1  1
      11           -78.421264714593008              0.1623538982D+01
   current occupation vector 
     5  2  1  1
     5  2  1  1
      12           -78.518704504291918              0.5676741645D+00
   current occupation vector 
     5  2  1  1
     5  2  1  1
      13           -78.541617273977948              0.1705478900D+00
   current occupation vector 
     5  2  1  1
     5  2  1  1
      14           -78.543361179843203              0.7315329178D-01
   current occupation vector 
     5  2  1  1
     5  2  1  1
      15           -78.543389621422449              0.1260726056D-01
   current occupation vector 
     5  2  1  1
     5  2  1  1
      16           -78.543390418464213              0.1963649357D-02
   current occupation vector 
     5  2  1  1
     5  2  1  1
      17           -78.543390434633437              0.2534263896D-03
   current occupation vector 
     5  2  1  1
     5  2  1  1
      18           -78.543390435395708              0.3921169938D-04
   current occupation vector 
     5  2  1  1
     5  2  1  1
      19           -78.543390435430155              0.4488564590D-05
   current occupation vector 
     5  2  1  1
     5  2  1  1
      20           -78.543390435430382              0.1892084063D-05
   current occupation vector 
     5  2  1  1
     5  2  1  1
      21           -78.543390435430837              0.5174546406D-06
   current occupation vector 
     5  2  1  1
     5  2  1  1

  SCF has converged.

 Density matrix saved to file den.dat
 total electron number:   18.0000000000000     
     E(SCF)=       -78.543390435430553              0.4381684592D-07


  Final occupancies:

     Alpha population by irrep:   5    2    1    1
      Beta population by irrep:   5    2    1    1


  Eigenvector printing suppressed.

 @PUTMOS-I, Writing converged MOs to NEWMOS. 
 @PUTMOS-I, Symmetry   1 Full Blocks 11 Partial Blocksize   1
 @PUTMOS-I, Symmetry   2 Full Blocks  9 Partial Blocksize   3
 @PUTMOS-I, Symmetry   3 Full Blocks  7 Partial Blocksize   1
 @PUTMOS-I, Symmetry   4 Full Blocks  6 Partial Blocksize   2
 @PUTFOCK-I, Writing converged Fock matrix to NEWFOCK. 
 @PUTFOCK-I, Symmetry   1 Full Blocks 11 Partial Blocksize   1
 @PUTFOCK-I, Symmetry   2 Full Blocks  9 Partial Blocksize   3
 @PUTFOCK-I, Symmetry   3 Full Blocks  7 Partial Blocksize   1
 @PUTFOCK-I, Symmetry   4 Full Blocks  6 Partial Blocksize   2


 
  ORBITAL EIGENVALUES (ALPHA)  (1H = 27.2113834 eV)

       MO #        E(hartree)               E(eV)           FULLSYM    COMPSYM
       ----   --------------------   --------------------   -------   ---------
    1     1         -11.1080377385        -302.2650737246      A1        A1 (1)
    2    46         -11.1062732636        -302.2170599203      B1        B1 (2)
    3     2          -0.9188131261         -25.0021762469      A1        A1 (1)
    4    47          -0.6624472016         -18.0261047838      B1        B1 (2)
    5    85          -0.5413925779         -14.7320410079      B2        B2 (3)
    6     3          -0.4486756441         -12.2090849750      A1        A1 (1)
    7   114          -0.3978485138         -10.8260084437      A2        A2 (4)
    8     4          -0.2560047004          -6.9662420550      A1        A1 (1)
    9     5          -0.0428042131          -1.1647618545      A1        A1 (1)
  +++++++++++++++++++++++++++++++++++++++++++++++++++++++++++++++++++++++++++++
   10     6           0.2417607657           6.5786448866      A1        A1 (1)
   11    48           0.2739545098           7.4546812013      B1        B1 (2)
   12     7           0.2797513682           7.6124217378      A1        A1 (1)
   13    86           0.2929281021           7.9709788953      B2        B2 (3)
   14    49           0.3000921896           8.1659236276      B1        B1 (2)
   15   115           0.3451565643           9.3921876045      A2        A2 (4)
   16     8           0.4382068371          11.9242142538      A1        A1 (1)
   17    87           0.4507854641          12.2664960955      B2        B2 (3)
   18    50           0.4509940503          12.2721720143      B1        B1 (2)
   19    51           0.4666461205          12.6980864979      B1        B1 (2)
   20     9           0.4791576031          13.0385412464      A1        A1 (1)
   21    10           0.5718993105          15.5621714042      A1        A1 (1)
   22    88           0.5909472727          16.0804928068      B2        B2 (3)
   23    11           0.6664498765          18.1350231053      A1        A1 (1)
   24    52           0.6810591488          18.5325616169      B1        B1 (2)
   25    89           0.7106241141          19.3370652228      B2        B2 (3)
   26    53           0.7228260715          19.6690973622      B1        B1 (2)
   27    12           0.7367430117          20.0477965579      A1        A1 (1)
   28    54           0.7556347365          20.5618665245      B1        B1 (2)
   29    90           0.7875467060          21.4302353630      B2        B2 (3)
   30    13           0.8031929334          21.8559908553      A1        A1 (1)
   31   116           0.8077334302          21.9795440529      A2        A2 (4)
   32    55           0.9008677895          24.5138588132      B1        B1 (2)
   33   117           0.9458945488          25.7390992242      A2        A2 (4)
   34    14           1.0166601353          27.6647287282      A1        A1 (1)
   35   118           1.0214255867          27.7944032530      A2        A2 (4)
   36    91           1.0964989632          29.8372536844      B2        B2 (3)
   37    15           1.0995537278          29.9203780570      A1        A1 (1)
   38   119           1.1053745521          30.0787707377      A2        A2 (4)
   39    16           1.1070122534          30.1233348546      A1        A1 (1)
   40    56           1.1096132029          30.1941102894      B1        B1 (2)
   41    17           1.1252746985          30.6202812507      A1        A1 (1)
   42   120           1.1361878384          30.9172428841      A2        A2 (4)
   43    92           1.1654224546          31.7127572360      B2        B2 (3)
   44    57           1.3022395822          35.4357405503      B1        B1 (2)
   45    18           1.3034846761          35.4696212777      A1        A1 (1)
   46    93           1.3440725662          36.5740739172      B2        B2 (3)
   47    58           1.3521715601          36.7944587456      B1        B1 (2)
   48    19           1.3537471161          36.8373318018      A1        A1 (1)
   49    94           1.3732068898          37.3668591663      B2        B2 (3)
   50    20           1.3997447106          38.0889899811      A1        A1 (1)
   51    59           1.4395081459          39.1710080643      B1        B1 (2)
   52    95           1.4622303052          39.7893094540      B2        B2 (3)
   53    60           1.4882735170          40.4979812763      B1        B1 (2)
   54    96           1.5790092328          42.9670256272      B2        B2 (3)
   55    61           1.5941097125          43.3779305674      B1        B1 (2)
   56    21           1.6336660406          44.4543129784      A1        A1 (1)
   57    62           1.6639467738          45.2782936187      B1        B1 (2)
   58   121           1.7114090441          46.5698076537      A2        A2 (4)
   59   122           1.7550102686          47.7562572886      A2        A2 (4)
   60    63           1.9192745252          52.2261149538      B1        B1 (2)
   61    22           1.9709005092          53.6309293988      A1        A1 (1)
   62   123           2.0866714431          56.7812166686      A2        A2 (4)
   63    23           2.4317036139          66.1700193543      A1        A1 (1)
   64    24           2.5275819092          68.7790004073      A1        A1 (1)
   65    25           2.6679138624          72.5976269884      A1        A1 (1)
   66    64           2.6858831977          73.0865974612      B1        B1 (2)
   67    97           2.7457207980          74.7148613451      B2        B2 (3)
   68    98           2.8278471511          76.9496330261      B2        B2 (3)
   69    65           2.8608710734          77.8482596362      B1        B1 (2)
   70    26           2.8808159734          78.3909879561      A1        A1 (1)
   71   124           2.9600793404          80.5478538263      A2        A2 (4)
   72    27           2.9960829313          81.5275613409      A1        A1 (1)
   73    99           3.0342191391          82.5653003143      B2        B2 (3)
   74   125           3.1825314197          86.6010826447      A2        A2 (4)
   75    28           3.2200461470          87.6219102727      A1        A1 (1)
   76   100           3.2272852355          87.8188958836      B2        B2 (3)
   77    29           3.2334867851          87.9876486292      A1        A1 (1)
   78   101           3.2392505459          88.1444885341      B2        B2 (3)
   79   126           3.2714542699          89.0207964134      A2        A2 (4)
   80    30           3.2989960713          89.7702469311      A1        A1 (1)
   81    66           3.3513537439          91.1949716338      B1        B1 (2)
   82    67           3.3831534243          92.0602849288      B1        B1 (2)
   83   102           3.4555936455          94.0314835636      B2        B2 (3)
   84    68           3.5216895497          95.8300445516      B1        B1 (2)
   85   127           3.5455528044          96.4793967253      A2        A2 (4)
   86    69           3.5456370110          96.4816881030      B1        B1 (2)
   87   128           3.5643885330          96.9919429590      A2        A2 (4)
   88    70           3.5729440200          97.2247495952      B1        B1 (2)
   89    31           3.6709598161          99.8918950012      A1        A1 (1)
   90    32           3.6973699125         100.6105502595      A1        A1 (1)
   91   103           3.7590018980         102.2876418472      B2        B2 (3)
   92   104           3.8392974217         104.4725941277      B2        B2 (3)
   93   129           3.9333180727         107.0310261091      A2        A2 (4)
   94    71           3.9954874563         108.7227410422      B1        B1 (2)
   95   130           4.0291192468         109.6379085888      A2        A2 (4)
   96    72           4.0857813120         111.1797617696      B1        B1 (2)
   97   131           4.0945994387         111.4197151966      A2        A2 (4)
   98    33           4.1251011301         112.2497084162      A1        A1 (1)
   99   105           4.1288053247         112.3505046748      B2        B2 (3)
  100    34           4.1745215411         113.5945061659      A1        A1 (1)
  101    35           4.2203410846         114.8413193327      A1        A1 (1)
  102   132           4.2206150369         114.8487739541      A2        A2 (4)
  103   106           4.2219628405         114.8854495532      B2        B2 (3)
  104    73           4.2286744090         115.0680806174      B1        B1 (2)
  105    36           4.2358797140         115.2641469335      A1        A1 (1)
  106    74           4.3018465414         117.0591955672      B1        B1 (2)
  107   133           4.3085441837         117.2414476774      A2        A2 (4)
  108    37           4.3186017530         117.5151280516      A1        A1 (1)
  109   107           4.3193118509         117.5344508002      B2        B2 (3)
  110    38           4.4449523412         120.9533023512      A1        A1 (1)
  111   108           4.4504061916         121.1017091651      B2        B2 (3)
  112    75           4.4507189103         121.1102186734      B1        B1 (2)
  113    76           4.4732988525         121.7246501371      B1        B1 (2)
  114    39           4.4891892022         122.1570485360      A1        A1 (1)
  115   109           4.5864233146         124.8029232470      B2        B2 (3)
  116    77           4.6223359238         125.7801550262      B1        B1 (2)
  117   134           4.7242946637         128.5545933895      A2        A2 (4)
  118    40           4.7609381928         129.5517145090      A1        A1 (1)
  119    78           4.8776392238         132.7273110049      B1        B1 (2)
  120    79           4.9339449747         134.2594683815      B1        B1 (2)
  121    41           5.0466532848         137.3264174184      A1        A1 (1)
  122    42           5.0953687970         138.6520339000      A1        A1 (1)
  123   135           5.1448376097         139.9981487293      A2        A2 (4)
  124   110           5.2446213044         142.7134011022      B2        B2 (3)
  125   111           5.3348948306         145.1698686340      B2        B2 (3)
  126    43           5.4191550306         147.4627052430      A1        A1 (1)
  127    80           5.4216215613         147.5298229530      B1        B1 (2)
  128   136           5.5448924938         150.8841955611      A2        A2 (4)
  129   137           5.5595116395         151.2820027403      A2        A2 (4)
  130    81           5.6559254011         153.9055545721      B1        B1 (2)
  131    44           5.6862318666         154.7302354230      A1        A1 (1)
  132   112           5.7371855407         156.1167553845      B2        B2 (3)
  133    82           6.0761589981         165.3406920960      B1        B1 (2)
  134   138           6.2100666985         168.9845058716      A2        A2 (4)
  135   113           6.3883767599         173.8365693172      B2        B2 (3)
  136    83           6.6282352025         180.3634493620      B1        B1 (2)
  137   139           6.9910875926         190.2371648662      A2        A2 (4)
  138    45          12.1030172390         329.3398423881      A1        A1 (1)
  139    84          14.8803652308         404.9153234285      B1        B1 (2)


  VSCF finished.

 @CHECKOUT-I, Total execution time (CPU/WALL):       13.34/       1.68 seconds.
--executable xvscf finished with status     0 in        1.70 seconds (walltime).
 --invoking executable--
/home/tsommerfeld/zscale/bin/xvtran
 @GETMEM-I,  Allocated   85830 MB of main memory.
  Full RHF integral transformation
  Transformation of IIII integrals :
  1 pass through the AO integral file was required.
      709794 AO integrals were read.
      997326 MO integrals were written to HF2.
  Transformation of IIJJ integrals :
  1 pass through the AO integral file was required.
     1651845 AO integrals were read.
     2386575 MO integrals were written to HF2.
  Transformation of IJIJ integrals :
  1 pass through the AO integral file was required.
     3064375 AO integrals were read.
     4517476 MO integrals were written to HF2.
  Transformation of IJKL integrals :
  1 pass through the AO integral file was required.
     2640422 AO integrals were read.
     3969810 MO integrals were written to HF2.
  Summary of active molecular orbitals: 
------------------------------------------------------------------------
 
  Index      Eigenvalue    Symmetry    Index      Eigenvalue    Symmetry
------------------------------------------------------------------------
     1       -11.1080377        1        71         3.5456370        2
     2        -0.9188131        1        72         3.5729440        2
     3        -0.4486756        1        73         3.9954875        2
     4        -0.2560047        1        74         4.0857813        2
     5        -0.0428042        1        75         4.2286744        2
     6       -11.1062733        2        76         4.3018465        2
     7        -0.6624472        2        77         4.4507189        2
     8        -0.5413926        3        78         4.4732989        2
     9        -0.3978485        4        79         4.6223359        2
    10         0.2417608        1        80         4.8776392        2
    11         0.2797514        1        81         4.9339450        2
    12         0.4382068        1        82         5.4216216        2
    13         0.4791576        1        83         5.6559254        2
    14         0.5718993        1        84         6.0761590        2
    15         0.6664499        1        85         6.6282352        2
    16         0.7367430        1        86        14.8803652        2
    17         0.8031929        1        87         0.2929281        3
    18         1.0166601        1        88         0.4507855        3
    19         1.0995537        1        89         0.5909473        3
    20         1.1070123        1        90         0.7106241        3
    21         1.1252747        1        91         0.7875467        3
    22         1.3034847        1        92         1.0964990        3
    23         1.3537471        1        93         1.1654225        3
    24         1.3997447        1        94         1.3440726        3
    25         1.6336660        1        95         1.3732069        3
    26         1.9709005        1        96         1.4622303        3
    27         2.4317036        1        97         1.5790092        3
    28         2.5275819        1        98         2.7457208        3
    29         2.6679139        1        99         2.8278472        3
    30         2.8808160        1       100         3.0342191        3
    31         2.9960829        1       101         3.2272852        3
    32         3.2200461        1       102         3.2392505        3
    33         3.2334868        1       103         3.4555936        3
    34         3.2989961        1       104         3.7590019        3
    35         3.6709598        1       105         3.8392974        3
    36         3.6973699        1       106         4.1288053        3
    37         4.1251011        1       107         4.2219628        3
    38         4.1745215        1       108         4.3193119        3
    39         4.2203411        1       109         4.4504062        3
    40         4.2358797        1       110         4.5864233        3
    41         4.3186018        1       111         5.2446213        3
    42         4.4449523        1       112         5.3348948        3
    43         4.4891892        1       113         5.7371855        3
    44         4.7609382        1       114         6.3883768        3
    45         5.0466533        1       115         0.3451566        4
    46         5.0953688        1       116         0.8077334        4
    47         5.4191550        1       117         0.9458945        4
    48         5.6862319        1       118         1.0214256        4
    49        12.1030172        1       119         1.1053746        4
    50         0.2739545        2       120         1.1361878        4
    51         0.3000922        2       121         1.7114090        4
    52         0.4509941        2       122         1.7550103        4
    53         0.4666461        2       123         2.0866714        4
    54         0.6810591        2       124         2.9600793        4
    55         0.7228261        2       125         3.1825314        4
    56         0.7556347        2       126         3.2714543        4
    57         0.9008678        2       127         3.5455528        4
    58         1.1096132        2       128         3.5643885        4
    59         1.3022396        2       129         3.9333181        4
    60         1.3521716        2       130         4.0291192        4
    61         1.4395081        2       131         4.0945994        4
    62         1.4882735        2       132         4.2206150        4
    63         1.5941097        2       133         4.3085442        4
    64         1.6639468        2       134         4.7242947        4
    65         1.9192745        2       135         5.1448376        4
    66         2.6858832        2       136         5.5448925        4
    67         2.8608711        2       137         5.5595116        4
    68         3.3513537        2       138         6.2100667        4
    69         3.3831534        2       139         6.9910876        4
    70         3.5216895        2
------------------------------------------------------------------------
  -11.1080377385213      -0.918813126084996      -0.448675644142845     
 -0.256004700408399      -4.280421312718341E-002  -11.1062732635735     
 -0.662447201556719      -0.541392577927713      -0.397848513784943     
  0.241760765703571       0.279751368239228       0.438206837136116     
  0.479157603079174       0.571899310499670       0.666449876461822     
  0.736743011674362       0.803192933413535        1.01666013526644     
   1.09955372783603        1.10701225335574        1.12527469848195     
   1.30348467611013        1.35374711606058        1.39974471055743     
   1.63366604060430        1.97090050919047        2.43170361394943     
   2.52758190924174        2.66791386241745        2.88081597336719     
   2.99608293126718        3.22004614703699        3.23348678513572     
   3.29899607129348        3.67095981607529        3.69736991245606     
   4.12510113014613        4.17452154108136        4.22034108463390     
   4.23587971398520        4.31860175295603        4.44495234120403     
   4.48918920219318        4.76093819283750        5.04665328475749     
   5.09536879701663        5.41915503064712        5.68623186658566     
   12.1030172390328       0.273954509836213       0.300092189637099     
  0.450994050316622       0.466646120530435       0.681059148829407     
  0.722826071468610       0.755634736473910       0.900867789513119     
   1.10961320288518        1.30223958221336        1.35217156014187     
   1.43950814585640        1.48827351704154        1.59410971245905     
   1.66394677378520        1.91927452515150        2.68588319773484     
   2.86087107339670        3.35135374388206        3.38315342426723     
   3.52168954966038        3.54563701097932        3.57294402000836     
   3.99548745626049        4.08578131200689        4.22867440901333     
   4.30184654144280        4.45071891028631        4.47329885246020     
   4.62233592380204        4.87763922377176        4.93394497471454     
   5.42162156125314        5.65592540113557        6.07615899807552     
   6.62823520254960        14.8803652308427       0.292928102117165     
  0.450785464125723       0.590947272706589       0.710624114126060     
  0.787546706023807        1.09649896316723        1.16542245463326     
   1.34407256623251        1.37320688981547        1.46223030520204     
   1.57900923284890        2.74572079804970        2.82784715113300     
   3.03421913912211        3.22728523547246        3.23925054593490     
   3.45559364554603        3.75900189797666        3.83929742167001     
   4.12880532471650        4.22196284049163        4.31931185094362     
   4.45040619158917        4.58642331455475        5.24462130441242     
   5.33489483059488        5.73718554068545        6.38837675989751     
  0.345156564311952       0.807733430154230       0.945894548831555     
   1.02142558665200        1.10537455209730        1.13618783836283     
   1.71140904411620        1.75501026855387        2.08667144312091     
   2.96007934041119        3.18253141972640        3.27145426988598     
   3.54555280439445        3.56438853303608        3.93331807265375     
   4.02911924679242        4.09459943872738        4.22061503694406     
   4.30854418365949        4.72429466373587        5.14483760973683     
   5.54489249382006        5.55951163953991        6.21006669846699     
   6.99108759263414     
 @CHECKOUT-I, Total execution time (CPU/WALL):       12.26/       2.61 seconds.
--executable xvtran finished with status     0 in        2.63 seconds (walltime).
 --invoking executable--
/home/tsommerfeld/zscale/bin/xintprc
 @GETMEM-I,  Allocated   85830 MB of main memory.
  Processing integrals for CCSD calculation.
  @GMOIAA-I, Processing MO integrals for spin case AA.
  @GMOIAA-I, Generation of integral list completed.
                      TYPE                NUMBER
                      ----               --------
                      PPPP               9084376
                      PPPH               2501601
                      PPHH                173538
                      PHPH                 97627
                      PHHH                 13713
                      HHHH                   332

                     TOTAL              11871187

  @FORMT2-I, Second-order MP correlation energies:
            ------------------------------------------------
            E(SCF)                  =    -78.543390435431 a.u.
            E2(AA)                  =     -0.038183300762 a.u.
            E2(AB)                  =     -0.320108664183 a.u.
            E2(TOT)                 =     -0.396475265708 a.u.
            Total MP2 energy        =    -78.939865701138 a.u.
            ------------------------------------------------
   Largest T2 amplitudes for spin case AB:
       _       _                 _       _                 _       _
   i   j   a   b             i   j   a   b             i   j   a   b
-----------------------------------------------------------------------------
[  4   4  50  50]-0.08107 [  5   5  10  10]-0.06722 [  5   5  88  88]-0.04049
[  5   5  17  17]-0.03938 [  5   5  52  52]-0.03848 [  5   5  17  10] 0.03466
[  5   5  10  17] 0.03466 [  4   4  54  50]-0.03298 [  4   4  50  54]-0.03298
[  5   5  12  12]-0.03175 [  4   4  14  14]-0.02948 [  5   5  11  10] 0.02854
[  5   5  10  11] 0.02854 [  4   3  50  57] 0.02623 [  3   4  57  50] 0.02623
-----------------------------------------------------------------------------
   Norm of T2AB vector (   345906 symmetry allowed elements):  0.3326271997.
-----------------------------------------------------------------------------
 @CHECKOUT-I, Total execution time (CPU/WALL):        4.14/       2.85 seconds.
--executable xintprc finished with status     0 in        2.87 seconds (walltime).
  calling xvcc 
 --invoking executable--
/home/tsommerfeld/zscale/bin/xvcc
 @GETMEM-I,  Allocated   85830 MB of main memory.
   CCSD energy will be calculated.
   The total correlation energy is -0.396475265708 a.u.
   The total correlation energy is -0.416131918073 a.u.
  Convergence information after     1 iterations: 
  Largest element of residual vector : -0.22411414E-01.
  Largest element of DIIS residual   : -0.22411414E-01.
   The total correlation energy is -0.427277923859 a.u.
  Convergence information after     2 iterations: 
  Largest element of residual vector : -0.11247614E-01.
  Largest element of DIIS residual   : -0.10482796E-01.
   The total correlation energy is -0.430130992373 a.u.
  Convergence information after     3 iterations: 
  Largest element of residual vector : -0.57972227E-02.
  Largest element of DIIS residual   :  0.56737325E-02.
   The total correlation energy is -0.431742265506 a.u.
  Convergence information after     4 iterations: 
  Largest element of residual vector :  0.32526203E-02.
  Largest element of DIIS residual   : -0.20097921E-02.
   The total correlation energy is -0.431910819673 a.u.
  Convergence information after     5 iterations: 
  Largest element of residual vector :  0.11847346E-02.
  Largest element of DIIS residual   :  0.56327959E-03.
   The total correlation energy is -0.431916689496 a.u.
  Convergence information after     6 iterations: 
  Largest element of residual vector : -0.33184374E-03.
  Largest element of DIIS residual   :  0.26004783E-03.
   The total correlation energy is -0.431911121166 a.u.
  Convergence information after     7 iterations: 
  Largest element of residual vector :  0.14594157E-03.
  Largest element of DIIS residual   :  0.80458276E-04.
   The total correlation energy is -0.431903051716 a.u.
  Convergence information after     8 iterations: 
  Largest element of residual vector :  0.50220227E-04.
  Largest element of DIIS residual   :  0.30671405E-04.
   The total correlation energy is -0.431903151134 a.u.
  Convergence information after     9 iterations: 
  Largest element of residual vector : -0.17549970E-04.
  Largest element of DIIS residual   : -0.14792741E-04.
   The total correlation energy is -0.431903759531 a.u.
  Convergence information after    10 iterations: 
  Largest element of residual vector :  0.71184595E-05.
  Largest element of DIIS residual   : -0.78440366E-05.
   The total correlation energy is -0.431904617860 a.u.
  Convergence information after    11 iterations: 
  Largest element of residual vector :  0.51682635E-05.
  Largest element of DIIS residual   :  0.51756943E-05.
   The total correlation energy is -0.431905145896 a.u.
  Convergence information after    12 iterations: 
  Largest element of residual vector :  0.30162909E-05.
  Largest element of DIIS residual   : -0.22637702E-05.
   The total correlation energy is -0.431905478611 a.u.
  Convergence information after    13 iterations: 
  Largest element of residual vector :  0.17776541E-05.
  Largest element of DIIS residual   :  0.10287068E-05.
   The total correlation energy is -0.431905585573 a.u.
  Convergence information after    14 iterations: 
  Largest element of residual vector :  0.58383887E-06.
  Largest element of DIIS residual   : -0.40609680E-06.
   The total correlation energy is -0.431905574036 a.u.
  Convergence information after    15 iterations: 
  Largest element of residual vector :  0.28918299E-06.
  Largest element of DIIS residual   :  0.17335604E-06.
   The total correlation energy is -0.431905561050 a.u.
  Convergence information after    16 iterations: 
  Largest element of residual vector :  0.97895530E-07.
  Largest element of DIIS residual   :  0.53210291E-07.
  Amplitude equations converged in    16iterations.
   The total correlation energy is -0.431905552483 a.u.
   The CC iterations have converged.

   Largest T1 amplitudes for spin case AA:
   i       a                 i       a                 i       a    
-----------------------------------------------------------------------------
[  5      10    ] 0.02954 [  4      14    ] 0.01845 [  5      17    ] 0.01444
[  4      18    ]-0.01400 [  4      15    ]-0.01009 [  4      22    ]-0.00900
[  4      12    ] 0.00835 [  4      28    ]-0.00830 [  8      89    ]-0.00801
[  4      21    ]-0.00716 [  8      90    ] 0.00621 [  4      13    ]-0.00534
[  3      13    ] 0.00504 [  5      31    ] 0.00480 [  9     121    ]-0.00453
-----------------------------------------------------------------------------
   Norm of T1AA vector (      327 symmetry allowed elements):  0.0502204788.
-----------------------------------------------------------------------------
   Largest T2 amplitudes for spin case AB:
       _       _                 _       _                 _       _
   i   j   a   b             i   j   a   b             i   j   a   b
-----------------------------------------------------------------------------
[  5   5  10  10]-0.12210 [  4   4  50  50]-0.11381 [  5   5  17  10] 0.06913
[  5   5  10  17] 0.06913 [  5   5  88  88]-0.05354 [  5   5  17  17]-0.05251
[  5   5  11  10] 0.05150 [  5   5  10  11] 0.05150 [  5   5  52  52]-0.05077
[  4   4  54  50]-0.04586 [  4   4  50  54]-0.04586 [  5   5  12  12]-0.04162
[  5   5  17  11]-0.02923 [  5   5  11  17]-0.02923 [  4   4  14  14]-0.02654
-----------------------------------------------------------------------------
   Norm of T2AB vector (   345906 symmetry allowed elements):  0.4166345985.
-----------------------------------------------------------------------------
       Summary of iterative solution of CC equations 
      -----------------------------------------------------------
                       Correlation           Total
       Iteration         Energy              Energy
      -----------------------------------------------------------
            0        -0.396475265708     -78.939865701138  DIIS 
            1        -0.416131918073     -78.959522353504  DIIS 
            2        -0.427277923859     -78.970668359290  DIIS 
            3        -0.430130992373     -78.973521427804  DIIS 
            4        -0.431742265506     -78.975132700937  DIIS 
            5        -0.431910819673     -78.975301255103  DIIS 
            6        -0.431916689496     -78.975307124926  DIIS 
            7        -0.431911121166     -78.975301556597  DIIS 
            8        -0.431903051716     -78.975293487147  DIIS 
            9        -0.431903151134     -78.975293586564  DIIS 
           10        -0.431903759531     -78.975294194962  DIIS 
           11        -0.431904617860     -78.975295053290  DIIS 
           12        -0.431905145896     -78.975295581326  DIIS 
           13        -0.431905478611     -78.975295914041  DIIS 
           14        -0.431905585573     -78.975296021003  DIIS 
           15        -0.431905574036     -78.975296009466  DIIS 
           16        -0.431905552483     -78.975295987913  DIIS 
      -----------------------------------------------------------
      A miracle has come to pass. The CC iterations have converged.
      The reference energy is       -78.54339043543055 a.u.
      The correlation energy is      -0.43190555248259 a.u.
      The total energy is           -78.97529598791314 a.u.
 @CHECKOUT-I, Total execution time (CPU/WALL):       77.09/       9.65 seconds.
--executable xvcc finished with status     0 in        9.67 seconds (walltime).
  The final electronic energy is       -78.975295987913142 a.u. 
  This computation required                           21.66 seconds (walltime).
