CFour on node02
 --invoking executable--
/home/tsommerfeld/zscale/bin/xjoda


   *************************************************************************
         <<<     CCCCCC     CCCCCC   |||     CCCCCC     CCCCCC   >>>
       <<<      CCC        CCC       |||    CCC        CCC         >>>
      <<<      CCC        CCC        |||   CCC        CCC            >>>
    <<<        CCC        CCC        |||   CCC        CCC              >>>
      <<<      CCC        CCC        |||   CCC        CCC            >>>
       <<<      CCC        CCC       |||    CCC        CCC         >>>
         <<<     CCCCCC     CCCCCC   |||     CCCCCC     CCCCCC   >>>
   *************************************************************************

     ****************************************************************
     * CFOUR Coupled-Cluster techniques for Computational Chemistry *
     ****************************************************************
 

   Department of Chemistry                Institut fuer Physikalische Chemie
   University of Florida                  Universitaet Mainz
   Gainesville, FL 32611, USA             D-55099 Mainz, Germany

   Department of Chemistry                Department of Chemistry
   Johns Hopkins University               Southern Methodist University
   Baltimore, MD 21218, USA               Dallas, TX 75275, USA

   Institute of Nanotechnology            Department of Physical Chemistry
   Karlsruhe Inst. of Technology          Eotvos Lorand University
   D-76021 Karlsruhe, Germany             H-1053 Budapest, Hungary

 
                       Version 2.1
 
                     node02                                            
                     Thu Mar 31 13:58:30 CST 2022                      
                     integer*8 version is running
 
********************************************************************************
*                          Input from ZMAT file                                *
********************************************************************************
h_ethylene                                                                      
C       0.000000      0.0   -0.664500                                           
C       0.000000      0.0    0.664500                                           
H       0.962348      0.0   -1.159080                                           
H       0.962348      0.0    1.159080                                           
H      -0.962348      0.0   -1.159080                                           
H      -0.962348      0.0    1.159080                                           
H      0.000000      3.6      0.000000                                          
                                                                                
*CFOUR(CALC=CCSD                                                                
#EXCITE=EOMEE                                                                   
#ESTATE_SYM=0/3/0/0                                                             
CC_PROG=VCC                                                                     
CHARGE=-1                                                                       
COORDINATES=CARTESIAN                                                           
BASIS=SPECIAL                                                                   
REFERENCE=RHF                                                                   
MEM_SIZE=90,MEM_UNIT=GB)                                                        
                                                                                
C:cc-pVTZ                                                                       
C:cc-pVTZ                                                                       
H:cc-pVTZ                                                                       
H:cc-pVTZ                                                                       
H:cc-pVTZ                                                                       
H:cc-pVTZ                                                                       
H:aug-cc-pVTZ                                                                   
                                                                                
********************************************************************************
  @GTFLGS-W, Keyword #EXCITE not known and is ignored.
  @GTFLGS-W, Keyword #ESTATE_SYM not known and is ignored.
    -------------------------------------------------------------------
                    CFOUR Control Parameters 
    -------------------------------------------------------------------
        External           Internal           Value            Units
          Name               Name
    -------------------------------------------------------------------
       ABCDTYPE             IABCDT         STANDARD    [  0]    ***   
       ANHARMONIC           IANHAR         OFF         [  0]    ***   
       ANH_ALGORIT          IANALG         STANDARD    [  0]    ***   
       ANH_DERIVAT          IANDER         SECOND      [  1]    ***   
       ANH_MODE             ANHMOD         VIBRATION   [  0]    ***   
       ANH_STEPSIZ          ICUBST             50000          x 10-6  
       ANH_SYMMETR          IANHSM         ABELIAN     [  0]    ***   
       AO_LADDERS           IAOLAD         SINGLEPASS  [  1]    ***   
       AV_SCF               IAVSCF         OFF         [  0]    ***   
       BASIS                IBASIS         SPECIAL     [  0]    ***   
       BOTHVECTORS          BOTHVC         OFF         [  0]    ***   
       BOX_POTENT           IPIAB          OFF         [  0]    ***   
       BREIT                IBREIT         OFF         [  0]    ***   
       BRUCK_CONV           IBRTOL          10D-  4             ***   
       BRUECKNER            IBRKNR         OFF         [  0]    ***   
       BUFFERSIZE           IBUFFS              4096            ***   
       CACHE_RECS           ICHREC             10               ***   
       CALCLEVEL            ICLLVL         CCSD        [ 10]    ***   
       CCORBOPT             ICCORB         OFF         [  0]  x 0.01  
       CC_CONV              ICCCNV          10D-  7             ***   
       CC_EXPORDER          ICCEOR              5               ***   
       CC_EXTRAPOL          ICCEXT         DIIS        [  1]    ***   
       CC_GUESS             ICCGES         MP2         [  0]    ***   
       CC_MAXCYC            ICCCYC            100              cycles 
       CC_PROGRAM           ICCPRO         VCC         [  0]    ***   
       CHARGE               ICHRGE             -1               ***   
       CHOLESKY             ICHOLE         OFF         [  0]    ***   
       CIS_CONV             ICISTL              5               ***   
       COMM_SIZE            IPSIZE            ***               ***   
       CONSTANT             ICONST         OLD         [  1]    ***   
       CONTINUUM            ICONTU         NONE        [  0]    ***   
       CONTRACTION          ICNTYP         GENERAL     [  1]    ***   
       COORDINATES          ICOORD         CARTESIAN   [  1]    ***   
       CPHF_CONVER          ICPHFT          10D- 16             ***   
       CPHF_MAXCYC          ICPHFC             64              cycles 
       CUBIC                ICUBIC         OFF         [  0]    ***   
       CURVILINEAR          ICURVY         OFF         [  0]    ***   
       DBOC                 IDBOC          OFF         [  0]    ***   
       DCT                  IDCT           OFF         [  0]    ***   
       DERIV_LEV            IDRLVL         ZERO        [  0]    ***   
       DEVMEM_SIZE          IDVMEM         *********           MByte  
       DIAG_MRCC            IEOMST          10D-  0             ***   
       DIFF_TYPE            IDIFTY         RELAXED     [  0]    ***   
       DIRECT               IDIRCT         OFF         [  0]    ***   
       DROPMO               IDRPMO      NONE         
       ECP                  IECP           OFF         [  0]    ***   
       EIGENVECTOR          IVEC                1               ***   
       EL_ANHARM            IELANH         OFF         [  0]    ***   
       EOMFOLLOW            IEOMSR         ENERGY      [  0]    ***   
       EOMIP                IEOMIP         OFF         [  0]    ***   
       EOMLEVEL             HBARFM         SAME        [  0]    ***   
       EOM_MRCC             IMRCCE         NEW         [  1]    ***   
       EOM_NONIT            EOMNON         OFF         [  0]    ***   
       EOM_NSING            IEOMSI          10D-  0             ***   
       EOM_NSTATES          IMRCCD         DAVIDSON    [  0]    ***   
       EOM_NTRIP            IEOMTR          10D-  0             ***   
       EOM_ORDER            IEXORD         ENERGY      [  0]    ***   
       EOM_PROPSTA          IEOMST              0               ***   
       ESTATE_CONV          IEXTOL          10D-  5             ***   
       ESTATE_DIAG          IEXDIG         ITERATIVE   [  0]    ***   
       ESTATE_LOCK          IESLOC         ON          [  1]    ***   
       ESTATE_MAXC          IEXMXC             40               ***   
       ESTATE_PROP          IEXPRP         OFF         [  0]    ***   
       EVAL_HESS            IRECAL              0            # of cyc.
       EXCITATION           IEXCIT              0               ***   
       EXCITE               IEXCIT         NONE        [  0]    ***   
       EXTERN_POT           IEXPOT         OFF         [  0]    ***   
       FCGRADNEW            IFCGNW         OFF         [  0]    ***   
       FC_FIELD             IFINFC              0             x 10-6  
       FD_CALTYPE           IFDCAL         GRADONLY    [  0]    ***   
       FD_PROJECT           IFDPRJ         OFF         [  1]    ***   
       FD_STEPSIZE          IDISFD              0            10-4 bohr
       FD_USEGROUP          IFDGRP         FULL        [  0]    ***   
       FILE_RECSIZ          IFLREC              4096           words  
       FINITE_PERT          IFIPER              0             x 10-6  
       FIXGEOM              IFIXGM         OFF         [  0]    ***   
       FOCK                 IFOCK          AO          [  1]    ***   
       FREQ_ALGORI          IVIALG         STANDARD    [  0]    ***   
       FROZEN_CORE          IFROCO         OFF         [  0]    ***   
       GAMMA_ABCD           IGABCD         STORE       [  0]    ***   
       GAMMA_ABCI           IGABCI         STORE       [  0]    ***   
       GENBAS_1             IGNBS1              0               ***   
       GENBAS_2             IGNBS2              0               ***   
       GENBAS_3             IGNBS3              0               ***   
       GENBAS_4             IGNBS4              0               ***   
       GEO_CONV             ICONTL              5              H/bohr 
       GEO_MAXCYC           IOPTCY             50               ***   
       GEO_MAXSTEP          IMXSTP            300            millibohr
       GEO_METHOD           INR            SINGLE_POINT[  5]    ***   
       GIAO                 IGIAO          OFF         [  1]    ***   
       GIMIC                IGIMIC         OFF         [  0]    ***   
       GRID                 IGRID          OFF         [  0]    ***   
       GRID_ALGO            IGALGO         SERIAL      [  0]    ***   
       GUESS                IGUESS         MOREAD      [  0]    ***   
       HBAR                 IHBAR          OFF         [  0]    ***   
       HESS_TYPE            IHESTP         SCF         [  0]    ***   
       HF2_FILE             IHF2Fl         USE         [  1]    ***   
       HFSTABILITY          ISTABL         OFF         [  0]    ***   
       INCORE               INCORE         OFF         [  0]    ***   
       INPUT_MRCC           IMRCC          ON          [  1]    ***   
       INTEGRALS            INTTYP         VMOL        [  1]    ***   
       JODA_PRINT           IJPRNT              0               ***   
       KEYWORD_OUT          IDMPKW         NO          [  0]    ***   
       LINDEP_TOL           ILINDP              8               ***   
       LINEQ_CONV           IZTACN          10D-  7           cycles  
       LINEQ_EXPOR          ILMAXD              5               ***   
       LINEQ_MAXCY          ILMAXC            100               ***   
       LINEQ_TYPE           ILTYPE         DIIS        [  1]    ***   
       LOCK_ORBOCC          ILOCOC         OFF         [  0]    ***   
       MEMORY_SIZE          IMEMSZ         *********           words  
       MEM_UNIT             IMEMU          GB          [  3]    ***   
       MRCC                 IMRCCC         OFF         [  0]    ***   
       MULTIPLICTY          IMULTP              1               ***   
       NACOUPLING           IVCOUP         OFF         [  0]    ***   
       NEGEVAL              IDIE           ABORT       [  0]    ***   
       NEWNORM              INEWNO         OFF         [  0]    ***   
       NON-HF               INONHF         OFF         [  0]    ***   
       NTOP_TAMP            ITOPT2             15               ***   
       NUC_MODEL            INUCMO         POINT       [  0]    ***   
       OCCUPATION           IOCCU   ESTIMATED BY SCF 
       OPEN-SHELL           IOPEN          SPIN-ORBITAL[  0]    ***   
       OPTVIB               IOPTVB         OFF         [  0]    ***   
       ORBITALS             IORBTP         STANDARD    [  0]    ***   
       PARALLEL             IPARAL         ON          [  1]    ***   
       PARA_INT             IPINTS         ON          [  1]    ***   
       PARA_PRINT           IPPRIN              0               ***   
       PERT_ORB             IPTORB         STANDARD    [  0]    ***   
       POINTS               IGRDFD              0               ***   
       PRINT                IPRNT               0               ***   
       PROPS                IPROPS         OFF         [  0]    ***   
       PROP_INTEGR          IINTYP         INTERNAL    [  0]    ***   
       PSI                  IPSI           OFF         [  0]    ***   
       QC_ALG               IQCALG         FLM         [  0]    ***   
       QC_LINALG            IQCLIN         TRIDIAG     [  2]    ***   
       QC_MAXCYC            IQCMAX          10D-100           cycles  
       QC_MAXSCFCY          IQCMSC          10D- 15           cycles  
       QC_RTRUST            IQCRTR          10D-  0           x 10-3  
       QC_SKIPSCF           IQCSKI         OFF         [  0]    ***   
       QC_START             IQCSTA          10D-  1             ***   
       QRHFGUESS            IQGUES         OFF         [  0]    ***   
       QUARTIC              IQUART         OFF         [  0]    ***   
       RAMAN_INT            IRAMIN         OFF         [  0]    ***   
       RAMAN_ORB            IRAMRE         UNRELAXED   [  0]    ***   
       RDO                  IRDOFM         OFF         [  0]    ***   
       REDUCE_REPR          REDREP         Ir          [  0]    ***   
       REFERENCE            IREFNC         RHF         [  0]    ***   
       RELATIVIST           IRELAT         OFF         [  0]    ***   
       RELAX_DENS           IRDENS         OFF         [  0]    ***   
       RESET_FLAGS          IRESET         OFF         [  0]    ***   
       RESTART_CC           ICCRES         OFF         [  0]    ***   
       ROT_EVEC             ROTVEC              0               ***   
       SAVE_INTS            ISVINT         OFF         [  0]    ***   
       SCALE_ON             ISTCRT              0               ***   
       SCF_CONV             ISCFCV          10D-  7             ***   
       SCF_DAMPING          IDAMP               0             x 10-3  
       SCF_EXPORDE          IRPPOR              6               ***   
       SCF_EXPSTAR          IRPPLS              8               ***   
       SCF_EXTRAPO          IRPP           ON          [  1]    ***   
       SCF_MAXCYC           ISCFCY            150              cycles 
       SCF_NOSTOP           ISCFST         OFF         [  0]    ***   
       SCF_PRINT            ISCFPR              0               ***   
       SCF_PROG             ISCFPR         SCF         [  0]    ***   
       SD_FIELD             IFINSD              0             x 10-6  
       SOPERT               IPERSO         OFF         [  0]    ***   
       SPHERICAL            IDFGHI         ON          [  1]    ***   
       SPINORBIT            ISOCAL         OFF         [  0]    ***   
       SPINROTATIO          ISRCON         OFF         [  0]    ***   
       SPIN_FLIP            ISPFLP         OFF         [  0]    ***   
       SPIN_ORBIT           ISPORB         OFF         [  0]    ***   
       SPIN_SCAL            ISCSMP         OFF         [  0]    ***   
       STEEPSCALE           ISTPSC              1000          x 10-3  
       SUBGROUP             ISUBGP         DEFAULT     [  0]    ***   
       SUBGRPAXIS           ISBXYZ         X           [  0]    ***   
       SYMMETRY             ISYM           ON          [  0]    ***   
       SYM_CHECK            ISYMCK         OVERRIDE    [  1]    ***   
       T3_EXTRAPOL          IT3EXT         OFF         [  0]    ***   
       T4_EXTRAPOL          IT4EXP         OFF         [  0]    ***   
       TAMP_SUM             IEVERY              5               ***   
       TESTSUITE            ITESTS         OFF         [  0]    ***   
       THERMOCH             ITHERM         OFF         [  0]    ***   
       TOL_CHOLESK          ITOLCH          10D-  4             ***   
       TRANGRAD             IRESRM         OFF         [  0]    ***   
       TRANS_INV            ITRAIN         USE         [  0]    ***   
       TREAT_PERT           ITREAT         SIMULTANEOUS[  0]    ***   
       TRIP_ALGORI          ITRALG         NORMAL      [  0]    ***   
       UIJ_THRESHO          IUIJTH              1               ***   
       UNITS                IUNITS         ANGSTROM    [  0]    ***   
       UNOS                 IUNOS          OFF         [  0]    ***   
       UPDATE_HESS          IHUPDT         ON          [  1]    ***   
       VIBPHASE             ISETPH         STANDARD    [  0]    ***   
       VIBRATION            IVIB           NO          [  0]    ***   
       VIB_ALGORIT          IGEALG         STANDARD    [  0]    ***   
       VNATORB              IVNORB         OFF         [  0]    ***   
       VTRAN                IVTRAN         FULL/PARTIAL[  0]    ***   
       XFIELD               IXEFLD              0             x 10-6  
       XFORM_TOL            IXFTOL          10D- 11             ***   
       YFIELD               IYEFLD              0             x 10-6  
       ZFIELD               IZEFLD              0             x 10-6  
       ZSCALE_EXP           IZEXPS         OFF         [  0]    ***   
    -------------------------------------------------------------------
  @GETXYZ-I,     7 atoms read from ZMAT.
   Rotational constants (in cm-1): 
          0.5889855508             0.8536890782             1.0315810424
   Rotational constants (in MHz): 
      17657.3450738743         25592.9582983935         30926.0259667613
********************************************************************************
   The full molecular point group is C2v .
   The largest Abelian subgroup of the full molecular point group is C2v .
   The computational point group is C2v .
********************************************************************************


 ----------------------------------------------------------------
         Coordinates used in calculation (QCOMP) 
 ----------------------------------------------------------------
 Z-matrix   Atomic            Coordinates (in bohr)
  Symbol    Number           X              Y              Z
 ----------------------------------------------------------------
     C         6         0.00000000    -1.25572327     0.23610385
     C         6         0.00000000     1.25572327     0.23610385
     H         1         1.81857454    -2.19034422     0.23610385
     H         1         1.81857454     2.19034422     0.23610385
     H         1        -1.81857454    -2.19034422     0.23610385
     H         1        -1.81857454     2.19034422     0.23610385
     H         1         0.00000000     0.00000000    -6.56691162
 ----------------------------------------------------------------
 
   Interatomic distance matrix (Angstroms) 
 
                 C             C             H             H             H    
                [ 1]        [ 2]        [ 3]        [ 4]        [ 5]
  C    [ 1]     0.00000
  C    [ 2]     1.32900     0.00000
  H    [ 3]     1.08200     2.06193     0.00000
  H    [ 4]     2.06193     1.08200     2.31816     0.00000
  H    [ 5]     1.08200     2.06193     1.92470     3.01303     0.00000
  H    [ 6]     2.06193     1.08200     3.01303     1.92470     2.31816
  H    [ 7]     3.66081     3.66081     3.90251     3.90251     3.90251
 
                 H             H    
                [ 6]        [ 7]
  H    [ 6]     0.00000
  H    [ 7]     3.90251     0.00000
 rotcon2
   Rotational constants (in cm-1): 
          0.5889855508             1.0315810424             0.8536890782
   Rotational constants (in MHz): 
      17657.3450738743         30926.0259667613         25592.9582983935
  ECPDATA file not present.   Using default ECPDATA. 
  @GTFLGS-W, Keyword #EXCITE not known and is ignored.
  @GTFLGS-W, Keyword #ESTATE_SYM not known and is ignored.
  There are  139 basis functions.
 @GEOPT-W, Archive file not created for single-point calculation.
 @CHECKOUT-I, Total execution time (CPU/WALL):        0.12/       0.14 seconds.
--executable xjoda finished with status     0 in        0.15 seconds (walltime).
 --invoking executable--
/home/tsommerfeld/zscale/bin/xvmol
 SERIAL VERSION OF MOLECULE STARTED
********************************************************************************
                    INPUT FROM MOL FILE
********************************************************************************
INTGRL        1    0    1    0    0    0    0    0    0                         
         *** CFOUR Program System (Release V0.1) ***                            
h_ethylene                                                                      
    3    2 X  Y       0.10E-08              0    0                              
   9999.00      3.00                                                            
          6.00000000    1    4    1    1    1    1                              
C #1   0.000000000000000  -1.255723272983657   0.236103851864618                
   10    4                                                                      
   8236.00000000000       5.310000000000000E-004  0.000000000000000E+000        
 -1.130000000000000E-004  0.000000000000000E+000                                
   1235.00000000000       4.108000000000000E-003  0.000000000000000E+000        
 -8.780000000000000E-004  0.000000000000000E+000                                
   280.800000000000       2.108700000000000E-002  0.000000000000000E+000        
 -4.540000000000000E-003  0.000000000000000E+000                                
   79.2700000000000       8.185300000000000E-002  0.000000000000000E+000        
 -1.813300000000000E-002  0.000000000000000E+000                                
   25.5900000000000       0.234817000000000       0.000000000000000E+000        
 -5.576000000000000E-002  0.000000000000000E+000                                
   8.99700000000000       0.434401000000000       0.000000000000000E+000        
 -0.126895000000000       0.000000000000000E+000                                
   3.31900000000000       0.346129000000000       0.000000000000000E+000        
 -0.170352000000000       0.000000000000000E+000                                
  0.905900000000000       3.937800000000000E-002   1.00000000000000             
  0.140382000000000       0.000000000000000E+000                                
  0.364300000000000      -8.983000000000000E-003  0.000000000000000E+000        
  0.598684000000000       0.000000000000000E+000                                
  0.128500000000000       2.385000000000000E-003  0.000000000000000E+000        
  0.395389000000000        1.00000000000000                                     
    5    3                                                                      
   18.7100000000000       0.000000000000000E+000  1.403100000000000E-002        
  0.000000000000000E+000                                                        
   4.13300000000000       0.000000000000000E+000  8.686600000000000E-002        
  0.000000000000000E+000                                                        
   1.20000000000000       0.000000000000000E+000  0.290216000000000             
  0.000000000000000E+000                                                        
  0.382700000000000        1.00000000000000       0.501008000000000             
  0.000000000000000E+000                                                        
  0.120900000000000       0.000000000000000E+000  0.343406000000000             
   1.00000000000000                                                             
    2    2                                                                      
   1.09700000000000        1.00000000000000       0.000000000000000E+000        
  0.318000000000000       0.000000000000000E+000   1.00000000000000             
    1    1                                                                      
  0.761000000000000        1.00000000000000                                     
          1.00000000    1    3    1    1    1                                   
H #2   1.818574537711477  -2.190344215575466   0.236103851864618                
    5    3                                                                      
   33.8700000000000       0.000000000000000E+000  6.068000000000000E-003        
  0.000000000000000E+000                                                        
   5.09500000000000       0.000000000000000E+000  4.530800000000000E-002        
  0.000000000000000E+000                                                        
   1.15900000000000       0.000000000000000E+000  0.202822000000000             
  0.000000000000000E+000                                                        
  0.325800000000000        1.00000000000000       0.503903000000000             
  0.000000000000000E+000                                                        
  0.102700000000000       0.000000000000000E+000  0.383421000000000             
   1.00000000000000                                                             
    2    2                                                                      
   1.40700000000000        1.00000000000000       0.000000000000000E+000        
  0.388000000000000       0.000000000000000E+000   1.00000000000000             
    1    1                                                                      
   1.05700000000000        1.00000000000000                                     
          1.00000000    1    3    1    1    1                                   
H #3   0.000000000000000   0.000000000000000  -6.566911622538942                
    6    4                                                                      
   33.8700000000000       0.000000000000000E+000  6.068000000000000E-003        
  0.000000000000000E+000  0.000000000000000E+000                                
   5.09500000000000       0.000000000000000E+000  4.530800000000000E-002        
  0.000000000000000E+000  0.000000000000000E+000                                
   1.15900000000000       0.000000000000000E+000  0.202822000000000             
  0.000000000000000E+000  0.000000000000000E+000                                
  0.325800000000000        1.00000000000000       0.503903000000000             
  0.000000000000000E+000  0.000000000000000E+000                                
  0.102700000000000       0.000000000000000E+000  0.383421000000000             
   1.00000000000000       0.000000000000000E+000                                
  2.526000000000000E-002  0.000000000000000E+000  0.000000000000000E+000        
  0.000000000000000E+000   1.00000000000000                                     
    3    3                                                                      
   1.40700000000000        1.00000000000000       0.000000000000000E+000        
  0.000000000000000E+000                                                        
  0.388000000000000       0.000000000000000E+000   1.00000000000000             
  0.000000000000000E+000                                                        
  0.102000000000000       0.000000000000000E+000  0.000000000000000E+000        
   1.00000000000000                                                             
    2    2                                                                      
   1.05700000000000        1.00000000000000       0.000000000000000E+000        
  0.247000000000000       0.000000000000000E+000   1.00000000000000             
FINISH                                                                          
 
********************************************************************************
 ONE- AND TWO-ELECTRON INTEGRALS OVER SYMMETRY-ADAPTED AOS ARE CALCULATED.

  SPHERICAL HARMONICS ARE USED.
  
  INTEGRALS LESS THAN  0.10E-13 ARE NEGLECTED.

  NUCLEAR REPULSION ENERGY :   35.8662332778 A.U.
  @MOLECU-I, ONE ELECTRON INTEGRALS (CPU/WALL):        0.04/       0.04 SECONDS.
  @TWOEL-I,     757296 INTEGRALS OF SYMMETRY TYPE  I I I I
  @TWOEL-I,    3293348 INTEGRALS OF SYMMETRY TYPE  I J I J
  @TWOEL-I,    1769242 INTEGRALS OF SYMMETRY TYPE  I I J J
  @TWOEL-I,    2844026 INTEGRALS OF SYMMETRY TYPE  I J K L
  @TWOEL-I, TOTAL NUMBER OF 2-E INTEGRALS    8663912.
  @MOLECU-I, TWO ELECTRON INTEGRALS (CPU/WALL):       28.10/       4.64 SECONDS.
 @CHECKOUT-I, Total execution time (CPU/WALL):       28.15/       4.69 seconds.

Running with 8 threads/proc

--executable xvmol finished with status     0 in        4.71 seconds (walltime).
 --invoking executable--
/home/tsommerfeld/zscale/bin/xvmol2ja
 @GETMEM-I,  Allocated   85830 MB of main memory.
 @CHECKOUT-I, Total execution time (CPU/WALL):        0.08/       0.02 seconds.
--executable xvmol2ja finished with status     0 in        0.04 seconds (walltime).
 --invoking executable--
/home/tsommerfeld/zscale/bin/xvscf
  There are  139 functions in the AO basis.

  There are 4 irreducible representations.

       Irrep        # of functions
         1                 45
         2                 29
         3                 39
         4                 26


  Parameters for SCF calculation: 
        SCF reference function:  RHF  
  Maximum number of iterations:  150
     Full symmetry point group: C2v 
     Computational point group: C2v 
        Initial density matrix: MOREAD                 
     SCF convergence tolerance: 10**(- 7)
  DIIS convergence acceleration:  ON
          Latest start for DIIS:   8
                     DIIS order:   6

  Memory information:     823082 words required.
  Fock matrices are constructed from AO integral file.
 @GETMEM-I,  Allocated       6 MB of main memory.
  Initialization and symmetry analysis required      0.001 seconds.

  @INITGES-I, Occupancies from core Hamiltonian:

          Alpha population by irrep:   4    1    3    1
           Beta population by irrep:   4    1    3    1


 total no. of electrons in initial guess :  0.000000000000000E+000
  --------------------------------------------------------------------
  Iteration         Total Energy            Largest Density Difference
  --------------------------------------------------------------------
       0            35.866233277813436              0.0000000000D+00
   current occupation vector 
     4  1  3  1
     4  1  3  1
       1           -51.894889165394801              0.8751669918D+01
   current occupation vector 
     4  1  3  1
     4  1  3  1
       2           -53.445007362964574              0.2961178257D+02
   current occupation vector 
     5  1  3  0
     5  1  3  0
       3           -68.455027688809167              0.2934768599D+02
   current occupation vector 
     4  1  3  1
     4  1  3  1
       4           -56.708497689581463              0.1122825069D+02
   current occupation vector 
     5  1  3  0
     5  1  3  0
       5           -69.563596344142823              0.1121243773D+02
   current occupation vector 
     4  1  3  1
     4  1  3  1
       6           -57.559401543892562              0.7226396695D+01
   current occupation vector 
     5  1  3  0
     5  1  3  0
       7           -69.850864785878770              0.7241530998D+01
   current occupation vector 
     4  1  3  1
     4  1  3  1
       8           -57.770975237830825              0.6333682413D+01
   current occupation vector 
     5  1  3  0
     5  1  3  0
       9           -74.783979803937882              0.6520682759D+01
   current occupation vector 
     4  1  3  1
     4  1  3  1
      10           -77.045394982865460              0.9076218832D+00
   current occupation vector 
     4  1  3  1
     4  1  3  1
      11           -78.394065830533663              0.1691957348D+01
   current occupation vector 
     5  1  2  1
     5  1  2  1
      12           -78.505258019588055              0.5871682066D+00
   current occupation vector 
     5  1  2  1
     5  1  2  1
      13           -78.537836800121156              0.2034510353D+00
   current occupation vector 
     5  1  2  1
     5  1  2  1
      14           -78.540516743300756              0.8344183983D-01
   current occupation vector 
     5  1  2  1
     5  1  2  1
      15           -78.540563577667427              0.1307702945D-01
   current occupation vector 
     5  1  2  1
     5  1  2  1
      16           -78.540565820845558              0.2812622327D-02
   current occupation vector 
     5  1  2  1
     5  1  2  1
      17           -78.540565904776997              0.5994655430D-03
   current occupation vector 
     5  1  2  1
     5  1  2  1
      18           -78.540565910468516              0.1374549319D-03
   current occupation vector 
     5  1  2  1
     5  1  2  1
      19           -78.540565910673294              0.1771522958D-04
   current occupation vector 
     5  1  2  1
     5  1  2  1
      20           -78.540565910683739              0.2462439982D-05
   current occupation vector 
     5  1  2  1
     5  1  2  1
      21           -78.540565910684748              0.2459951672D-05
   current occupation vector 
     5  1  2  1
     5  1  2  1
      22           -78.540565910684165              0.1693239246D-06
   current occupation vector 
     5  1  2  1
     5  1  2  1

  SCF has converged.

 Density matrix saved to file den.dat
 total electron number:   18.0000000000000     
     E(SCF)=       -78.540565910683952              0.5201919597D-07


  Final occupancies:

     Alpha population by irrep:   5    1    2    1
      Beta population by irrep:   5    1    2    1


  Eigenvector printing suppressed.

 @PUTMOS-I, Writing converged MOs to NEWMOS. 
 @PUTMOS-I, Symmetry   1 Full Blocks 11 Partial Blocksize   1
 @PUTMOS-I, Symmetry   2 Full Blocks  7 Partial Blocksize   1
 @PUTMOS-I, Symmetry   3 Full Blocks  9 Partial Blocksize   3
 @PUTMOS-I, Symmetry   4 Full Blocks  6 Partial Blocksize   2
 @PUTFOCK-I, Writing converged Fock matrix to NEWFOCK. 
 @PUTFOCK-I, Symmetry   1 Full Blocks 11 Partial Blocksize   1
 @PUTFOCK-I, Symmetry   2 Full Blocks  7 Partial Blocksize   1
 @PUTFOCK-I, Symmetry   3 Full Blocks  9 Partial Blocksize   3
 @PUTFOCK-I, Symmetry   4 Full Blocks  6 Partial Blocksize   2


 
  ORBITAL EIGENVALUES (ALPHA)  (1H = 27.2113834 eV)

       MO #        E(hartree)               E(eV)           FULLSYM    COMPSYM
       ----   --------------------   --------------------   -------   ---------
    1     1         -11.0929921818        -301.8556633115      A1        A1 (1)
    2    75         -11.0912270562        -301.8076318027      B2        B2 (3)
    3     2          -0.9034747727         -24.5847984313      A1        A1 (1)
    4    76          -0.6478574912         -17.6290985805      B2        B2 (3)
    5    46          -0.5265977998         -14.3294546283      B1        B1 (2)
    6     3          -0.4339760216         -11.8090879090      A1        A1 (1)
    7   114          -0.3834534750         -10.4342995234      A2        A2 (4)
    8     4          -0.2408167248          -6.5529562281      A1        A1 (1)
    9     5          -0.0409468261          -1.1142197848      A1        A1 (1)
  +++++++++++++++++++++++++++++++++++++++++++++++++++++++++++++++++++++++++++++
   10     6           0.2429537101           6.6111065530      A1        A1 (1)
   11    77           0.2885046466           7.8506105500      B2        B2 (3)
   12     7           0.2903971599           7.9021084551      A1        A1 (1)
   13    47           0.3030782223           8.2471777084      B1        B1 (2)
   14    78           0.3097342412           8.4282971893      B2        B2 (3)
   15   115           0.3551259776           9.6634691319      A2        A2 (4)
   16    48           0.4519406936          12.2979314887      B1        B1 (2)
   17     8           0.4557771784          12.4023275472      A1        A1 (1)
   18    79           0.4567254830          12.4281322258      B2        B2 (3)
   19    80           0.4799850896          13.0610582990      B2        B2 (3)
   20     9           0.4992379739          13.5849559143      A1        A1 (1)
   21    10           0.5825245219          15.8512981047      A1        A1 (1)
   22    49           0.6075306208          16.5317486496      B1        B1 (2)
   23    81           0.6947310488          18.9045929279      B2        B2 (3)
   24    11           0.7020971085          19.1050336030      A1        A1 (1)
   25    50           0.7234453330          19.6859483257      B1        B1 (2)
   26    82           0.7465774052          20.3154040119      B2        B2 (3)
   27    12           0.7514994693          20.4493401848      A1        A1 (1)
   28    83           0.7717175108          20.9995010641      B2        B2 (3)
   29    51           0.8038441078          21.8737102110      B1        B1 (2)
   30   116           0.8205731013          22.3289292675      A2        A2 (4)
   31    13           0.8417419296          22.9049623697      A1        A1 (1)
   32    84           0.9148474389          24.8942644135      B2        B2 (3)
   33   117           0.9601143785          26.1260404610      A2        A2 (4)
   34    14           1.0248952962          27.8888188498      A1        A1 (1)
   35   118           1.0268750440          27.9426905265      A2        A2 (4)
   36    52           1.0833411276          29.4792107771      B1        B1 (2)
   37    15           1.0985577731          29.8932767516      A1        A1 (1)
   38   119           1.1149848031          30.3402789623      A2        A2 (4)
   39    16           1.1160416873          30.3690382426      A1        A1 (1)
   40    85           1.1387717088          30.9875535719      B2        B2 (3)
   41   120           1.1523280233          31.3564396450      A2        A2 (4)
   42    17           1.2012240247          32.6869674852      A1        A1 (1)
   43    53           1.2095493252          32.9135104282      B1        B1 (2)
   44    18           1.3271415042          36.1133562981      A1        A1 (1)
   45    86           1.3320864425          36.2479149083      B2        B2 (3)
   46    54           1.3510441395          36.7637800706      B1        B1 (2)
   47    87           1.3675184791          37.2120696405      B2        B2 (3)
   48    55           1.3901044428          37.8266649599      B1        B1 (2)
   49    19           1.4077938567          38.3080183835      A1        A1 (1)
   50    20           1.4218220013          38.6897436044      A1        A1 (1)
   51    88           1.4564833835          39.6329277642      B2        B2 (3)
   52    56           1.4776643314          40.2092906583      B1        B1 (2)
   53    89           1.5105335215          41.1037067932      B2        B2 (3)
   54    57           1.5951460127          43.4061297317      B1        B1 (2)
   55    90           1.6103337735          43.8194097120      B2        B2 (3)
   56    21           1.6613936780          45.2088203503      A1        A1 (1)
   57    91           1.7092022764          46.5097584502      B2        B2 (3)
   58   121           1.7246282277          46.9295199272      A2        A2 (4)
   59   122           1.7702623455          48.1712874021      A2        A2 (4)
   60    92           1.9392630919          52.7700315081      B2        B2 (3)
   61    22           1.9881463865          54.1002135778      A1        A1 (1)
   62   123           2.1011721529          57.1758010415      A2        A2 (4)
   63    23           2.4679792907          67.1571307032      A1        A1 (1)
   64    24           2.6236842231          71.3940773159      A1        A1 (1)
   65    25           2.6843313899          73.0443706227      A1        A1 (1)
   66    93           2.7032947961          73.5603911389      B2        B2 (3)
   67    58           2.7728551851          75.4532255546      B1        B1 (2)
   68    59           2.8431833677          77.3669526960      B1        B1 (2)
   69    94           2.8839817185          78.4771322606      B2        B2 (3)
   70    26           2.8968414332          78.8270628879      A1        A1 (1)
   71   124           2.9765699745          80.9965867927      A2        A2 (4)
   72    27           3.0295018488          82.4369363188      A1        A1 (1)
   73    60           3.0497756838          82.9886154150      B1        B1 (2)
   74   125           3.1973838187          87.0052369667      A2        A2 (4)
   75    28           3.2363789985          88.0663497563      A1        A1 (1)
   76    61           3.2454987368          88.3145104513      B1        B1 (2)
   77    62           3.2545730777          88.5614358197      B1        B1 (2)
   78    29           3.2562056020          88.6058590658      A1        A1 (1)
   79   126           3.2863370042          89.4257762039      A2        A2 (4)
   80    30           3.3164860634          90.2461738108      A1        A1 (1)
   81    95           3.3754844836          91.8516024429      B2        B2 (3)
   82    96           3.3982005424          92.4697378289      B2        B2 (3)
   83    63           3.4710446712          94.4519273458      B1        B1 (2)
   84    97           3.5385620807          96.2891694635      B2        B2 (3)
   85   127           3.5607507232          96.8929531202      A2        A2 (4)
   86    98           3.5618770869          96.9236030354      B2        B2 (3)
   87   128           3.5785972546          97.3785819290      A2        A2 (4)
   88    99           3.5899343323          97.6870794961      B2        B2 (3)
   89    31           3.6887359088         100.3756070748      A1        A1 (1)
   90    32           3.7156367129         101.1076151700      A1        A1 (1)
   91    64           3.7733832017         102.6789770173      B1        B1 (2)
   92    65           3.8539694391         104.8718400189      B1        B1 (2)
   93   129           3.9477006856         107.4223969043      A2        A2 (4)
   94   100           4.0140254225         109.2271847486      B2        B2 (3)
   95   130           4.0432870668         110.0234345697      A2        A2 (4)
   96   101           4.1003606490         111.5764856976      B2        B2 (3)
   97   131           4.1090410017         111.8126901037      A2        A2 (4)
   98    33           4.1422416221         112.7161249151      A1        A1 (1)
   99    66           4.1422783624         112.7171246681      B1        B1 (2)
  100    34           4.1871551580         113.9382843602      A1        A1 (1)
  101    35           4.2225721513         114.9020297441      A1        A1 (1)
  102   132           4.2252804605         114.9757265823      A2        A2 (4)
  103    67           4.2346035471         115.2294206660      B1        B1 (2)
  104   102           4.2610775952         115.9498161399      B2        B2 (3)
  105    36           4.2737724310         116.2952601853      A1        A1 (1)
  106   103           4.3180994429         117.5014594992      B2        B2 (3)
  107   133           4.3229652500         117.6338648438      A2        A2 (4)
  108    68           4.3332487027         117.9136918159      B1        B1 (2)
  109    37           4.3589608955         118.6133561518      A1        A1 (1)
  110    69           4.4570014793         121.2811760672      B1        B1 (2)
  111   104           4.4598651850         121.3591014603      B2        B2 (3)
  112    38           4.4759534905         121.7968865119      A1        A1 (1)
  113   105           4.4938818405         122.2847417161      B2        B2 (3)
  114    39           4.5124821627         122.7908822149      A1        A1 (1)
  115    70           4.6008781813         125.1962601680      B1        B1 (2)
  116   106           4.6373049018         126.1874816255      B2        B2 (3)
  117   134           4.7388387069         128.9503569249      A2        A2 (4)
  118    40           4.7786637947         130.0340526563      A1        A1 (1)
  119   107           4.8956350761         133.2170030419      B2        B2 (3)
  120   108           4.9525914555         134.7668649197      B2        B2 (3)
  121    41           5.0616348863         137.7340875224      A1        A1 (1)
  122    42           5.1169461197         139.2391827004      A1        A1 (1)
  123   135           5.1590461267         140.3847821314      A2        A2 (4)
  124    71           5.2596234695         143.1216307678      B1        B1 (2)
  125    72           5.3500892691         145.5833303246      B1        B1 (2)
  126   109           5.4359555955         147.9198718554      B2        B2 (3)
  127    43           5.4413596738         148.0669243023      A1        A1 (1)
  128   136           5.5595511294         151.2830773138      A2        A2 (4)
  129   137           5.5738231351         151.6714383336      A2        A2 (4)
  130   110           5.6707765302         154.3096743390      B2        B2 (3)
  131    44           5.7194410638         155.6339036201      A1        A1 (1)
  132    73           5.7587012804         156.7022284262      B1        B1 (2)
  133   111           6.0972516831         165.9146532348      B2        B2 (3)
  134   138           6.2254746776         169.4037782985      A2        A2 (4)
  135    74           6.4039577108         174.2605485448      B1        B1 (2)
  136   112           6.6445637618         180.8077720485      B2        B2 (3)
  137   139           7.0058856534         190.6398405724      A2        A2 (4)
  138    45          12.2301436062         332.7991267045      A1        A1 (1)
  139   113          14.9337795619         406.3688012711      B2        B2 (3)


  VSCF finished.

 @CHECKOUT-I, Total execution time (CPU/WALL):       14.67/       1.85 seconds.
--executable xvscf finished with status     0 in        1.87 seconds (walltime).
 --invoking executable--
/home/tsommerfeld/zscale/bin/xvtran
 @GETMEM-I,  Allocated   85830 MB of main memory.
  Full RHF integral transformation
  Transformation of IIII integrals :
  1 pass through the AO integral file was required.
      757296 AO integrals were read.
      997326 MO integrals were written to HF2.
  Transformation of IIJJ integrals :
  1 pass through the AO integral file was required.
     1769242 AO integrals were read.
     2386575 MO integrals were written to HF2.
  Transformation of IJIJ integrals :
  1 pass through the AO integral file was required.
     3293348 AO integrals were read.
     4517476 MO integrals were written to HF2.
  Transformation of IJKL integrals :
  1 pass through the AO integral file was required.
     2844026 AO integrals were read.
     3969810 MO integrals were written to HF2.
  Summary of active molecular orbitals: 
------------------------------------------------------------------------
 
  Index      Eigenvalue    Symmetry    Index      Eigenvalue    Symmetry
------------------------------------------------------------------------
     1       -11.0929922        1        71         4.3332487        2
     2        -0.9034748        1        72         4.4570015        2
     3        -0.4339760        1        73         4.6008782        2
     4        -0.2408167        1        74         5.2596235        2
     5        -0.0409468        1        75         5.3500893        2
     6        -0.5265978        2        76         5.7587013        2
     7       -11.0912271        3        77         6.4039577        2
     8        -0.6478575        3        78         0.2885046        3
     9        -0.3834535        4        79         0.3097342        3
    10         0.2429537        1        80         0.4567255        3
    11         0.2903972        1        81         0.4799851        3
    12         0.4557772        1        82         0.6947310        3
    13         0.4992380        1        83         0.7465774        3
    14         0.5825245        1        84         0.7717175        3
    15         0.7020971        1        85         0.9148474        3
    16         0.7514995        1        86         1.1387717        3
    17         0.8417419        1        87         1.3320864        3
    18         1.0248953        1        88         1.3675185        3
    19         1.0985578        1        89         1.4564834        3
    20         1.1160417        1        90         1.5105335        3
    21         1.2012240        1        91         1.6103338        3
    22         1.3271415        1        92         1.7092023        3
    23         1.4077939        1        93         1.9392631        3
    24         1.4218220        1        94         2.7032948        3
    25         1.6613937        1        95         2.8839817        3
    26         1.9881464        1        96         3.3754845        3
    27         2.4679793        1        97         3.3982005        3
    28         2.6236842        1        98         3.5385621        3
    29         2.6843314        1        99         3.5618771        3
    30         2.8968414        1       100         3.5899343        3
    31         3.0295018        1       101         4.0140254        3
    32         3.2363790        1       102         4.1003606        3
    33         3.2562056        1       103         4.2610776        3
    34         3.3164861        1       104         4.3180994        3
    35         3.6887359        1       105         4.4598652        3
    36         3.7156367        1       106         4.4938818        3
    37         4.1422416        1       107         4.6373049        3
    38         4.1871552        1       108         4.8956351        3
    39         4.2225722        1       109         4.9525915        3
    40         4.2737724        1       110         5.4359556        3
    41         4.3589609        1       111         5.6707765        3
    42         4.4759535        1       112         6.0972517        3
    43         4.5124822        1       113         6.6445638        3
    44         4.7786638        1       114        14.9337796        3
    45         5.0616349        1       115         0.3551260        4
    46         5.1169461        1       116         0.8205731        4
    47         5.4413597        1       117         0.9601144        4
    48         5.7194411        1       118         1.0268750        4
    49        12.2301436        1       119         1.1149848        4
    50         0.3030782        2       120         1.1523280        4
    51         0.4519407        2       121         1.7246282        4
    52         0.6075306        2       122         1.7702623        4
    53         0.7234453        2       123         2.1011722        4
    54         0.8038441        2       124         2.9765700        4
    55         1.0833411        2       125         3.1973838        4
    56         1.2095493        2       126         3.2863370        4
    57         1.3510441        2       127         3.5607507        4
    58         1.3901044        2       128         3.5785973        4
    59         1.4776643        2       129         3.9477007        4
    60         1.5951460        2       130         4.0432871        4
    61         2.7728552        2       131         4.1090410        4
    62         2.8431834        2       132         4.2252805        4
    63         3.0497757        2       133         4.3229653        4
    64         3.2454987        2       134         4.7388387        4
    65         3.2545731        2       135         5.1590461        4
    66         3.4710447        2       136         5.5595511        4
    67         3.7733832        2       137         5.5738231        4
    68         3.8539694        2       138         6.2254747        4
    69         4.1422784        2       139         7.0058857        4
    70         4.2346035        2
------------------------------------------------------------------------
  -11.0929921817763      -0.903474772666910      -0.433976021557780     
 -0.240816724816844      -4.094682612745817E-002 -0.526597799811221     
  -11.0912270561982      -0.647857491159803      -0.383453474965783     
  0.242953710064846       0.290397159853710       0.455777178429509     
  0.499237973852810       0.582524521877470       0.702097108485695     
  0.751499469330046       0.841741929580458        1.02489529620237     
   1.09855777312517        1.11604168726547        1.20122402469389     
   1.32714150424677        1.40779385672339        1.42182200131749     
   1.66139367799655        1.98814638647719        2.46797929072509     
   2.62368422312315        2.68433138988083        2.89684143320426     
   3.02950184880297        3.23637899851490        3.25620560202075     
   3.31648606335976        3.68873590876785        3.71563671290635     
   4.14224162212564        4.18715515802105        4.22257215133345     
   4.27377243103611        4.35896089545545        4.47595349054928     
   4.51248216269912        4.77866379466441        5.06163488631824     
   5.11694611970193        5.44135967384352        5.71944106377655     
   12.2301436061680       0.303078222343918       0.451940693639130     
  0.607530620790966       0.723445333019975       0.803844107792190     
   1.08334112763625        1.20954932516390        1.35104413951175     
   1.39010444283176        1.47766433140123        1.59514601274363     
   2.77285518510792        2.84318336773782        3.04977568376871     
   3.24549873679958        3.25457307766470        3.47104467117211     
   3.77338320172810        3.85396943908716        4.14227836237392     
   4.23460354705924        4.33324870266848        4.45700147928509     
   4.60087818129882        5.25962346948363        5.35008926905885     
   5.75870128036789        6.40395771075614       0.288504646552945     
  0.309734241197859       0.456725482974123       0.479985089586194     
  0.694731048766203       0.746577405246160       0.771717510845339     
  0.914847438941123        1.13877170875071        1.33208644248110     
   1.36751847906673        1.45648338350160        1.51053352153981     
   1.61033377347590        1.70920227636124        1.93926309193450     
   2.70329479606177        2.88398171849703        3.37548448355991     
   3.39820054238523        3.53856208073211        3.56187708690224     
   3.58993433226529        4.01402542248436        4.10036064897818     
   4.26107759519155        4.31809944286943        4.45986518496236     
   4.49388184049933        4.63730490179880        4.89563507608806     
   4.95259145551844        5.43595559553387        5.67077653020184     
   6.09725168308857        6.64456376181430        14.9337795619421     
  0.355125977605206       0.820573101311685       0.960114378491109     
   1.02687504401072        1.11498480309754        1.15232802331512     
   1.72462822772886        1.77026234550429        2.10117215288121     
   2.97656997448680        3.19738381866723        3.28633700423754     
   3.56075072317830        3.57859725459662        3.94770068559882     
   4.04328706675402        4.10904100170593        4.22528046046887     
   4.32296525004474        4.73883870692612        5.15904612668040     
   5.55955112939104        5.57382313512209        6.22547467757637     
   7.00588565344438     
 @CHECKOUT-I, Total execution time (CPU/WALL):       12.06/       2.53 seconds.
--executable xvtran finished with status     0 in        2.55 seconds (walltime).
 --invoking executable--
/home/tsommerfeld/zscale/bin/xintprc
 @GETMEM-I,  Allocated   85830 MB of main memory.
  Processing integrals for CCSD calculation.
  @GMOIAA-I, Processing MO integrals for spin case AA.
  @GMOIAA-I, Generation of integral list completed.
                      TYPE                NUMBER
                      ----               --------
                      PPPP               9084376
                      PPPH               2501601
                      PPHH                173538
                      PHPH                 97627
                      PHHH                 13713
                      HHHH                   332

                     TOTAL              11871187

  @FORMT2-I, Second-order MP correlation energies:
            ------------------------------------------------
            E(SCF)                  =    -78.540565910684 a.u.
            E2(AA)                  =     -0.038428060690 a.u.
            E2(AB)                  =     -0.320954183146 a.u.
            E2(TOT)                 =     -0.397810304526 a.u.
            Total MP2 energy        =    -78.938376215210 a.u.
            ------------------------------------------------
   Largest T2 amplitudes for spin case AB:
       _       _                 _       _                 _       _
   i   j   a   b             i   j   a   b             i   j   a   b
-----------------------------------------------------------------------------
[  4   4  78  78]-0.07987 [  5   5  10  10]-0.07340 [  5   5  51  51]-0.03960
[  5   5  80  80]-0.03508 [  4   4  82  78]-0.03124 [  4   4  78  82]-0.03124
[  4   4  14  14]-0.02995 [  5   5  17  10] 0.02902 [  5   5  10  17] 0.02902
[  5   5  17  17]-0.02900 [  5   5  10  15]-0.02850 [  5   5  15  10]-0.02850
[  4   3  78  85]-0.02603 [  3   4  85  78]-0.02603 [  5   5  12  12]-0.02547
-----------------------------------------------------------------------------
   Norm of T2AB vector (   345906 symmetry allowed elements):  0.3332594470.
-----------------------------------------------------------------------------
 @CHECKOUT-I, Total execution time (CPU/WALL):        4.11/       2.84 seconds.
--executable xintprc finished with status     0 in        2.86 seconds (walltime).
  calling xvcc 
 --invoking executable--
/home/tsommerfeld/zscale/bin/xvcc
 @GETMEM-I,  Allocated   85830 MB of main memory.
   CCSD energy will be calculated.
   The total correlation energy is -0.397810304526 a.u.
   The total correlation energy is -0.417262039570 a.u.
  Convergence information after     1 iterations: 
  Largest element of residual vector : -0.23991570E-01.
  Largest element of DIIS residual   : -0.23991570E-01.
   The total correlation energy is -0.428384562991 a.u.
  Convergence information after     2 iterations: 
  Largest element of residual vector : -0.12009573E-01.
  Largest element of DIIS residual   : -0.10311327E-01.
   The total correlation energy is -0.431182546399 a.u.
  Convergence information after     3 iterations: 
  Largest element of residual vector : -0.63541594E-02.
  Largest element of DIIS residual   :  0.58720480E-02.
   The total correlation energy is -0.432793336310 a.u.
  Convergence information after     4 iterations: 
  Largest element of residual vector :  0.34488132E-02.
  Largest element of DIIS residual   : -0.21002365E-02.
   The total correlation energy is -0.432962980269 a.u.
  Convergence information after     5 iterations: 
  Largest element of residual vector :  0.12488685E-02.
  Largest element of DIIS residual   :  0.57007564E-03.
   The total correlation energy is -0.432969067653 a.u.
  Convergence information after     6 iterations: 
  Largest element of residual vector : -0.31927270E-03.
  Largest element of DIIS residual   :  0.26038046E-03.
   The total correlation energy is -0.432963167909 a.u.
  Convergence information after     7 iterations: 
  Largest element of residual vector :  0.14172705E-03.
  Largest element of DIIS residual   :  0.73435714E-04.
   The total correlation energy is -0.432955164166 a.u.
  Convergence information after     8 iterations: 
  Largest element of residual vector :  0.47750157E-04.
  Largest element of DIIS residual   :  0.28273457E-04.
   The total correlation energy is -0.432955845663 a.u.
  Convergence information after     9 iterations: 
  Largest element of residual vector : -0.13382366E-04.
  Largest element of DIIS residual   : -0.12889952E-04.
   The total correlation energy is -0.432956370973 a.u.
  Convergence information after    10 iterations: 
  Largest element of residual vector :  0.65609153E-05.
  Largest element of DIIS residual   : -0.69839868E-05.
   The total correlation energy is -0.432957185796 a.u.
  Convergence information after    11 iterations: 
  Largest element of residual vector : -0.46981723E-05.
  Largest element of DIIS residual   :  0.43528112E-05.
   The total correlation energy is -0.432957673314 a.u.
  Convergence information after    12 iterations: 
  Largest element of residual vector :  0.29227803E-05.
  Largest element of DIIS residual   :  0.19947280E-05.
   The total correlation energy is -0.432957956344 a.u.
  Convergence information after    13 iterations: 
  Largest element of residual vector :  0.14685093E-05.
  Largest element of DIIS residual   :  0.93474371E-06.
   The total correlation energy is -0.432958040328 a.u.
  Convergence information after    14 iterations: 
  Largest element of residual vector :  0.58329362E-06.
  Largest element of DIIS residual   :  0.36535138E-06.
   The total correlation energy is -0.432958031995 a.u.
  Convergence information after    15 iterations: 
  Largest element of residual vector :  0.25863123E-06.
  Largest element of DIIS residual   :  0.16487478E-06.
   The total correlation energy is -0.432958017109 a.u.
  Convergence information after    16 iterations: 
  Largest element of residual vector :  0.94445146E-07.
  Largest element of DIIS residual   :  0.48243627E-07.
  Amplitude equations converged in    16iterations.
   The total correlation energy is -0.432958009181 a.u.
   The CC iterations have converged.

   Largest T1 amplitudes for spin case AA:
   i       a                 i       a                 i       a    
-----------------------------------------------------------------------------
[  5      10    ] 0.03178 [  4      14    ]-0.01913 [  4      18    ] 0.01320
[  5      17    ] 0.01268 [  4      21    ] 0.00918 [  4      15    ] 0.00840
[  6      52    ]-0.00807 [  4      22    ] 0.00759 [  4      27    ]-0.00695
[  6      53    ] 0.00627 [  4      13    ] 0.00622 [  4      28    ] 0.00590
[  5      15    ]-0.00506 [  4      12    ]-0.00497 [  5      31    ] 0.00466
-----------------------------------------------------------------------------
   Norm of T1AA vector (      327 symmetry allowed elements):  0.0510970314.
-----------------------------------------------------------------------------
   Largest T2 amplitudes for spin case AB:
       _       _                 _       _                 _       _
   i   j   a   b             i   j   a   b             i   j   a   b
-----------------------------------------------------------------------------
[  5   5  10  10]-0.13250 [  4   4  78  78]-0.11193 [  5   5  17  10] 0.05794
[  5   5  10  17] 0.05794 [  5   5  15  10]-0.05565 [  5   5  10  15]-0.05565
[  5   5  51  51]-0.05229 [  5   5  80  80]-0.04604 [  4   4  82  78]-0.04348
[  4   4  78  82]-0.04348 [  5   5  17  17]-0.03692 [  5   5  12  12]-0.03323
[  5   5  15  15]-0.03318 [  5   5  11  10] 0.03226 [  5   5  10  11] 0.03226
-----------------------------------------------------------------------------
   Norm of T2AB vector (   345906 symmetry allowed elements):  0.4162961230.
-----------------------------------------------------------------------------
       Summary of iterative solution of CC equations 
      -----------------------------------------------------------
                       Correlation           Total
       Iteration         Energy              Energy
      -----------------------------------------------------------
            0        -0.397810304526     -78.938376215210  DIIS 
            1        -0.417262039570     -78.957827950254  DIIS 
            2        -0.428384562991     -78.968950473675  DIIS 
            3        -0.431182546399     -78.971748457083  DIIS 
            4        -0.432793336310     -78.973359246994  DIIS 
            5        -0.432962980269     -78.973528890953  DIIS 
            6        -0.432969067653     -78.973534978337  DIIS 
            7        -0.432963167909     -78.973529078593  DIIS 
            8        -0.432955164166     -78.973521074850  DIIS 
            9        -0.432955845663     -78.973521756347  DIIS 
           10        -0.432956370973     -78.973522281657  DIIS 
           11        -0.432957185796     -78.973523096480  DIIS 
           12        -0.432957673314     -78.973523583998  DIIS 
           13        -0.432957956344     -78.973523867028  DIIS 
           14        -0.432958040328     -78.973523951012  DIIS 
           15        -0.432958031995     -78.973523942679  DIIS 
           16        -0.432958009181     -78.973523919865  DIIS 
      -----------------------------------------------------------
      A miracle has come to pass. The CC iterations have converged.
      The reference energy is       -78.54056591068395 a.u.
      The correlation energy is      -0.43295800918084 a.u.
      The total energy is           -78.97352391986479 a.u.
 @CHECKOUT-I, Total execution time (CPU/WALL):       76.61/       9.59 seconds.
--executable xvcc finished with status     0 in        9.61 seconds (walltime).
  The final electronic energy is       -78.973523919864789 a.u. 
  This computation required                           21.82 seconds (walltime).
