CFour on node02
 --invoking executable--
/home/tsommerfeld/zscale/bin/xjoda


   *************************************************************************
         <<<     CCCCCC     CCCCCC   |||     CCCCCC     CCCCCC   >>>
       <<<      CCC        CCC       |||    CCC        CCC         >>>
      <<<      CCC        CCC        |||   CCC        CCC            >>>
    <<<        CCC        CCC        |||   CCC        CCC              >>>
      <<<      CCC        CCC        |||   CCC        CCC            >>>
       <<<      CCC        CCC       |||    CCC        CCC         >>>
         <<<     CCCCCC     CCCCCC   |||     CCCCCC     CCCCCC   >>>
   *************************************************************************

     ****************************************************************
     * CFOUR Coupled-Cluster techniques for Computational Chemistry *
     ****************************************************************
 

   Department of Chemistry                Institut fuer Physikalische Chemie
   University of Florida                  Universitaet Mainz
   Gainesville, FL 32611, USA             D-55099 Mainz, Germany

   Department of Chemistry                Department of Chemistry
   Johns Hopkins University               Southern Methodist University
   Baltimore, MD 21218, USA               Dallas, TX 75275, USA

   Institute of Nanotechnology            Department of Physical Chemistry
   Karlsruhe Inst. of Technology          Eotvos Lorand University
   D-76021 Karlsruhe, Germany             H-1053 Budapest, Hungary

 
                       Version 2.1
 
                     node02                                            
                     Thu Mar 31 13:55:12 CST 2022                      
                     integer*8 version is running
 
********************************************************************************
*                          Input from ZMAT file                                *
********************************************************************************
h_ethylene                                                                      
C       0.000000      0.0   -0.664500                                           
C       0.000000      0.0    0.664500                                           
H       0.962348      0.0   -1.159080                                           
H       0.962348      0.0    1.159080                                           
H      -0.962348      0.0   -1.159080                                           
H      -0.962348      0.0    1.159080                                           
H      0.000000      10.0      0.000000                                         
                                                                                
*CFOUR(CALC=CCSD                                                                
#EXCITE=EOMEE                                                                   
#ESTATE_SYM=0/3/0/0                                                             
CC_PROG=VCC                                                                     
CHARGE=-1                                                                       
COORDINATES=CARTESIAN                                                           
BASIS=SPECIAL                                                                   
REFERENCE=RHF                                                                   
MEM_SIZE=90,MEM_UNIT=GB)                                                        
                                                                                
C:cc-pVTZ                                                                       
C:cc-pVTZ                                                                       
H:cc-pVTZ                                                                       
H:cc-pVTZ                                                                       
H:cc-pVTZ                                                                       
H:cc-pVTZ                                                                       
H:aug-cc-pVTZ                                                                   
                                                                                
********************************************************************************
  @GTFLGS-W, Keyword #EXCITE not known and is ignored.
  @GTFLGS-W, Keyword #ESTATE_SYM not known and is ignored.
    -------------------------------------------------------------------
                    CFOUR Control Parameters 
    -------------------------------------------------------------------
        External           Internal           Value            Units
          Name               Name
    -------------------------------------------------------------------
       ABCDTYPE             IABCDT         STANDARD    [  0]    ***   
       ANHARMONIC           IANHAR         OFF         [  0]    ***   
       ANH_ALGORIT          IANALG         STANDARD    [  0]    ***   
       ANH_DERIVAT          IANDER         SECOND      [  1]    ***   
       ANH_MODE             ANHMOD         VIBRATION   [  0]    ***   
       ANH_STEPSIZ          ICUBST             50000          x 10-6  
       ANH_SYMMETR          IANHSM         ABELIAN     [  0]    ***   
       AO_LADDERS           IAOLAD         SINGLEPASS  [  1]    ***   
       AV_SCF               IAVSCF         OFF         [  0]    ***   
       BASIS                IBASIS         SPECIAL     [  0]    ***   
       BOTHVECTORS          BOTHVC         OFF         [  0]    ***   
       BOX_POTENT           IPIAB          OFF         [  0]    ***   
       BREIT                IBREIT         OFF         [  0]    ***   
       BRUCK_CONV           IBRTOL          10D-  4             ***   
       BRUECKNER            IBRKNR         OFF         [  0]    ***   
       BUFFERSIZE           IBUFFS              4096            ***   
       CACHE_RECS           ICHREC             10               ***   
       CALCLEVEL            ICLLVL         CCSD        [ 10]    ***   
       CCORBOPT             ICCORB         OFF         [  0]  x 0.01  
       CC_CONV              ICCCNV          10D-  7             ***   
       CC_EXPORDER          ICCEOR              5               ***   
       CC_EXTRAPOL          ICCEXT         DIIS        [  1]    ***   
       CC_GUESS             ICCGES         MP2         [  0]    ***   
       CC_MAXCYC            ICCCYC            100              cycles 
       CC_PROGRAM           ICCPRO         VCC         [  0]    ***   
       CHARGE               ICHRGE             -1               ***   
       CHOLESKY             ICHOLE         OFF         [  0]    ***   
       CIS_CONV             ICISTL              5               ***   
       COMM_SIZE            IPSIZE            ***               ***   
       CONSTANT             ICONST         OLD         [  1]    ***   
       CONTINUUM            ICONTU         NONE        [  0]    ***   
       CONTRACTION          ICNTYP         GENERAL     [  1]    ***   
       COORDINATES          ICOORD         CARTESIAN   [  1]    ***   
       CPHF_CONVER          ICPHFT          10D- 16             ***   
       CPHF_MAXCYC          ICPHFC             64              cycles 
       CUBIC                ICUBIC         OFF         [  0]    ***   
       CURVILINEAR          ICURVY         OFF         [  0]    ***   
       DBOC                 IDBOC          OFF         [  0]    ***   
       DCT                  IDCT           OFF         [  0]    ***   
       DERIV_LEV            IDRLVL         ZERO        [  0]    ***   
       DEVMEM_SIZE          IDVMEM         *********           MByte  
       DIAG_MRCC            IEOMST          10D-  0             ***   
       DIFF_TYPE            IDIFTY         RELAXED     [  0]    ***   
       DIRECT               IDIRCT         OFF         [  0]    ***   
       DROPMO               IDRPMO      NONE         
       ECP                  IECP           OFF         [  0]    ***   
       EIGENVECTOR          IVEC                1               ***   
       EL_ANHARM            IELANH         OFF         [  0]    ***   
       EOMFOLLOW            IEOMSR         ENERGY      [  0]    ***   
       EOMIP                IEOMIP         OFF         [  0]    ***   
       EOMLEVEL             HBARFM         SAME        [  0]    ***   
       EOM_MRCC             IMRCCE         NEW         [  1]    ***   
       EOM_NONIT            EOMNON         OFF         [  0]    ***   
       EOM_NSING            IEOMSI          10D-  0             ***   
       EOM_NSTATES          IMRCCD         DAVIDSON    [  0]    ***   
       EOM_NTRIP            IEOMTR          10D-  0             ***   
       EOM_ORDER            IEXORD         ENERGY      [  0]    ***   
       EOM_PROPSTA          IEOMST              0               ***   
       ESTATE_CONV          IEXTOL          10D-  5             ***   
       ESTATE_DIAG          IEXDIG         ITERATIVE   [  0]    ***   
       ESTATE_LOCK          IESLOC         ON          [  1]    ***   
       ESTATE_MAXC          IEXMXC             40               ***   
       ESTATE_PROP          IEXPRP         OFF         [  0]    ***   
       EVAL_HESS            IRECAL              0            # of cyc.
       EXCITATION           IEXCIT              0               ***   
       EXCITE               IEXCIT         NONE        [  0]    ***   
       EXTERN_POT           IEXPOT         OFF         [  0]    ***   
       FCGRADNEW            IFCGNW         OFF         [  0]    ***   
       FC_FIELD             IFINFC              0             x 10-6  
       FD_CALTYPE           IFDCAL         GRADONLY    [  0]    ***   
       FD_PROJECT           IFDPRJ         OFF         [  1]    ***   
       FD_STEPSIZE          IDISFD              0            10-4 bohr
       FD_USEGROUP          IFDGRP         FULL        [  0]    ***   
       FILE_RECSIZ          IFLREC              4096           words  
       FINITE_PERT          IFIPER              0             x 10-6  
       FIXGEOM              IFIXGM         OFF         [  0]    ***   
       FOCK                 IFOCK          AO          [  1]    ***   
       FREQ_ALGORI          IVIALG         STANDARD    [  0]    ***   
       FROZEN_CORE          IFROCO         OFF         [  0]    ***   
       GAMMA_ABCD           IGABCD         STORE       [  0]    ***   
       GAMMA_ABCI           IGABCI         STORE       [  0]    ***   
       GENBAS_1             IGNBS1              0               ***   
       GENBAS_2             IGNBS2              0               ***   
       GENBAS_3             IGNBS3              0               ***   
       GENBAS_4             IGNBS4              0               ***   
       GEO_CONV             ICONTL              5              H/bohr 
       GEO_MAXCYC           IOPTCY             50               ***   
       GEO_MAXSTEP          IMXSTP            300            millibohr
       GEO_METHOD           INR            SINGLE_POINT[  5]    ***   
       GIAO                 IGIAO          OFF         [  1]    ***   
       GIMIC                IGIMIC         OFF         [  0]    ***   
       GRID                 IGRID          OFF         [  0]    ***   
       GRID_ALGO            IGALGO         SERIAL      [  0]    ***   
       GUESS                IGUESS         MOREAD      [  0]    ***   
       HBAR                 IHBAR          OFF         [  0]    ***   
       HESS_TYPE            IHESTP         SCF         [  0]    ***   
       HF2_FILE             IHF2Fl         USE         [  1]    ***   
       HFSTABILITY          ISTABL         OFF         [  0]    ***   
       INCORE               INCORE         OFF         [  0]    ***   
       INPUT_MRCC           IMRCC          ON          [  1]    ***   
       INTEGRALS            INTTYP         VMOL        [  1]    ***   
       JODA_PRINT           IJPRNT              0               ***   
       KEYWORD_OUT          IDMPKW         NO          [  0]    ***   
       LINDEP_TOL           ILINDP              8               ***   
       LINEQ_CONV           IZTACN          10D-  7           cycles  
       LINEQ_EXPOR          ILMAXD              5               ***   
       LINEQ_MAXCY          ILMAXC            100               ***   
       LINEQ_TYPE           ILTYPE         DIIS        [  1]    ***   
       LOCK_ORBOCC          ILOCOC         OFF         [  0]    ***   
       MEMORY_SIZE          IMEMSZ         *********           words  
       MEM_UNIT             IMEMU          GB          [  3]    ***   
       MRCC                 IMRCCC         OFF         [  0]    ***   
       MULTIPLICTY          IMULTP              1               ***   
       NACOUPLING           IVCOUP         OFF         [  0]    ***   
       NEGEVAL              IDIE           ABORT       [  0]    ***   
       NEWNORM              INEWNO         OFF         [  0]    ***   
       NON-HF               INONHF         OFF         [  0]    ***   
       NTOP_TAMP            ITOPT2             15               ***   
       NUC_MODEL            INUCMO         POINT       [  0]    ***   
       OCCUPATION           IOCCU   ESTIMATED BY SCF 
       OPEN-SHELL           IOPEN          SPIN-ORBITAL[  0]    ***   
       OPTVIB               IOPTVB         OFF         [  0]    ***   
       ORBITALS             IORBTP         STANDARD    [  0]    ***   
       PARALLEL             IPARAL         ON          [  1]    ***   
       PARA_INT             IPINTS         ON          [  1]    ***   
       PARA_PRINT           IPPRIN              0               ***   
       PERT_ORB             IPTORB         STANDARD    [  0]    ***   
       POINTS               IGRDFD              0               ***   
       PRINT                IPRNT               0               ***   
       PROPS                IPROPS         OFF         [  0]    ***   
       PROP_INTEGR          IINTYP         INTERNAL    [  0]    ***   
       PSI                  IPSI           OFF         [  0]    ***   
       QC_ALG               IQCALG         FLM         [  0]    ***   
       QC_LINALG            IQCLIN         TRIDIAG     [  2]    ***   
       QC_MAXCYC            IQCMAX          10D-100           cycles  
       QC_MAXSCFCY          IQCMSC          10D- 15           cycles  
       QC_RTRUST            IQCRTR          10D-  0           x 10-3  
       QC_SKIPSCF           IQCSKI         OFF         [  0]    ***   
       QC_START             IQCSTA          10D-  1             ***   
       QRHFGUESS            IQGUES         OFF         [  0]    ***   
       QUARTIC              IQUART         OFF         [  0]    ***   
       RAMAN_INT            IRAMIN         OFF         [  0]    ***   
       RAMAN_ORB            IRAMRE         UNRELAXED   [  0]    ***   
       RDO                  IRDOFM         OFF         [  0]    ***   
       REDUCE_REPR          REDREP         Ir          [  0]    ***   
       REFERENCE            IREFNC         RHF         [  0]    ***   
       RELATIVIST           IRELAT         OFF         [  0]    ***   
       RELAX_DENS           IRDENS         OFF         [  0]    ***   
       RESET_FLAGS          IRESET         OFF         [  0]    ***   
       RESTART_CC           ICCRES         OFF         [  0]    ***   
       ROT_EVEC             ROTVEC              0               ***   
       SAVE_INTS            ISVINT         OFF         [  0]    ***   
       SCALE_ON             ISTCRT              0               ***   
       SCF_CONV             ISCFCV          10D-  7             ***   
       SCF_DAMPING          IDAMP               0             x 10-3  
       SCF_EXPORDE          IRPPOR              6               ***   
       SCF_EXPSTAR          IRPPLS              8               ***   
       SCF_EXTRAPO          IRPP           ON          [  1]    ***   
       SCF_MAXCYC           ISCFCY            150              cycles 
       SCF_NOSTOP           ISCFST         OFF         [  0]    ***   
       SCF_PRINT            ISCFPR              0               ***   
       SCF_PROG             ISCFPR         SCF         [  0]    ***   
       SD_FIELD             IFINSD              0             x 10-6  
       SOPERT               IPERSO         OFF         [  0]    ***   
       SPHERICAL            IDFGHI         ON          [  1]    ***   
       SPINORBIT            ISOCAL         OFF         [  0]    ***   
       SPINROTATIO          ISRCON         OFF         [  0]    ***   
       SPIN_FLIP            ISPFLP         OFF         [  0]    ***   
       SPIN_ORBIT           ISPORB         OFF         [  0]    ***   
       SPIN_SCAL            ISCSMP         OFF         [  0]    ***   
       STEEPSCALE           ISTPSC              1000          x 10-3  
       SUBGROUP             ISUBGP         DEFAULT     [  0]    ***   
       SUBGRPAXIS           ISBXYZ         X           [  0]    ***   
       SYMMETRY             ISYM           ON          [  0]    ***   
       SYM_CHECK            ISYMCK         OVERRIDE    [  1]    ***   
       T3_EXTRAPOL          IT3EXT         OFF         [  0]    ***   
       T4_EXTRAPOL          IT4EXP         OFF         [  0]    ***   
       TAMP_SUM             IEVERY              5               ***   
       TESTSUITE            ITESTS         OFF         [  0]    ***   
       THERMOCH             ITHERM         OFF         [  0]    ***   
       TOL_CHOLESK          ITOLCH          10D-  4             ***   
       TRANGRAD             IRESRM         OFF         [  0]    ***   
       TRANS_INV            ITRAIN         USE         [  0]    ***   
       TREAT_PERT           ITREAT         SIMULTANEOUS[  0]    ***   
       TRIP_ALGORI          ITRALG         NORMAL      [  0]    ***   
       UIJ_THRESHO          IUIJTH              1               ***   
       UNITS                IUNITS         ANGSTROM    [  0]    ***   
       UNOS                 IUNOS          OFF         [  0]    ***   
       UPDATE_HESS          IHUPDT         ON          [  1]    ***   
       VIBPHASE             ISETPH         STANDARD    [  0]    ***   
       VIBRATION            IVIB           NO          [  0]    ***   
       VIB_ALGORIT          IGEALG         STANDARD    [  0]    ***   
       VNATORB              IVNORB         OFF         [  0]    ***   
       VTRAN                IVTRAN         FULL/PARTIAL[  0]    ***   
       XFIELD               IXEFLD              0             x 10-6  
       XFORM_TOL            IXFTOL          10D- 11             ***   
       YFIELD               IYEFLD              0             x 10-6  
       ZFIELD               IZEFLD              0             x 10-6  
       ZSCALE_EXP           IZEXPS         OFF         [  0]    ***   
    -------------------------------------------------------------------
  @GETXYZ-I,     7 atoms read from ZMAT.
   Rotational constants (in cm-1): 
          0.1487900210             0.1668771517             0.8536890782
   Rotational constants (in MHz): 
       4460.6132369596          5002.8518491759         25592.9582983936
********************************************************************************
   The full molecular point group is C2v .
   The largest Abelian subgroup of the full molecular point group is C2v .
   The computational point group is C2v .
********************************************************************************


 ----------------------------------------------------------------
         Coordinates used in calculation (QCOMP) 
 ----------------------------------------------------------------
 Z-matrix   Atomic            Coordinates (in bohr)
  Symbol    Number           X              Y              Z
 ----------------------------------------------------------------
     C         6        -1.25572327     0.00000000    -0.65584403
     C         6         1.25572327     0.00000000    -0.65584403
     H         1        -2.19034422     1.81857454    -0.65584403
     H         1         2.19034422     1.81857454    -0.65584403
     H         1        -2.19034422    -1.81857454    -0.65584403
     H         1         2.19034422    -1.81857454    -0.65584403
     H         1         0.00000000     0.00000000    18.24142117
 ----------------------------------------------------------------
 
   Interatomic distance matrix (Angstroms) 
 
                 C             C             H             H             H    
                [ 1]        [ 2]        [ 3]        [ 4]        [ 5]
  C    [ 1]     0.00000
  C    [ 2]     1.32900     0.00000
  H    [ 3]     1.08200     2.06193     0.00000
  H    [ 4]     2.06193     1.08200     2.31816     0.00000
  H    [ 5]     1.08200     2.06193     1.92470     3.01303     0.00000
  H    [ 6]     2.06193     1.08200     3.01303     1.92470     2.31816
  H    [ 7]    10.02206    10.02206    10.11284    10.11284    10.11284
 
                 H             H    
                [ 6]        [ 7]
  H    [ 6]     0.00000
  H    [ 7]    10.11284     0.00000
 rotcon2
   Rotational constants (in cm-1): 
          0.1668771517             0.1487900210             0.8536890782
   Rotational constants (in MHz): 
       5002.8518491759          4460.6132369596         25592.9582983935
  ECPDATA file not present.   Using default ECPDATA. 
  @GTFLGS-W, Keyword #EXCITE not known and is ignored.
  @GTFLGS-W, Keyword #ESTATE_SYM not known and is ignored.
  There are  139 basis functions.
 @GEOPT-W, Archive file not created for single-point calculation.
 @CHECKOUT-I, Total execution time (CPU/WALL):        0.14/       0.16 seconds.
--executable xjoda finished with status     0 in        0.18 seconds (walltime).
 --invoking executable--
/home/tsommerfeld/zscale/bin/xvmol
 SERIAL VERSION OF MOLECULE STARTED
********************************************************************************
                    INPUT FROM MOL FILE
********************************************************************************
INTGRL        1    0    1    0    0    0    0    0    0                         
         *** CFOUR Program System (Release V0.1) ***                            
h_ethylene                                                                      
    3    2 X  Y       0.10E-08              0    0                              
   9999.00      3.00                                                            
          6.00000000    1    4    1    1    1    1                              
C #1  -1.255723272983657   0.000000000000000  -0.655844032957273                
   10    4                                                                      
   8236.00000000000       5.310000000000000E-004  0.000000000000000E+000        
 -1.130000000000000E-004  0.000000000000000E+000                                
   1235.00000000000       4.108000000000000E-003  0.000000000000000E+000        
 -8.780000000000000E-004  0.000000000000000E+000                                
   280.800000000000       2.108700000000000E-002  0.000000000000000E+000        
 -4.540000000000000E-003  0.000000000000000E+000                                
   79.2700000000000       8.185300000000000E-002  0.000000000000000E+000        
 -1.813300000000000E-002  0.000000000000000E+000                                
   25.5900000000000       0.234817000000000       0.000000000000000E+000        
 -5.576000000000000E-002  0.000000000000000E+000                                
   8.99700000000000       0.434401000000000       0.000000000000000E+000        
 -0.126895000000000       0.000000000000000E+000                                
   3.31900000000000       0.346129000000000       0.000000000000000E+000        
 -0.170352000000000       0.000000000000000E+000                                
  0.905900000000000       3.937800000000000E-002   1.00000000000000             
  0.140382000000000       0.000000000000000E+000                                
  0.364300000000000      -8.983000000000000E-003  0.000000000000000E+000        
  0.598684000000000       0.000000000000000E+000                                
  0.128500000000000       2.385000000000000E-003  0.000000000000000E+000        
  0.395389000000000        1.00000000000000                                     
    5    3                                                                      
   18.7100000000000       0.000000000000000E+000  1.403100000000000E-002        
  0.000000000000000E+000                                                        
   4.13300000000000       0.000000000000000E+000  8.686600000000000E-002        
  0.000000000000000E+000                                                        
   1.20000000000000       0.000000000000000E+000  0.290216000000000             
  0.000000000000000E+000                                                        
  0.382700000000000        1.00000000000000       0.501008000000000             
  0.000000000000000E+000                                                        
  0.120900000000000       0.000000000000000E+000  0.343406000000000             
   1.00000000000000                                                             
    2    2                                                                      
   1.09700000000000        1.00000000000000       0.000000000000000E+000        
  0.318000000000000       0.000000000000000E+000   1.00000000000000             
    1    1                                                                      
  0.761000000000000        1.00000000000000                                     
          1.00000000    1    3    1    1    1                                   
H #2  -2.190344215575466   1.818574537711477  -0.655844032957273                
    5    3                                                                      
   33.8700000000000       0.000000000000000E+000  6.068000000000000E-003        
  0.000000000000000E+000                                                        
   5.09500000000000       0.000000000000000E+000  4.530800000000000E-002        
  0.000000000000000E+000                                                        
   1.15900000000000       0.000000000000000E+000  0.202822000000000             
  0.000000000000000E+000                                                        
  0.325800000000000        1.00000000000000       0.503903000000000             
  0.000000000000000E+000                                                        
  0.102700000000000       0.000000000000000E+000  0.383421000000000             
   1.00000000000000                                                             
    2    2                                                                      
   1.40700000000000        1.00000000000000       0.000000000000000E+000        
  0.388000000000000       0.000000000000000E+000   1.00000000000000             
    1    1                                                                      
   1.05700000000000        1.00000000000000                                     
          1.00000000    1    3    1    1    1                                   
H #3   0.000000000000000   0.000000000000000  18.241421173719285                
    6    4                                                                      
   33.8700000000000       0.000000000000000E+000  6.068000000000000E-003        
  0.000000000000000E+000  0.000000000000000E+000                                
   5.09500000000000       0.000000000000000E+000  4.530800000000000E-002        
  0.000000000000000E+000  0.000000000000000E+000                                
   1.15900000000000       0.000000000000000E+000  0.202822000000000             
  0.000000000000000E+000  0.000000000000000E+000                                
  0.325800000000000        1.00000000000000       0.503903000000000             
  0.000000000000000E+000  0.000000000000000E+000                                
  0.102700000000000       0.000000000000000E+000  0.383421000000000             
   1.00000000000000       0.000000000000000E+000                                
  2.526000000000000E-002  0.000000000000000E+000  0.000000000000000E+000        
  0.000000000000000E+000   1.00000000000000                                     
    3    3                                                                      
   1.40700000000000        1.00000000000000       0.000000000000000E+000        
  0.000000000000000E+000                                                        
  0.388000000000000       0.000000000000000E+000   1.00000000000000             
  0.000000000000000E+000                                                        
  0.102000000000000       0.000000000000000E+000  0.000000000000000E+000        
   1.00000000000000                                                             
    2    2                                                                      
   1.05700000000000        1.00000000000000       0.000000000000000E+000        
  0.247000000000000       0.000000000000000E+000   1.00000000000000             
FINISH                                                                          
 
********************************************************************************
 ONE- AND TWO-ELECTRON INTEGRALS OVER SYMMETRY-ADAPTED AOS ARE CALCULATED.

  SPHERICAL HARMONICS ARE USED.
  
  INTEGRALS LESS THAN  0.10E-13 ARE NEGLECTED.

  NUCLEAR REPULSION ENERGY :   34.4321396279 A.U.
  @MOLECU-I, ONE ELECTRON INTEGRALS (CPU/WALL):        0.04/       0.04 SECONDS.
  @TWOEL-I,     373856 INTEGRALS OF SYMMETRY TYPE  I I I I
  @TWOEL-I,    1514806 INTEGRALS OF SYMMETRY TYPE  I J I J
  @TWOEL-I,     904360 INTEGRALS OF SYMMETRY TYPE  I I J J
  @TWOEL-I,    1333380 INTEGRALS OF SYMMETRY TYPE  I J K L
  @TWOEL-I, TOTAL NUMBER OF 2-E INTEGRALS    4126402.
  @MOLECU-I, TWO ELECTRON INTEGRALS (CPU/WALL):       20.61/       3.57 SECONDS.
 @CHECKOUT-I, Total execution time (CPU/WALL):       20.67/       3.63 seconds.

Running with 8 threads/proc

--executable xvmol finished with status     0 in        3.65 seconds (walltime).
 --invoking executable--
/home/tsommerfeld/zscale/bin/xvmol2ja
 @GETMEM-I,  Allocated   85830 MB of main memory.
 @CHECKOUT-I, Total execution time (CPU/WALL):        0.08/       0.02 seconds.
--executable xvmol2ja finished with status     0 in        0.04 seconds (walltime).
 --invoking executable--
/home/tsommerfeld/zscale/bin/xvscf
  There are  139 functions in the AO basis.

  There are 4 irreducible representations.

       Irrep        # of functions
         1                 45
         2                 39
         3                 29
         4                 26


  Parameters for SCF calculation: 
        SCF reference function:  RHF  
  Maximum number of iterations:  150
     Full symmetry point group: C2v 
     Computational point group: C2v 
        Initial density matrix: MOREAD                 
     SCF convergence tolerance: 10**(- 7)
  DIIS convergence acceleration:  ON
          Latest start for DIIS:   8
                     DIIS order:   6

  Memory information:     823082 words required.
  Fock matrices are constructed from AO integral file.
 @GETMEM-I,  Allocated       6 MB of main memory.
  Initialization and symmetry analysis required      0.002 seconds.

  @INITGES-I, Occupancies from core Hamiltonian:

          Alpha population by irrep:   4    3    1    1
           Beta population by irrep:   4    3    1    1


 total no. of electrons in initial guess :  0.000000000000000E+000
  --------------------------------------------------------------------
  Iteration         Total Energy            Largest Density Difference
  --------------------------------------------------------------------
       0            34.432139627854035              0.0000000000D+00
   current occupation vector 
     4  3  1  1
     4  3  1  1
       1           -51.675673295164138              0.8749565175D+01
   current occupation vector 
     4  3  1  1
     4  3  1  1
       2           -39.987228839279773              0.3182369777D+02
   current occupation vector 
     5  3  1  0
     5  3  1  0
       3           -67.942305339050165              0.3156123703D+02
   current occupation vector 
     4  3  1  1
     4  3  1  1
       4           -42.071817826450534              0.1243480801D+02
   current occupation vector 
     6  2  1  0
     6  2  1  0
       5           -68.599761354101929              0.1243480801D+02
   current occupation vector 
     4  3  1  1
     4  3  1  1
       6           -42.349614001907462              0.1243480751D+02
   current occupation vector 
     6  2  1  0
     6  2  1  0
       7           -68.691472458930974              0.1243480751D+02
   current occupation vector 
     4  3  1  1
     4  3  1  1
       8           -42.386923939586531              0.1243480743D+02
   current occupation vector 
     6  2  1  0
     6  2  1  0
       9           -73.484782669540635              0.1243480743D+02
   current occupation vector 
     4  3  1  1
     4  3  1  1
      10           -75.720622488835517              0.9136077608D+00
   current occupation vector 
     4  3  1  1
     4  3  1  1
      11           -77.524843183228256              0.9109284951D+00
   current occupation vector 
     4  3  1  1
     4  3  1  1
      12           -76.482154574483928              0.2886667643D+01
   current occupation vector 
     5  2  1  1
     5  2  1  1
      13           -78.373414808670958              0.2858709444D+01
   current occupation vector 
     5  2  1  1
     5  2  1  1
      14           -78.421040101357931              0.2528902204D+00
   current occupation vector 
     5  2  1  1
     5  2  1  1
      15           -78.459836180016424              0.1822853350D+00
   current occupation vector 
     5  2  1  1
     5  2  1  1
      16           -78.539024508552330              0.3704266531D+00
   current occupation vector 
     5  2  1  1
     5  2  1  1
      17           -78.546906990486832              0.1333425643D+00
   current occupation vector 
     5  2  1  1
     5  2  1  1
      18           -78.546956840351072              0.2093580225D-01
   current occupation vector 
     5  2  1  1
     5  2  1  1
      19           -78.546959217044900              0.3950646691D-02
   current occupation vector 
     5  2  1  1
     5  2  1  1
      20           -78.546959223166880              0.9158527044D-04
   current occupation vector 
     5  2  1  1
     5  2  1  1
      21           -78.546959223965729              0.2923567962D-04
   current occupation vector 
     5  2  1  1
     5  2  1  1
      22           -78.546959223988324              0.5743017281D-05
   current occupation vector 
     5  2  1  1
     5  2  1  1
      23           -78.546959223988864              0.3324985615D-06
   current occupation vector 
     5  2  1  1
     5  2  1  1
      24           -78.546959223989148              0.1011851526D-06
   current occupation vector 
     5  2  1  1
     5  2  1  1

  SCF has converged.

 Density matrix saved to file den.dat
 total electron number:   18.0000000000000     
     E(SCF)=       -78.546959223989177              0.3645305754D-07


  Final occupancies:

     Alpha population by irrep:   5    2    1    1
      Beta population by irrep:   5    2    1    1


  Eigenvector printing suppressed.

 @PUTMOS-I, Writing converged MOs to NEWMOS. 
 @PUTMOS-I, Symmetry   1 Full Blocks 11 Partial Blocksize   1
 @PUTMOS-I, Symmetry   2 Full Blocks  9 Partial Blocksize   3
 @PUTMOS-I, Symmetry   3 Full Blocks  7 Partial Blocksize   1
 @PUTMOS-I, Symmetry   4 Full Blocks  6 Partial Blocksize   2
 @PUTFOCK-I, Writing converged Fock matrix to NEWFOCK. 
 @PUTFOCK-I, Symmetry   1 Full Blocks 11 Partial Blocksize   1
 @PUTFOCK-I, Symmetry   2 Full Blocks  9 Partial Blocksize   3
 @PUTFOCK-I, Symmetry   3 Full Blocks  7 Partial Blocksize   1
 @PUTFOCK-I, Symmetry   4 Full Blocks  6 Partial Blocksize   2


 
  ORBITAL EIGENVALUES (ALPHA)  (1H = 27.2113834 eV)

       MO #        E(hartree)               E(eV)           FULLSYM    COMPSYM
       ----   --------------------   --------------------   -------   ---------
    1     1         -11.1734449512        -304.0448944660      A1        A1 (1)
    2    46         -11.1716809365        -303.9968931856      B1        B1 (2)
    3     2          -0.9852279055         -26.8094142729      A1        A1 (1)
    4    47          -0.7272328987         -19.7890132269      B1        B1 (2)
    5    85          -0.6065564044         -16.5052388746      B2        B2 (3)
    6     3          -0.5135830628         -13.9753056294      A1        A1 (1)
    7   114          -0.4620966228         -12.5742883702      A2        A2 (4)
    8     4          -0.3238892469          -8.8134744762      A1        A1 (1)
    9     5          -0.0454513709          -1.2367946787      A1        A1 (1)
  +++++++++++++++++++++++++++++++++++++++++++++++++++++++++++++++++++++++++++++
   10    48           0.2075646725           5.6481218827      B1        B1 (2)
   11     6           0.2098413451           5.7100732938      A1        A1 (1)
   12    86           0.2372347904           6.4554868386      B2        B2 (3)
   13     7           0.2423116977           6.5936365081      A1        A1 (1)
   14    49           0.2447823028           6.6608650920      B1        B1 (2)
   15   115           0.2915148503           7.9325223596      A2        A2 (4)
   16    50           0.4074202429          11.0864684339      B1        B1 (2)
   17     8           0.4127698810          11.2320394886      A1        A1 (1)
   18    87           0.4494952319          12.2313870905      E         B2 (3)
   19    51           0.4494973518          12.2314447762      E         B1 (2)
   20     9           0.4495383750          12.2325610744      A1        A1 (1)
   21    10           0.4994861054          13.5917079178      A1        A1 (1)
   22    88           0.5241836403          14.2637620091      B2        B2 (3)
   23    11           0.5323847233          14.4869248225      A1        A1 (1)
   24    52           0.6183449267          16.8260208743      B1        B1 (2)
   25    53           0.6416054422          17.4589716798      B1        B1 (2)
   26    89           0.6493561868          17.6698801615      B2        B2 (3)
   27    12           0.6782216664          18.4553497947      A1        A1 (1)
   28    54           0.6918784444          18.8269696180      B1        B1 (2)
   29    90           0.7201165420          19.5953673170      B2        B2 (3)
   30   116           0.7463685676          20.3097212507      A2        A2 (4)
   31    13           0.7830674961          21.3083498655      A1        A1 (1)
   32    55           0.8377491576          22.7963135197      B1        B1 (2)
   33   117           0.8812005429          23.9786858243      A2        A2 (4)
   34    14           0.9490049423          25.8237373340      A1        A1 (1)
   35   118           0.9567244464          26.0337957183      A2        A2 (4)
   36    15           1.0388131059          28.2675417053      A1        A1 (1)
   37   119           1.0742588394          29.2320691503      A2        A2 (4)
   38    91           1.0900245131          29.6610749402      B2        B2 (3)
   39    16           1.1022029945          29.9924682683      E         A1 (1)
   40   120           1.1022029996          29.9924684076      E         A2 (4)
   41    92           1.1022174838          29.9928625429                B2 (3)
   42    56           1.1022183312          29.9928856016                B1 (2)
   43    17           1.1022243015          29.9930480598                A1 (1)
   44    18           1.2348414516          33.6017441769      A1        A1 (1)
   45    57           1.2353505068          33.6155962737      B1        B1 (2)
   46    19           1.2817243170          34.8774918031      A1        A1 (1)
   47    93           1.3071412430          35.5691215202      B2        B2 (3)
   48    94           1.3384889181          36.4221351269      E         B2 (3)
   49    58           1.3384897338          36.4221573233      E         B1 (2)
   50    20           1.3385055168          36.4225867997      A1        A1 (1)
   51    59           1.3745035821          37.4021439562      B1        B1 (2)
   52    95           1.3980306632          38.0423483815      B2        B2 (3)
   53    60           1.4169350413          38.5567626615      B1        B1 (2)
   54    96           1.5164205786          41.2639017608      B2        B2 (3)
   55    61           1.5309568311          41.6594533003      B1        B1 (2)
   56    21           1.5601582319          42.4540638127      A1        A1 (1)
   57    62           1.5855117627          43.1439684604      B1        B1 (2)
   58   121           1.6501942095          44.9040673194      A2        A2 (4)
   59   122           1.6888766036          45.9566687750      A2        A2 (4)
   60    63           1.8527177104          50.4150119502      B1        B1 (2)
   61    22           1.9048827683          51.8344953415      A1        A1 (1)
   62   123           2.0232036899          55.0541713019      A2        A2 (4)
   63    23           2.3390080422          63.6476446126      A1        A1 (1)
   64    24           2.4171979676          65.7753006503      A1        A1 (1)
   65    25           2.6007035900          70.7687424974      A1        A1 (1)
   66    64           2.6173643514          71.2221048626      B1        B1 (2)
   67    97           2.6766929175          72.8365172215      B2        B2 (3)
   68    98           2.7616383270          75.1479993273      B2        B2 (3)
   69    65           2.7940424454          76.0297602182      B1        B1 (2)
   70    26           2.8145266637          76.5871641353      A1        A1 (1)
   71   124           2.8944289691          78.7614164025      A2        A2 (4)
   72    99           2.9688909779          80.7876306712      B2        B2 (3)
   73    27           2.9767581802          81.0017081315      A1        A1 (1)
   74   125           3.1175893237          84.8339183702      A2        A2 (4)
   75    28           3.1494225537          85.7001445965      A1        A1 (1)
   76   100           3.1596013586          85.9771239594      B2        B2 (3)
   77    29           3.1618949210          86.0395349653      A1        A1 (1)
   78   101           3.1738971484          86.3661321768      B2        B2 (3)
   79   126           3.2060857734          87.2420291946      A2        A2 (4)
   80    30           3.2314987964          87.9335527063      A1        A1 (1)
   81    66           3.2818135586          89.3026869914      B1        B1 (2)
   82    67           3.3193302791          90.3235688556      B1        B1 (2)
   83   102           3.3909154435          92.2715002098      B2        B2 (3)
   84    68           3.4550949281          94.0179127708      B1        B1 (2)
   85    69           3.4788302706          94.6637842757      B1        B1 (2)
   86   127           3.4794954009          94.6818833930      A2        A2 (4)
   87   128           3.5006759737          95.2582360786      A2        A2 (4)
   88    70           3.5065225610          95.4173298087      B1        B1 (2)
   89    31           3.6034828292          98.0557528405      A1        A1 (1)
   90    32           3.6292728506          98.7575350012      A1        A1 (1)
   91   103           3.6948727565         100.5425991923      B2        B2 (3)
   92   104           3.7757644383         102.7437737576      B2        B2 (3)
   93   129           3.8691147171         105.2839639863      A2        A2 (4)
   94    71           3.9292817742         106.9211928452      B1        B1 (2)
   95   130           3.9651896812         107.8982966677      A2        A2 (4)
   96    72           4.0216211943         109.4338762087      B1        B1 (2)
   97   131           4.0301666344         109.6664094544      A2        A2 (4)
   98    33           4.0601401898         110.4820313634      A1        A1 (1)
   99   105           4.0648784855         110.6109669425      B2        B2 (3)
  100    34           4.1102784268         111.8463621512      A1        A1 (1)
  101    35           4.2162733569         114.7306308340                A1 (1)
  102   132           4.2162733585         114.7306308766                A2 (4)
  103   106           4.2162768438         114.7307257178                B2 (3)
  104    73           4.2162770399         114.7307310546                B1 (2)
  105    36           4.2162783681         114.7307671961                A1 (1)
  106    74           4.2377960977         115.3162943858      B1        B1 (2)
  107   133           4.2446818774         115.5036659783      A2        A2 (4)
  108    37           4.2459319756         115.5376828782      A1        A1 (1)
  109   107           4.2554409020         115.7964339213      B2        B2 (3)
  110    38           4.3826826810         119.2588587525      A1        A1 (1)
  111    75           4.4035514558         119.8267269866      B1        B1 (2)
  112   108           4.4443524864         120.9369794709                B2 (3)
  113    76           4.4443527223         120.9369858909                B1 (2)
  114    39           4.4443572882         120.9371101358                A1 (1)
  115   109           4.5230664970         123.0788965944      B2        B2 (3)
  116    77           4.5592032531         124.0622277192      B1        B1 (2)
  117   134           4.6597292648         126.7976795658      A2        A2 (4)
  118    40           4.6946359725         127.7475393722      A1        A1 (1)
  119    78           4.8110437207         130.9151552390      B1        B1 (2)
  120    79           4.8667032533         132.4297281205      B1        B1 (2)
  121    41           4.9813882768         135.5504662647      A1        A1 (1)
  122    42           5.0273864402         136.8021399252      A1        A1 (1)
  123   135           5.0812311642         138.2673293532      A2        A2 (4)
  124   110           5.1805455509         140.9698112058      B2        B2 (3)
  125   111           5.2699640297         143.4030117158      B2        B2 (3)
  126    43           5.3525090645         145.6491763055      A1        A1 (1)
  127    80           5.3578190890         145.7936694200      B1        B1 (2)
  128   136           5.4800379078         149.1194125557      A2        A2 (4)
  129   137           5.4955826332         149.5424060389      A2        A2 (4)
  130    81           5.5906906865         152.1304277424      B1        B1 (2)
  131    44           5.6160933689         152.8216698708      A1        A1 (1)
  132   112           5.6706732878         154.3068649709      B2        B2 (3)
  133    82           6.0102216080         163.5464444950      B1        B1 (2)
  134   138           6.1460911324         167.2436422155      A2        A2 (4)
  135   113           6.3238507308         172.0807268015      B2        B2 (3)
  136    83           6.5631347213         178.5919752058      B1        B1 (2)
  137   139           6.9266071357         188.4825624309      A2        A2 (4)
  138    45          11.9500707562         325.1779570043      A1        A1 (1)
  139    84          14.8024314088         402.7946363174      B1        B1 (2)


  VSCF finished.

 @CHECKOUT-I, Total execution time (CPU/WALL):        8.30/       1.05 seconds.
--executable xvscf finished with status     0 in        1.07 seconds (walltime).
 --invoking executable--
/home/tsommerfeld/zscale/bin/xvtran
 @GETMEM-I,  Allocated   85830 MB of main memory.
  Full RHF integral transformation
  Transformation of IIII integrals :
  1 pass through the AO integral file was required.
      373856 AO integrals were read.
      993273 MO integrals were written to HF2.
  Transformation of IIJJ integrals :
  1 pass through the AO integral file was required.
      904360 AO integrals were read.
     2371779 MO integrals were written to HF2.
  Transformation of IJIJ integrals :
  1 pass through the AO integral file was required.
     1514806 AO integrals were read.
     4480862 MO integrals were written to HF2.
  Transformation of IJKL integrals :
  1 pass through the AO integral file was required.
     1333380 AO integrals were read.
     3933073 MO integrals were written to HF2.
  Summary of active molecular orbitals: 
------------------------------------------------------------------------
 
  Index      Eigenvalue    Symmetry    Index      Eigenvalue    Symmetry
------------------------------------------------------------------------
     1       -11.1734450        1        71         3.4788303        2
     2        -0.9852279        1        72         3.5065226        2
     3        -0.5135831        1        73         3.9292818        2
     4        -0.3238892        1        74         4.0216212        2
     5        -0.0454514        1        75         4.2162770        2
     6       -11.1716809        2        76         4.2377961        2
     7        -0.7272329        2        77         4.4035515        2
     8        -0.6065564        3        78         4.4443527        2
     9        -0.4620966        4        79         4.5592033        2
    10         0.2098413        1        80         4.8110437        2
    11         0.2423117        1        81         4.8667033        2
    12         0.4127699        1        82         5.3578191        2
    13         0.4495384        1        83         5.5906907        2
    14         0.4994861        1        84         6.0102216        2
    15         0.5323847        1        85         6.5631347        2
    16         0.6782217        1        86        14.8024314        2
    17         0.7830675        1        87         0.2372348        3
    18         0.9490049        1        88         0.4494952        3
    19         1.0388131        1        89         0.5241836        3
    20         1.1022030        1        90         0.6493562        3
    21         1.1022243        1        91         0.7201165        3
    22         1.2348415        1        92         1.0900245        3
    23         1.2817243        1        93         1.1022175        3
    24         1.3385055        1        94         1.3071412        3
    25         1.5601582        1        95         1.3384889        3
    26         1.9048828        1        96         1.3980307        3
    27         2.3390080        1        97         1.5164206        3
    28         2.4171980        1        98         2.6766929        3
    29         2.6007036        1        99         2.7616383        3
    30         2.8145267        1       100         2.9688910        3
    31         2.9767582        1       101         3.1596014        3
    32         3.1494226        1       102         3.1738971        3
    33         3.1618949        1       103         3.3909154        3
    34         3.2314988        1       104         3.6948728        3
    35         3.6034828        1       105         3.7757644        3
    36         3.6292729        1       106         4.0648785        3
    37         4.0601402        1       107         4.2162768        3
    38         4.1102784        1       108         4.2554409        3
    39         4.2162734        1       109         4.4443525        3
    40         4.2162784        1       110         4.5230665        3
    41         4.2459320        1       111         5.1805456        3
    42         4.3826827        1       112         5.2699640        3
    43         4.4443573        1       113         5.6706733        3
    44         4.6946360        1       114         6.3238507        3
    45         4.9813883        1       115         0.2915149        4
    46         5.0273864        1       116         0.7463686        4
    47         5.3525091        1       117         0.8812005        4
    48         5.6160934        1       118         0.9567244        4
    49        11.9500708        1       119         1.0742588        4
    50         0.2075647        2       120         1.1022030        4
    51         0.2447823        2       121         1.6501942        4
    52         0.4074202        2       122         1.6888766        4
    53         0.4494974        2       123         2.0232037        4
    54         0.6183449        2       124         2.8944290        4
    55         0.6416054        2       125         3.1175893        4
    56         0.6918784        2       126         3.2060858        4
    57         0.8377492        2       127         3.4794954        4
    58         1.1022183        2       128         3.5006760        4
    59         1.2353505        2       129         3.8691147        4
    60         1.3384897        2       130         3.9651897        4
    61         1.3745036        2       131         4.0301666        4
    62         1.4169350        2       132         4.2162734        4
    63         1.5309568        2       133         4.2446819        4
    64         1.5855118        2       134         4.6597293        4
    65         1.8527177        2       135         5.0812312        4
    66         2.6173644        2       136         5.4800379        4
    67         2.7940424        2       137         5.4955826        4
    68         3.2818136        2       138         6.1460911        4
    69         3.3193303        2       139         6.9266071        4
    70         3.4550949        2
------------------------------------------------------------------------
  -11.1734449512039      -0.985227905499485      -0.513583062794189     
 -0.323889246889454      -4.545137086773312E-002  -11.1716809365018     
 -0.727232898673277      -0.606556404427632      -0.462096622777360     
  0.209841345065970       0.242311697689802       0.412769881027545     
  0.449538374972156       0.499486105428323       0.532384723316310     
  0.678221666405337       0.783067496138653       0.949004942320581     
   1.03881310588994        1.10220299451159        1.10222430145774     
   1.23484145157228        1.28172431700341        1.33850551676357     
   1.56015823189101        1.90488276834549        2.33900804222230     
   2.41719796760960        2.60070359000407        2.81452666369321     
   2.97675818023695        3.14942255366747        3.16189492098055     
   3.23149879642973        3.60348282919400        3.62927285061158     
   4.06014018983572        4.11027842675502        4.21627335690647     
   4.21627836812039        4.24593197559402        4.38268268097347     
   4.44435728819855        4.69463597253756        4.98138827681737     
   5.02738644023431        5.35250906447762        5.61609336887973     
   11.9500707562065       0.207564672461839       0.244782302836474     
  0.407420242877812       0.449497351765364       0.618344926717024     
  0.641605442222551       0.691878444446408       0.837749157571143     
   1.10221833123049        1.23535050679242        1.33848973379730     
   1.37450358206192        1.41693504129244        1.53095683111291     
   1.58551176271322        1.85271771042017        2.61736435136916     
   2.79404244541999        3.28181355863681        3.31933027909221     
   3.45509492805799        3.47883027055895        3.50652256102302     
   3.92928177422800        4.02162119433649        4.21627703994594     
   4.23779609770904        4.40355145584481        4.44435272228419     
   4.55920325312206        4.81104372073056        4.86670325333315     
   5.35781908904985        5.59069068654508        6.01022160802877     
   6.56313472125193        14.8024314088115       0.237234790445179     
  0.449495231854216       0.524183640331479       0.649356186776123     
  0.720116541997324        1.09002451305810        1.10221748383823     
   1.30714124296348        1.33848891809217        1.39803066320791     
   1.51642057863300        2.67669291747638        2.76163832696838     
   2.96889097785556        3.15960135857632        3.17389714838110     
   3.39091544349115        3.69487275653386        3.77576443826092     
   4.06487848546789        4.21627684382365        4.25544090203267     
   4.44435248635334        4.52306649703036        5.18054555086580     
   5.26996402967819        5.67067328781437        6.32385073084922     
  0.291514850346527       0.746368567599596       0.881200542870567     
  0.956724446369981        1.07425883941971        1.10220299963250     
   1.65019420950688        1.68887660356959        2.02320368989104     
   2.89442896911025        3.11758932367127        3.20608577344980     
   3.47949540092218        3.50067597366615        3.86911471712537     
   3.96518968115622        4.03016663439609        4.21627335847109     
   4.24468187744894        4.65972926484151        5.08123116420631     
   5.48003790780155        5.49558263322019        6.14609113241519     
   6.92660713570550     
 @CHECKOUT-I, Total execution time (CPU/WALL):       10.90/       1.78 seconds.
--executable xvtran finished with status     0 in        1.80 seconds (walltime).
 --invoking executable--
/home/tsommerfeld/zscale/bin/xintprc
 @GETMEM-I,  Allocated   85830 MB of main memory.
  Processing integrals for CCSD calculation.
  @GMOIAA-I, Processing MO integrals for spin case AA.
  @GMOIAA-I, Generation of integral list completed.
                      TYPE                NUMBER
                      ----               --------
                      PPPP               9007547
                      PPPH               2486875
                      PPHH                172894
                      PHPH                 97626
                      PHHH                 13713
                      HHHH                   332

                     TOTAL              11778987

  @FORMT2-I, Second-order MP correlation energies:
            ------------------------------------------------
            E(SCF)                  =    -78.546959223989 a.u.
            E2(AA)                  =     -0.037949540938 a.u.
            E2(AB)                  =     -0.319218122902 a.u.
            E2(TOT)                 =     -0.395117204779 a.u.
            Total MP2 energy        =    -78.942076428768 a.u.
            ------------------------------------------------
   Largest T2 amplitudes for spin case AB:
       _       _                 _       _                 _       _
   i   j   a   b             i   j   a   b             i   j   a   b
-----------------------------------------------------------------------------
[  4   4  50  50]-0.08271 [  5   5  11  11]-0.08232 [  5   5  17  17]-0.04763
[  5   5  17  11] 0.04324 [  5   5  11  17] 0.04324 [  5   5  88  88]-0.04090
[  5   5  53  53]-0.04090 [  5   5  13  13]-0.04090 [  4   4  54  50]-0.03726
[  4   4  50  54]-0.03726 [  4   4  14  14]-0.03058 [  4   4  15  15]-0.02693
[  4   4  54  54]-0.02670 [  4   3  50  57] 0.02651 [  3   4  57  50] 0.02651
-----------------------------------------------------------------------------
   Norm of T2AB vector (   345906 symmetry allowed elements):  0.3321232596.
-----------------------------------------------------------------------------
 @CHECKOUT-I, Total execution time (CPU/WALL):        4.16/       2.83 seconds.
--executable xintprc finished with status     0 in        2.85 seconds (walltime).
  calling xvcc 
 --invoking executable--
/home/tsommerfeld/zscale/bin/xvcc
 @GETMEM-I,  Allocated   85830 MB of main memory.
   CCSD energy will be calculated.
   The total correlation energy is -0.395117204779 a.u.
   The total correlation energy is -0.415019141628 a.u.
  Convergence information after     1 iterations: 
  Largest element of residual vector : -0.28873983E-01.
  Largest element of DIIS residual   : -0.28873983E-01.
   The total correlation energy is -0.426177039600 a.u.
  Convergence information after     2 iterations: 
  Largest element of residual vector : -0.13456172E-01.
  Largest element of DIIS residual   : -0.10649473E-01.
   The total correlation energy is -0.429078878799 a.u.
  Convergence information after     3 iterations: 
  Largest element of residual vector : -0.71855999E-02.
  Largest element of DIIS residual   : -0.58684727E-02.
   The total correlation energy is -0.430700989579 a.u.
  Convergence information after     4 iterations: 
  Largest element of residual vector : -0.35231754E-02.
  Largest element of DIIS residual   : -0.21180683E-02.
   The total correlation energy is -0.430874136954 a.u.
  Convergence information after     5 iterations: 
  Largest element of residual vector : -0.10450566E-02.
  Largest element of DIIS residual   : -0.38683546E-03.
   The total correlation energy is -0.430879258062 a.u.
  Convergence information after     6 iterations: 
  Largest element of residual vector :  0.24378837E-03.
  Largest element of DIIS residual   :  0.18484207E-03.
   The total correlation energy is -0.430869754902 a.u.
  Convergence information after     7 iterations: 
  Largest element of residual vector :  0.81313957E-04.
  Largest element of DIIS residual   : -0.38733837E-04.
   The total correlation energy is -0.430867432982 a.u.
  Convergence information after     8 iterations: 
  Largest element of residual vector :  0.31635410E-04.
  Largest element of DIIS residual   :  0.13043094E-04.
   The total correlation energy is -0.430867986290 a.u.
  Convergence information after     9 iterations: 
  Largest element of residual vector :  0.66384683E-05.
  Largest element of DIIS residual   :  0.54550530E-05.
   The total correlation energy is -0.430867712713 a.u.
  Convergence information after    10 iterations: 
  Largest element of residual vector : -0.72427318E-05.
  Largest element of DIIS residual   : -0.20828664E-05.
   The total correlation energy is -0.430867861999 a.u.
  Convergence information after    11 iterations: 
  Largest element of residual vector :  0.21745783E-05.
  Largest element of DIIS residual   : -0.97618938E-06.
   The total correlation energy is -0.430867947299 a.u.
  Convergence information after    12 iterations: 
  Largest element of residual vector : -0.98018350E-06.
  Largest element of DIIS residual   : -0.66741426E-06.
   The total correlation energy is -0.430867991755 a.u.
  Convergence information after    13 iterations: 
  Largest element of residual vector :  0.46531409E-06.
  Largest element of DIIS residual   : -0.33380308E-06.
   The total correlation energy is -0.430868007689 a.u.
  Convergence information after    14 iterations: 
  Largest element of residual vector : -0.22327881E-06.
  Largest element of DIIS residual   : -0.14258119E-06.
   The total correlation energy is -0.430868032794 a.u.
  Convergence information after    15 iterations: 
  Largest element of residual vector : -0.85449300E-07.
  Largest element of DIIS residual   :  0.50626785E-07.
  Amplitude equations converged in    15iterations.
   The total correlation energy is -0.430868038760 a.u.
   The CC iterations have converged.

   Largest T1 amplitudes for spin case AA:
   i       a                 i       a                 i       a    
-----------------------------------------------------------------------------
[  5      11    ]-0.02771 [  4      14    ] 0.02438 [  5      17    ]-0.01560
[  4      18    ]-0.01481 [  4      22    ]-0.00980 [  4      28    ]-0.00945
[  8      89    ]-0.00790 [  8      90    ] 0.00618 [  3      12    ] 0.00554
[  5      31    ]-0.00493 [  9     121    ]-0.00447 [  8      97    ]-0.00432
[  7      56    ] 0.00398 [  4      30    ]-0.00395 [  3      16    ]-0.00379
-----------------------------------------------------------------------------
   Norm of T1AA vector (      327 symmetry allowed elements):  0.0493960350.
-----------------------------------------------------------------------------
   Largest T2 amplitudes for spin case AB:
       _       _                 _       _                 _       _
   i   j   a   b             i   j   a   b             i   j   a   b
-----------------------------------------------------------------------------
[  5   5  11  11]-0.15020 [  4   4  50  50]-0.11613 [  5   5  17  11] 0.08575
[  5   5  11  17] 0.08575 [  5   5  17  17]-0.06427 [  5   5  88  88]-0.05420
[  5   5  53  53]-0.05420 [  5   5  13  13]-0.05419 [  4   4  54  50]-0.05171
[  4   4  50  54]-0.05171 [  4   4  54  54]-0.02957 [  4   4  15  15]-0.02632
[  4   4  14  14]-0.02555 [  4   3  50  57] 0.02554 [  3   4  57  50] 0.02554
-----------------------------------------------------------------------------
   Norm of T2AB vector (   345906 symmetry allowed elements):  0.4177977674.
-----------------------------------------------------------------------------
       Summary of iterative solution of CC equations 
      -----------------------------------------------------------
                       Correlation           Total
       Iteration         Energy              Energy
      -----------------------------------------------------------
            0        -0.395117204779     -78.942076428768  DIIS 
            1        -0.415019141628     -78.961978365617  DIIS 
            2        -0.426177039600     -78.973136263589  DIIS 
            3        -0.429078878799     -78.976038102788  DIIS 
            4        -0.430700989579     -78.977660213568  DIIS 
            5        -0.430874136954     -78.977833360943  DIIS 
            6        -0.430879258062     -78.977838482051  DIIS 
            7        -0.430869754902     -78.977828978891  DIIS 
            8        -0.430867432982     -78.977826656972  DIIS 
            9        -0.430867986290     -78.977827210280  DIIS 
           10        -0.430867712713     -78.977826936702  DIIS 
           11        -0.430867861999     -78.977827085988  DIIS 
           12        -0.430867947299     -78.977827171288  DIIS 
           13        -0.430867991755     -78.977827215744  DIIS 
           14        -0.430868007689     -78.977827231678  DIIS 
           15        -0.430868038760     -78.977827262749  DIIS 
      -----------------------------------------------------------
      A miracle has come to pass. The CC iterations have converged.
      The reference energy is       -78.54695922398918 a.u.
      The correlation energy is      -0.43086803876033 a.u.
      The total energy is           -78.97782726274950 a.u.
 @CHECKOUT-I, Total execution time (CPU/WALL):       72.06/       9.02 seconds.
--executable xvcc finished with status     0 in        9.05 seconds (walltime).
  The final electronic energy is       -78.977827262749500 a.u. 
  This computation required                           18.66 seconds (walltime).
