CFour on node02
 --invoking executable--
/home/tsommerfeld/zscale/bin/xjoda


   *************************************************************************
         <<<     CCCCCC     CCCCCC   |||     CCCCCC     CCCCCC   >>>
       <<<      CCC        CCC       |||    CCC        CCC         >>>
      <<<      CCC        CCC        |||   CCC        CCC            >>>
    <<<        CCC        CCC        |||   CCC        CCC              >>>
      <<<      CCC        CCC        |||   CCC        CCC            >>>
       <<<      CCC        CCC       |||    CCC        CCC         >>>
         <<<     CCCCCC     CCCCCC   |||     CCCCCC     CCCCCC   >>>
   *************************************************************************

     ****************************************************************
     * CFOUR Coupled-Cluster techniques for Computational Chemistry *
     ****************************************************************
 

   Department of Chemistry                Institut fuer Physikalische Chemie
   University of Florida                  Universitaet Mainz
   Gainesville, FL 32611, USA             D-55099 Mainz, Germany

   Department of Chemistry                Department of Chemistry
   Johns Hopkins University               Southern Methodist University
   Baltimore, MD 21218, USA               Dallas, TX 75275, USA

   Institute of Nanotechnology            Department of Physical Chemistry
   Karlsruhe Inst. of Technology          Eotvos Lorand University
   D-76021 Karlsruhe, Germany             H-1053 Budapest, Hungary

 
                       Version 2.1
 
                     node02                                            
                     Thu Mar 31 13:59:14 CST 2022                      
                     integer*8 version is running
 
********************************************************************************
*                          Input from ZMAT file                                *
********************************************************************************
h_ethylene                                                                      
C       0.000000      0.0   -0.664500                                           
C       0.000000      0.0    0.664500                                           
H       0.962348      0.0   -1.159080                                           
H       0.962348      0.0    1.159080                                           
H      -0.962348      0.0   -1.159080                                           
H      -0.962348      0.0    1.159080                                           
H      0.000000      4.0      0.000000                                          
                                                                                
*CFOUR(CALC=CCSD                                                                
#EXCITE=EOMEE                                                                   
#ESTATE_SYM=0/3/0/0                                                             
CC_PROG=VCC                                                                     
CHARGE=-1                                                                       
COORDINATES=CARTESIAN                                                           
BASIS=SPECIAL                                                                   
REFERENCE=RHF                                                                   
MEM_SIZE=90,MEM_UNIT=GB)                                                        
                                                                                
C:cc-pVTZ                                                                       
C:cc-pVTZ                                                                       
H:cc-pVTZ                                                                       
H:cc-pVTZ                                                                       
H:cc-pVTZ                                                                       
H:cc-pVTZ                                                                       
H:aug-cc-pVTZ                                                                   
                                                                                
********************************************************************************
  @GTFLGS-W, Keyword #EXCITE not known and is ignored.
  @GTFLGS-W, Keyword #ESTATE_SYM not known and is ignored.
    -------------------------------------------------------------------
                    CFOUR Control Parameters 
    -------------------------------------------------------------------
        External           Internal           Value            Units
          Name               Name
    -------------------------------------------------------------------
       ABCDTYPE             IABCDT         STANDARD    [  0]    ***   
       ANHARMONIC           IANHAR         OFF         [  0]    ***   
       ANH_ALGORIT          IANALG         STANDARD    [  0]    ***   
       ANH_DERIVAT          IANDER         SECOND      [  1]    ***   
       ANH_MODE             ANHMOD         VIBRATION   [  0]    ***   
       ANH_STEPSIZ          ICUBST             50000          x 10-6  
       ANH_SYMMETR          IANHSM         ABELIAN     [  0]    ***   
       AO_LADDERS           IAOLAD         SINGLEPASS  [  1]    ***   
       AV_SCF               IAVSCF         OFF         [  0]    ***   
       BASIS                IBASIS         SPECIAL     [  0]    ***   
       BOTHVECTORS          BOTHVC         OFF         [  0]    ***   
       BOX_POTENT           IPIAB          OFF         [  0]    ***   
       BREIT                IBREIT         OFF         [  0]    ***   
       BRUCK_CONV           IBRTOL          10D-  4             ***   
       BRUECKNER            IBRKNR         OFF         [  0]    ***   
       BUFFERSIZE           IBUFFS              4096            ***   
       CACHE_RECS           ICHREC             10               ***   
       CALCLEVEL            ICLLVL         CCSD        [ 10]    ***   
       CCORBOPT             ICCORB         OFF         [  0]  x 0.01  
       CC_CONV              ICCCNV          10D-  7             ***   
       CC_EXPORDER          ICCEOR              5               ***   
       CC_EXTRAPOL          ICCEXT         DIIS        [  1]    ***   
       CC_GUESS             ICCGES         MP2         [  0]    ***   
       CC_MAXCYC            ICCCYC            100              cycles 
       CC_PROGRAM           ICCPRO         VCC         [  0]    ***   
       CHARGE               ICHRGE             -1               ***   
       CHOLESKY             ICHOLE         OFF         [  0]    ***   
       CIS_CONV             ICISTL              5               ***   
       COMM_SIZE            IPSIZE            ***               ***   
       CONSTANT             ICONST         OLD         [  1]    ***   
       CONTINUUM            ICONTU         NONE        [  0]    ***   
       CONTRACTION          ICNTYP         GENERAL     [  1]    ***   
       COORDINATES          ICOORD         CARTESIAN   [  1]    ***   
       CPHF_CONVER          ICPHFT          10D- 16             ***   
       CPHF_MAXCYC          ICPHFC             64              cycles 
       CUBIC                ICUBIC         OFF         [  0]    ***   
       CURVILINEAR          ICURVY         OFF         [  0]    ***   
       DBOC                 IDBOC          OFF         [  0]    ***   
       DCT                  IDCT           OFF         [  0]    ***   
       DERIV_LEV            IDRLVL         ZERO        [  0]    ***   
       DEVMEM_SIZE          IDVMEM         *********           MByte  
       DIAG_MRCC            IEOMST          10D-  0             ***   
       DIFF_TYPE            IDIFTY         RELAXED     [  0]    ***   
       DIRECT               IDIRCT         OFF         [  0]    ***   
       DROPMO               IDRPMO      NONE         
       ECP                  IECP           OFF         [  0]    ***   
       EIGENVECTOR          IVEC                1               ***   
       EL_ANHARM            IELANH         OFF         [  0]    ***   
       EOMFOLLOW            IEOMSR         ENERGY      [  0]    ***   
       EOMIP                IEOMIP         OFF         [  0]    ***   
       EOMLEVEL             HBARFM         SAME        [  0]    ***   
       EOM_MRCC             IMRCCE         NEW         [  1]    ***   
       EOM_NONIT            EOMNON         OFF         [  0]    ***   
       EOM_NSING            IEOMSI          10D-  0             ***   
       EOM_NSTATES          IMRCCD         DAVIDSON    [  0]    ***   
       EOM_NTRIP            IEOMTR          10D-  0             ***   
       EOM_ORDER            IEXORD         ENERGY      [  0]    ***   
       EOM_PROPSTA          IEOMST              0               ***   
       ESTATE_CONV          IEXTOL          10D-  5             ***   
       ESTATE_DIAG          IEXDIG         ITERATIVE   [  0]    ***   
       ESTATE_LOCK          IESLOC         ON          [  1]    ***   
       ESTATE_MAXC          IEXMXC             40               ***   
       ESTATE_PROP          IEXPRP         OFF         [  0]    ***   
       EVAL_HESS            IRECAL              0            # of cyc.
       EXCITATION           IEXCIT              0               ***   
       EXCITE               IEXCIT         NONE        [  0]    ***   
       EXTERN_POT           IEXPOT         OFF         [  0]    ***   
       FCGRADNEW            IFCGNW         OFF         [  0]    ***   
       FC_FIELD             IFINFC              0             x 10-6  
       FD_CALTYPE           IFDCAL         GRADONLY    [  0]    ***   
       FD_PROJECT           IFDPRJ         OFF         [  1]    ***   
       FD_STEPSIZE          IDISFD              0            10-4 bohr
       FD_USEGROUP          IFDGRP         FULL        [  0]    ***   
       FILE_RECSIZ          IFLREC              4096           words  
       FINITE_PERT          IFIPER              0             x 10-6  
       FIXGEOM              IFIXGM         OFF         [  0]    ***   
       FOCK                 IFOCK          AO          [  1]    ***   
       FREQ_ALGORI          IVIALG         STANDARD    [  0]    ***   
       FROZEN_CORE          IFROCO         OFF         [  0]    ***   
       GAMMA_ABCD           IGABCD         STORE       [  0]    ***   
       GAMMA_ABCI           IGABCI         STORE       [  0]    ***   
       GENBAS_1             IGNBS1              0               ***   
       GENBAS_2             IGNBS2              0               ***   
       GENBAS_3             IGNBS3              0               ***   
       GENBAS_4             IGNBS4              0               ***   
       GEO_CONV             ICONTL              5              H/bohr 
       GEO_MAXCYC           IOPTCY             50               ***   
       GEO_MAXSTEP          IMXSTP            300            millibohr
       GEO_METHOD           INR            SINGLE_POINT[  5]    ***   
       GIAO                 IGIAO          OFF         [  1]    ***   
       GIMIC                IGIMIC         OFF         [  0]    ***   
       GRID                 IGRID          OFF         [  0]    ***   
       GRID_ALGO            IGALGO         SERIAL      [  0]    ***   
       GUESS                IGUESS         MOREAD      [  0]    ***   
       HBAR                 IHBAR          OFF         [  0]    ***   
       HESS_TYPE            IHESTP         SCF         [  0]    ***   
       HF2_FILE             IHF2Fl         USE         [  1]    ***   
       HFSTABILITY          ISTABL         OFF         [  0]    ***   
       INCORE               INCORE         OFF         [  0]    ***   
       INPUT_MRCC           IMRCC          ON          [  1]    ***   
       INTEGRALS            INTTYP         VMOL        [  1]    ***   
       JODA_PRINT           IJPRNT              0               ***   
       KEYWORD_OUT          IDMPKW         NO          [  0]    ***   
       LINDEP_TOL           ILINDP              8               ***   
       LINEQ_CONV           IZTACN          10D-  7           cycles  
       LINEQ_EXPOR          ILMAXD              5               ***   
       LINEQ_MAXCY          ILMAXC            100               ***   
       LINEQ_TYPE           ILTYPE         DIIS        [  1]    ***   
       LOCK_ORBOCC          ILOCOC         OFF         [  0]    ***   
       MEMORY_SIZE          IMEMSZ         *********           words  
       MEM_UNIT             IMEMU          GB          [  3]    ***   
       MRCC                 IMRCCC         OFF         [  0]    ***   
       MULTIPLICTY          IMULTP              1               ***   
       NACOUPLING           IVCOUP         OFF         [  0]    ***   
       NEGEVAL              IDIE           ABORT       [  0]    ***   
       NEWNORM              INEWNO         OFF         [  0]    ***   
       NON-HF               INONHF         OFF         [  0]    ***   
       NTOP_TAMP            ITOPT2             15               ***   
       NUC_MODEL            INUCMO         POINT       [  0]    ***   
       OCCUPATION           IOCCU   ESTIMATED BY SCF 
       OPEN-SHELL           IOPEN          SPIN-ORBITAL[  0]    ***   
       OPTVIB               IOPTVB         OFF         [  0]    ***   
       ORBITALS             IORBTP         STANDARD    [  0]    ***   
       PARALLEL             IPARAL         ON          [  1]    ***   
       PARA_INT             IPINTS         ON          [  1]    ***   
       PARA_PRINT           IPPRIN              0               ***   
       PERT_ORB             IPTORB         STANDARD    [  0]    ***   
       POINTS               IGRDFD              0               ***   
       PRINT                IPRNT               0               ***   
       PROPS                IPROPS         OFF         [  0]    ***   
       PROP_INTEGR          IINTYP         INTERNAL    [  0]    ***   
       PSI                  IPSI           OFF         [  0]    ***   
       QC_ALG               IQCALG         FLM         [  0]    ***   
       QC_LINALG            IQCLIN         TRIDIAG     [  2]    ***   
       QC_MAXCYC            IQCMAX          10D-100           cycles  
       QC_MAXSCFCY          IQCMSC          10D- 15           cycles  
       QC_RTRUST            IQCRTR          10D-  0           x 10-3  
       QC_SKIPSCF           IQCSKI         OFF         [  0]    ***   
       QC_START             IQCSTA          10D-  1             ***   
       QRHFGUESS            IQGUES         OFF         [  0]    ***   
       QUARTIC              IQUART         OFF         [  0]    ***   
       RAMAN_INT            IRAMIN         OFF         [  0]    ***   
       RAMAN_ORB            IRAMRE         UNRELAXED   [  0]    ***   
       RDO                  IRDOFM         OFF         [  0]    ***   
       REDUCE_REPR          REDREP         Ir          [  0]    ***   
       REFERENCE            IREFNC         RHF         [  0]    ***   
       RELATIVIST           IRELAT         OFF         [  0]    ***   
       RELAX_DENS           IRDENS         OFF         [  0]    ***   
       RESET_FLAGS          IRESET         OFF         [  0]    ***   
       RESTART_CC           ICCRES         OFF         [  0]    ***   
       ROT_EVEC             ROTVEC              0               ***   
       SAVE_INTS            ISVINT         OFF         [  0]    ***   
       SCALE_ON             ISTCRT              0               ***   
       SCF_CONV             ISCFCV          10D-  7             ***   
       SCF_DAMPING          IDAMP               0             x 10-3  
       SCF_EXPORDE          IRPPOR              6               ***   
       SCF_EXPSTAR          IRPPLS              8               ***   
       SCF_EXTRAPO          IRPP           ON          [  1]    ***   
       SCF_MAXCYC           ISCFCY            150              cycles 
       SCF_NOSTOP           ISCFST         OFF         [  0]    ***   
       SCF_PRINT            ISCFPR              0               ***   
       SCF_PROG             ISCFPR         SCF         [  0]    ***   
       SD_FIELD             IFINSD              0             x 10-6  
       SOPERT               IPERSO         OFF         [  0]    ***   
       SPHERICAL            IDFGHI         ON          [  1]    ***   
       SPINORBIT            ISOCAL         OFF         [  0]    ***   
       SPINROTATIO          ISRCON         OFF         [  0]    ***   
       SPIN_FLIP            ISPFLP         OFF         [  0]    ***   
       SPIN_ORBIT           ISPORB         OFF         [  0]    ***   
       SPIN_SCAL            ISCSMP         OFF         [  0]    ***   
       STEEPSCALE           ISTPSC              1000          x 10-3  
       SUBGROUP             ISUBGP         DEFAULT     [  0]    ***   
       SUBGRPAXIS           ISBXYZ         X           [  0]    ***   
       SYMMETRY             ISYM           ON          [  0]    ***   
       SYM_CHECK            ISYMCK         OVERRIDE    [  1]    ***   
       T3_EXTRAPOL          IT3EXT         OFF         [  0]    ***   
       T4_EXTRAPOL          IT4EXP         OFF         [  0]    ***   
       TAMP_SUM             IEVERY              5               ***   
       TESTSUITE            ITESTS         OFF         [  0]    ***   
       THERMOCH             ITHERM         OFF         [  0]    ***   
       TOL_CHOLESK          ITOLCH          10D-  4             ***   
       TRANGRAD             IRESRM         OFF         [  0]    ***   
       TRANS_INV            ITRAIN         USE         [  0]    ***   
       TREAT_PERT           ITREAT         SIMULTANEOUS[  0]    ***   
       TRIP_ALGORI          ITRALG         NORMAL      [  0]    ***   
       UIJ_THRESHO          IUIJTH              1               ***   
       UNITS                IUNITS         ANGSTROM    [  0]    ***   
       UNOS                 IUNOS          OFF         [  0]    ***   
       UPDATE_HESS          IHUPDT         ON          [  1]    ***   
       VIBPHASE             ISETPH         STANDARD    [  0]    ***   
       VIBRATION            IVIB           NO          [  0]    ***   
       VIB_ALGORIT          IGEALG         STANDARD    [  0]    ***   
       VNATORB              IVNORB         OFF         [  0]    ***   
       VTRAN                IVTRAN         FULL/PARTIAL[  0]    ***   
       XFIELD               IXEFLD              0             x 10-6  
       XFORM_TOL            IXFTOL          10D- 11             ***   
       YFIELD               IYEFLD              0             x 10-6  
       ZFIELD               IZEFLD              0             x 10-6  
       ZSCALE_EXP           IZEXPS         OFF         [  0]    ***   
    -------------------------------------------------------------------
  @GETXYZ-I,     7 atoms read from ZMAT.
   Rotational constants (in cm-1): 
          0.5338253639             0.8536890782             0.8734974251
   Rotational constants (in MHz): 
      16003.6840410283         25592.9582983935         26186.7976818635
********************************************************************************
   The full molecular point group is C2v .
   The largest Abelian subgroup of the full molecular point group is C2v .
   The computational point group is C2v .
********************************************************************************


 ----------------------------------------------------------------
         Coordinates used in calculation (QCOMP) 
 ----------------------------------------------------------------
 Z-matrix   Atomic            Coordinates (in bohr)
  Symbol    Number           X              Y              Z
 ----------------------------------------------------------------
     C         6         0.00000000    -1.25572327     0.26233761
     C         6         0.00000000     1.25572327     0.26233761
     H         1         1.81857454    -2.19034422     0.26233761
     H         1         1.81857454     2.19034422     0.26233761
     H         1        -1.81857454    -2.19034422     0.26233761
     H         1        -1.81857454     2.19034422     0.26233761
     H         1         0.00000000     0.00000000    -7.29656847
 ----------------------------------------------------------------
 
   Interatomic distance matrix (Angstroms) 
 
                 C             C             H             H             H    
                [ 1]        [ 2]        [ 3]        [ 4]        [ 5]
  C    [ 1]     0.00000
  C    [ 2]     1.32900     0.00000
  H    [ 3]     1.08200     2.06193     0.00000
  H    [ 4]     2.06193     1.08200     2.31816     0.00000
  H    [ 5]     1.08200     2.06193     1.92470     3.01303     0.00000
  H    [ 6]     2.06193     1.08200     3.01303     1.92470     2.31816
  H    [ 7]     4.05482     4.05482     4.27429     4.27429     4.27429
 
                 H             H    
                [ 6]        [ 7]
  H    [ 6]     0.00000
  H    [ 7]     4.27429     0.00000
 rotcon2
   Rotational constants (in cm-1): 
          0.5338253639             0.8734974251             0.8536890782
   Rotational constants (in MHz): 
      16003.6840410283         26186.7976818635         25592.9582983935
  ECPDATA file not present.   Using default ECPDATA. 
  @GTFLGS-W, Keyword #EXCITE not known and is ignored.
  @GTFLGS-W, Keyword #ESTATE_SYM not known and is ignored.
  There are  139 basis functions.
 @GEOPT-W, Archive file not created for single-point calculation.
 @CHECKOUT-I, Total execution time (CPU/WALL):        0.12/       0.13 seconds.
--executable xjoda finished with status     0 in        0.15 seconds (walltime).
 --invoking executable--
/home/tsommerfeld/zscale/bin/xvmol
 SERIAL VERSION OF MOLECULE STARTED
********************************************************************************
                    INPUT FROM MOL FILE
********************************************************************************
INTGRL        1    0    1    0    0    0    0    0    0                         
         *** CFOUR Program System (Release V0.1) ***                            
h_ethylene                                                                      
    3    2 X  Y       0.10E-08              0    0                              
   9999.00      3.00                                                            
          6.00000000    1    4    1    1    1    1                              
C #1   0.000000000000000  -1.255723272983657   0.262337613182909                
   10    4                                                                      
   8236.00000000000       5.310000000000000E-004  0.000000000000000E+000        
 -1.130000000000000E-004  0.000000000000000E+000                                
   1235.00000000000       4.108000000000000E-003  0.000000000000000E+000        
 -8.780000000000000E-004  0.000000000000000E+000                                
   280.800000000000       2.108700000000000E-002  0.000000000000000E+000        
 -4.540000000000000E-003  0.000000000000000E+000                                
   79.2700000000000       8.185300000000000E-002  0.000000000000000E+000        
 -1.813300000000000E-002  0.000000000000000E+000                                
   25.5900000000000       0.234817000000000       0.000000000000000E+000        
 -5.576000000000000E-002  0.000000000000000E+000                                
   8.99700000000000       0.434401000000000       0.000000000000000E+000        
 -0.126895000000000       0.000000000000000E+000                                
   3.31900000000000       0.346129000000000       0.000000000000000E+000        
 -0.170352000000000       0.000000000000000E+000                                
  0.905900000000000       3.937800000000000E-002   1.00000000000000             
  0.140382000000000       0.000000000000000E+000                                
  0.364300000000000      -8.983000000000000E-003  0.000000000000000E+000        
  0.598684000000000       0.000000000000000E+000                                
  0.128500000000000       2.385000000000000E-003  0.000000000000000E+000        
  0.395389000000000        1.00000000000000                                     
    5    3                                                                      
   18.7100000000000       0.000000000000000E+000  1.403100000000000E-002        
  0.000000000000000E+000                                                        
   4.13300000000000       0.000000000000000E+000  8.686600000000000E-002        
  0.000000000000000E+000                                                        
   1.20000000000000       0.000000000000000E+000  0.290216000000000             
  0.000000000000000E+000                                                        
  0.382700000000000        1.00000000000000       0.501008000000000             
  0.000000000000000E+000                                                        
  0.120900000000000       0.000000000000000E+000  0.343406000000000             
   1.00000000000000                                                             
    2    2                                                                      
   1.09700000000000        1.00000000000000       0.000000000000000E+000        
  0.318000000000000       0.000000000000000E+000   1.00000000000000             
    1    1                                                                      
  0.761000000000000        1.00000000000000                                     
          1.00000000    1    3    1    1    1                                   
H #2   1.818574537711477  -2.190344215575466   0.262337613182909                
    5    3                                                                      
   33.8700000000000       0.000000000000000E+000  6.068000000000000E-003        
  0.000000000000000E+000                                                        
   5.09500000000000       0.000000000000000E+000  4.530800000000000E-002        
  0.000000000000000E+000                                                        
   1.15900000000000       0.000000000000000E+000  0.202822000000000             
  0.000000000000000E+000                                                        
  0.325800000000000        1.00000000000000       0.503903000000000             
  0.000000000000000E+000                                                        
  0.102700000000000       0.000000000000000E+000  0.383421000000000             
   1.00000000000000                                                             
    2    2                                                                      
   1.40700000000000        1.00000000000000       0.000000000000000E+000        
  0.388000000000000       0.000000000000000E+000   1.00000000000000             
    1    1                                                                      
   1.05700000000000        1.00000000000000                                     
          1.00000000    1    3    1    1    1                                   
H #3   0.000000000000000   0.000000000000000  -7.296568469487713                
    6    4                                                                      
   33.8700000000000       0.000000000000000E+000  6.068000000000000E-003        
  0.000000000000000E+000  0.000000000000000E+000                                
   5.09500000000000       0.000000000000000E+000  4.530800000000000E-002        
  0.000000000000000E+000  0.000000000000000E+000                                
   1.15900000000000       0.000000000000000E+000  0.202822000000000             
  0.000000000000000E+000  0.000000000000000E+000                                
  0.325800000000000        1.00000000000000       0.503903000000000             
  0.000000000000000E+000  0.000000000000000E+000                                
  0.102700000000000       0.000000000000000E+000  0.383421000000000             
   1.00000000000000       0.000000000000000E+000                                
  2.526000000000000E-002  0.000000000000000E+000  0.000000000000000E+000        
  0.000000000000000E+000   1.00000000000000                                     
    3    3                                                                      
   1.40700000000000        1.00000000000000       0.000000000000000E+000        
  0.000000000000000E+000                                                        
  0.388000000000000       0.000000000000000E+000   1.00000000000000             
  0.000000000000000E+000                                                        
  0.102000000000000       0.000000000000000E+000  0.000000000000000E+000        
   1.00000000000000                                                             
    2    2                                                                      
   1.05700000000000        1.00000000000000       0.000000000000000E+000        
  0.247000000000000       0.000000000000000E+000   1.00000000000000             
FINISH                                                                          
 
********************************************************************************
 ONE- AND TWO-ELECTRON INTEGRALS OVER SYMMETRY-ADAPTED AOS ARE CALCULATED.

  SPHERICAL HARMONICS ARE USED.
  
  INTEGRALS LESS THAN  0.10E-13 ARE NEGLECTED.

  NUCLEAR REPULSION ENERGY :   35.6505024595 A.U.
  @MOLECU-I, ONE ELECTRON INTEGRALS (CPU/WALL):        0.04/       0.04 SECONDS.
  @TWOEL-I,     725135 INTEGRALS OF SYMMETRY TYPE  I I I I
  @TWOEL-I,    3127559 INTEGRALS OF SYMMETRY TYPE  I J I J
  @TWOEL-I,    1689717 INTEGRALS OF SYMMETRY TYPE  I I J J
  @TWOEL-I,    2694644 INTEGRALS OF SYMMETRY TYPE  I J K L
  @TWOEL-I, TOTAL NUMBER OF 2-E INTEGRALS    8237055.
  @MOLECU-I, TWO ELECTRON INTEGRALS (CPU/WALL):       27.68/       4.49 SECONDS.
 @CHECKOUT-I, Total execution time (CPU/WALL):       27.73/       4.55 seconds.

Running with 8 threads/proc

--executable xvmol finished with status     0 in        4.57 seconds (walltime).
 --invoking executable--
/home/tsommerfeld/zscale/bin/xvmol2ja
 @GETMEM-I,  Allocated   85830 MB of main memory.
 @CHECKOUT-I, Total execution time (CPU/WALL):        0.07/       0.02 seconds.
--executable xvmol2ja finished with status     0 in        0.04 seconds (walltime).
 --invoking executable--
/home/tsommerfeld/zscale/bin/xvscf
  There are  139 functions in the AO basis.

  There are 4 irreducible representations.

       Irrep        # of functions
         1                 45
         2                 29
         3                 39
         4                 26


  Parameters for SCF calculation: 
        SCF reference function:  RHF  
  Maximum number of iterations:  150
     Full symmetry point group: C2v 
     Computational point group: C2v 
        Initial density matrix: MOREAD                 
     SCF convergence tolerance: 10**(- 7)
  DIIS convergence acceleration:  ON
          Latest start for DIIS:   8
                     DIIS order:   6

  Memory information:     823082 words required.
  Fock matrices are constructed from AO integral file.
 @GETMEM-I,  Allocated       6 MB of main memory.
  Initialization and symmetry analysis required      0.002 seconds.

  @INITGES-I, Occupancies from core Hamiltonian:

          Alpha population by irrep:   4    1    3    1
           Beta population by irrep:   4    1    3    1


 total no. of electrons in initial guess :  0.000000000000000E+000
  --------------------------------------------------------------------
  Iteration         Total Energy            Largest Density Difference
  --------------------------------------------------------------------
       0            35.650502459518094              0.0000000000D+00
   current occupation vector 
     4  1  3  1
     4  1  3  1
       1           -51.857935406273597              0.8751057539D+01
   current occupation vector 
     4  1  3  1
     4  1  3  1
       2           -52.903203670575948              0.2930422678D+02
   current occupation vector 
     5  1  3  0
     5  1  3  0
       3           -68.388749509792802              0.2903451964D+02
   current occupation vector 
     4  1  3  1
     4  1  3  1
       4           -56.063206051358051              0.1154009599D+02
   current occupation vector 
     5  1  3  0
     5  1  3  0
       5           -69.469278667137772              0.1152250055D+02
   current occupation vector 
     4  1  3  1
     4  1  3  1
       6           -56.887918927305805              0.7534239389D+01
   current occupation vector 
     5  1  3  0
     5  1  3  0
       7           -69.750444077604897              0.7548647860D+01
   current occupation vector 
     4  1  3  1
     4  1  3  1
       8           -57.095341219804240              0.6616396238D+01
   current occupation vector 
     5  1  3  0
     5  1  3  0
       9           -74.619615807243321              0.6814246974D+01
   current occupation vector 
     4  1  3  1
     4  1  3  1
      10           -76.902143789775380              0.9210260721D+00
   current occupation vector 
     4  1  3  1
     4  1  3  1
      11           -78.408411387669304              0.1657369853D+01
   current occupation vector 
     5  1  2  1
     5  1  2  1
      12           -78.513065990265446              0.5778861281D+00
   current occupation vector 
     5  1  2  1
     5  1  2  1
      13           -78.540527831409150              0.1885052975D+00
   current occupation vector 
     5  1  2  1
     5  1  2  1
      14           -78.542645962714431              0.7891054790D-01
   current occupation vector 
     5  1  2  1
     5  1  2  1
      15           -78.542679622442847              0.1303715518D-01
   current occupation vector 
     5  1  2  1
     5  1  2  1
      16           -78.542680743787614              0.2171335532D-02
   current occupation vector 
     5  1  2  1
     5  1  2  1
      17           -78.542680775911890              0.3391628759D-03
   current occupation vector 
     5  1  2  1
     5  1  2  1
      18           -78.542680778681884              0.8401848056D-04
   current occupation vector 
     5  1  2  1
     5  1  2  1
      19           -78.542680778817839              0.1385883510D-04
   current occupation vector 
     5  1  2  1
     5  1  2  1
      20           -78.542680778823524              0.2035155338D-05
   current occupation vector 
     5  1  2  1
     5  1  2  1
      21           -78.542680778823552              0.1559164184D-05
   current occupation vector 
     5  1  2  1
     5  1  2  1
      22           -78.542680778823780              0.1441478714D-06
   current occupation vector 
     5  1  2  1
     5  1  2  1

  SCF has converged.

 Density matrix saved to file den.dat
 total electron number:   18.0000000000001     
     E(SCF)=       -78.542680778823950              0.3811015829D-07


  Final occupancies:

     Alpha population by irrep:   5    1    2    1
      Beta population by irrep:   5    1    2    1


  Eigenvector printing suppressed.

 @PUTMOS-I, Writing converged MOs to NEWMOS. 
 @PUTMOS-I, Symmetry   1 Full Blocks 11 Partial Blocksize   1
 @PUTMOS-I, Symmetry   2 Full Blocks  7 Partial Blocksize   1
 @PUTMOS-I, Symmetry   3 Full Blocks  9 Partial Blocksize   3
 @PUTMOS-I, Symmetry   4 Full Blocks  6 Partial Blocksize   2
 @PUTFOCK-I, Writing converged Fock matrix to NEWFOCK. 
 @PUTFOCK-I, Symmetry   1 Full Blocks 11 Partial Blocksize   1
 @PUTFOCK-I, Symmetry   2 Full Blocks  7 Partial Blocksize   1
 @PUTFOCK-I, Symmetry   3 Full Blocks  9 Partial Blocksize   3
 @PUTFOCK-I, Symmetry   4 Full Blocks  6 Partial Blocksize   2


 
  ORBITAL EIGENVALUES (ALPHA)  (1H = 27.2113834 eV)

       MO #        E(hartree)               E(eV)           FULLSYM    COMPSYM
       ----   --------------------   --------------------   -------   ---------
    1     1         -11.1032863126        -302.1357808508      A1        A1 (1)
    2    75         -11.1015216670        -302.0877624045      B2        B2 (3)
    3     2          -0.9139675180         -24.8703205485      A1        A1 (1)
    4    76          -0.6578238312         -17.9002964809      B2        B2 (3)
    5    46          -0.5367102186         -14.6046275318      B1        B1 (2)
    6     3          -0.4440208775         -12.0824223358      A1        A1 (1)
    7   114          -0.3932857703         -10.7018498807      A2        A2 (4)
    8     4          -0.2511405419          -6.8338815733      A1        A1 (1)
    9     5          -0.0423326375          -1.1519296302      A1        A1 (1)
  +++++++++++++++++++++++++++++++++++++++++++++++++++++++++++++++++++++++++++++
   10     6           0.2424023648           6.5961036861      A1        A1 (1)
   11    77           0.2785875905           7.5807537357      B2        B2 (3)
   12     7           0.2829796584           7.7002679795      A1        A1 (1)
   13    47           0.2962418356           8.0611501687      B1        B1 (2)
   14    78           0.3032832065           8.2527556110      B2        B2 (3)
   15   115           0.3483971920           9.4803695666      A2        A2 (4)
   16     8           0.4424130040          12.0386698736      A1        A1 (1)
   17    48           0.4510039733          12.2724420316      B1        B1 (2)
   18    79           0.4521809765          12.3044699167      B2        B2 (3)
   19    80           0.4708058814          12.8112793461      B2        B2 (3)
   20     9           0.4850366563          13.1985184187      A1        A1 (1)
   21    10           0.5755343901          15.6610869489      A1        A1 (1)
   22    49           0.5961507574          16.2220868241      B1        B1 (2)
   23    11           0.6787769624          18.4704601682      A1        A1 (1)
   24    81           0.6854492333          18.6520218882      B2        B2 (3)
   25    50           0.7147259172          19.4486809584      B1        B1 (2)
   26    82           0.7300708365          19.8662374420      B2        B2 (3)
   27    12           0.7407588888          20.1570741290      A1        A1 (1)
   28    83           0.7601809210          20.6855744937      B2        B2 (3)
   29    51           0.7927088292          21.5707038771      B1        B1 (2)
   30   116           0.8118775564          22.0923114604      A2        A2 (4)
   31    13           0.8134549394          22.1352342339      A1        A1 (1)
   32    84           0.9052422987          24.6328952587      B2        B2 (3)
   33   117           0.9504523306          25.8631227726      A2        A2 (4)
   34    14           1.0199009767          27.7529165065      A1        A1 (1)
   35   118           1.0246254289          27.8814753863      A2        A2 (4)
   36    52           1.0921107689          29.7178448487      B1        B1 (2)
   37    15           1.0998456610          29.9283219624      A1        A1 (1)
   38   119           1.1069412852          30.1214037137      A2        A2 (4)
   39    16           1.1098722732          30.2011599497      A1        A1 (1)
   40    85           1.1153001429          30.3488597943      B2        B2 (3)
   41   120           1.1408343613          31.0436812003      A2        A2 (4)
   42    17           1.1425119827          31.0893316010      A1        A1 (1)
   43    53           1.1772093581          32.0334951857      B1        B1 (2)
   44    86           1.3101580373          35.6512126682      B2        B2 (3)
   45    18           1.3108955002          35.6712800533      A1        A1 (1)
   46    54           1.3459648632          36.6255659353      B1        B1 (2)
   47    87           1.3566291187          36.9157550817      B2        B2 (3)
   48    19           1.3693415228          37.2616771824      A1        A1 (1)
   49    55           1.3782059258          37.5028898501      B1        B1 (2)
   50    20           1.4080286362          38.3144070589      A1        A1 (1)
   51    88           1.4447755369          39.3143410616      B2        B2 (3)
   52    56           1.4671236797          39.9224649442      B1        B1 (2)
   53    89           1.4951157652          40.6841683147      B2        B2 (3)
   54    57           1.5838505388          43.0987642605      B1        B1 (2)
   55    90           1.5989725675          43.5102555807      B2        B2 (3)
   56    21           1.6415376277          44.6685097524      A1        A1 (1)
   57    91           1.6757527429          45.5995503709      B2        B2 (3)
   58   121           1.7156158936          46.6842818476      A2        A2 (4)
   59   122           1.7598023053          47.8866552365      A2        A2 (4)
   60    92           1.9252040081          52.3874643865      B2        B2 (3)
   61    22           1.9764433159          53.7817568364      A1        A1 (1)
   62   123           2.0911945464          56.9042965648      A2        A2 (4)
   63    23           2.4434511644          66.4896864527      A1        A1 (1)
   64    24           2.5522074972          69.4490967222      A1        A1 (1)
   65    25           2.6729383201          72.7343494322      A1        A1 (1)
   66    93           2.6913773790          73.2361017348      B2        B2 (3)
   67    58           2.7530591501          74.9145480557      B1        B1 (2)
   68    59           2.8326810037          77.0811688408      B1        B1 (2)
   69    94           2.8671200261          78.0183022838      B2        B2 (3)
   70    26           2.8856795872          78.5233336168      A1        A1 (1)
   71   124           2.9649770564          80.6811274530      A2        A2 (4)
   72    27           3.0049914027          81.7699731725      A1        A1 (1)
   73    60           3.0390110798          82.6956956497      B1        B1 (2)
   74   125           3.1872071714          86.7283163165      A2        A2 (4)
   75    28           3.2254444960          87.7688068161      A1        A1 (1)
   76    61           3.2326067519          87.9637017081      B1        B1 (2)
   77    29           3.2410299116          88.1929075349      A1        A1 (1)
   78    62           3.2440054658          88.2738764829      B1        B1 (2)
   79   126           3.2761532849          89.1486631125      A2        A2 (4)
   80    30           3.3037571481          89.8998024172      A1        A1 (1)
   81    95           3.3582352905          91.3822280367      B2        B2 (3)
   82    96           3.3877715454          92.1859503923      B2        B2 (3)
   83    63           3.4603642848          94.1612992569      B1        B1 (2)
   84    97           3.5268609173          95.9707646179      B2        B2 (3)
   85   127           3.5503434921          96.6097579657      A2        A2 (4)
   86    98           3.5507760893          96.6215295348      B2        B2 (3)
   87   128           3.5688931132          97.1145188156      A2        A2 (4)
   88    99           3.5780903588          97.3647885922      B2        B2 (3)
   89    31           3.6764245904         100.0405990693      A1        A1 (1)
   90    32           3.7029127462         100.7613784343      A1        A1 (1)
   91    64           3.7635512018         102.4114346980      B1        B1 (2)
   92    65           3.8438511216         104.5965066029      B1        B1 (2)
   93   129           3.9378689143         107.1548608047      A2        A2 (4)
   94   100           4.0008289431         108.8680902898      B2        B2 (3)
   95   130           4.0336278936         109.7605951053      A2        A2 (4)
   96   101           4.0902400000         111.3010888387      B2        B2 (3)
   97   131           4.0991778640         111.5443004828      A2        A2 (4)
   98    33           4.1302010557         112.3884844469      A1        A1 (1)
   99    66           4.1332061552         112.4702573609      B1        B1 (2)
  100    34           4.1782384207         113.6956476029      A1        A1 (1)
  101    35           4.2210035668         114.8593463899      A1        A1 (1)
  102   132           4.2216357052         114.8765477493      A2        A2 (4)
  103    67           4.2244045449         114.9518917071      B1        B1 (2)
  104   102           4.2360826459         115.2696689918      B2        B2 (3)
  105    36           4.2460296523         115.5403407974      A1        A1 (1)
  106   103           4.3067698337         117.1931651605      B2        B2 (3)
  107   133           4.3130802368         117.3648799588      A2        A2 (4)
  108    68           4.3237987214         117.6565447536      B1        B1 (2)
  109    37           4.3290290280         117.7988686295      A1        A1 (1)
  110    69           4.4521069423         121.1479889437      B1        B1 (2)
  111    38           4.4521716076         121.1497485768      A1        A1 (1)
  112   104           4.4532693817         121.1796205277      B2        B2 (3)
  113   105           4.4793898257         121.8903939452      B2        B2 (3)
  114    39           4.4986150225         122.4135381472      A1        A1 (1)
  115    70           4.5909325444         124.9256256289      B1        B1 (2)
  116   106           4.6269132458         125.9047102895      B2        B2 (3)
  117   134           4.7288981373         128.6798602742      A2        A2 (4)
  118    40           4.7661551934         129.6936763108      A1        A1 (1)
  119   107           4.8832114120         132.8789379541      B2        B2 (3)
  120   108           4.9394037893         134.4080102793      B2        B2 (3)
  121    41           5.0513835414         137.4551342468      A1        A1 (1)
  122    42           5.1018783930         138.8291690111      A1        A1 (1)
  123   135           5.1493345209         140.1205159027      A2        A2 (4)
  124    71           5.2493131648         142.8410731130      B1        B1 (2)
  125    72           5.3396046143         145.2980283635      B1        B1 (2)
  126    43           5.4251100907         147.6247506646      A1        A1 (1)
  127   109           5.4261767349         147.6537755282      B2        B2 (3)
  128   136           5.5495331441         151.0104740748      A2        A2 (4)
  129   137           5.5640470898         151.4054186174      A2        A2 (4)
  130   110           5.6606207812         154.0333223580      B2        B2 (3)
  131    44           5.6948908118         154.9658573009      A1        A1 (1)
  132    73           5.7432543610         156.2818963819      B1        B1 (2)
  133   111           6.0819832923         165.4991791999      B2        B2 (3)
  134   138           6.2147366306         169.1115811855      A2        A2 (4)
  135    74           6.3932021612         173.9678751611      B1        B1 (2)
  136   112           6.6332188595         180.4990615622      B2        B2 (3)
  137   139           6.9957232530         190.3633075985      A2        A2 (4)
  138    45          12.1426197191         330.4174806577      A1        A1 (1)
  139   113          14.8940000190         405.2863448760      B2        B2 (3)


  VSCF finished.

 @CHECKOUT-I, Total execution time (CPU/WALL):       14.42/       1.81 seconds.
--executable xvscf finished with status     0 in        1.84 seconds (walltime).
 --invoking executable--
/home/tsommerfeld/zscale/bin/xvtran
 @GETMEM-I,  Allocated   85830 MB of main memory.
  Full RHF integral transformation
  Transformation of IIII integrals :
  1 pass through the AO integral file was required.
      725135 AO integrals were read.
      997326 MO integrals were written to HF2.
  Transformation of IIJJ integrals :
  1 pass through the AO integral file was required.
     1689717 AO integrals were read.
     2386575 MO integrals were written to HF2.
  Transformation of IJIJ integrals :
  1 pass through the AO integral file was required.
     3127559 AO integrals were read.
     4517476 MO integrals were written to HF2.
  Transformation of IJKL integrals :
  1 pass through the AO integral file was required.
     2694644 AO integrals were read.
     3969810 MO integrals were written to HF2.
  Summary of active molecular orbitals: 
------------------------------------------------------------------------
 
  Index      Eigenvalue    Symmetry    Index      Eigenvalue    Symmetry
------------------------------------------------------------------------
     1       -11.1032863        1        71         4.3237987        2
     2        -0.9139675        1        72         4.4521069        2
     3        -0.4440209        1        73         4.5909325        2
     4        -0.2511405        1        74         5.2493132        2
     5        -0.0423326        1        75         5.3396046        2
     6        -0.5367102        2        76         5.7432544        2
     7       -11.1015217        3        77         6.3932022        2
     8        -0.6578238        3        78         0.2785876        3
     9        -0.3932858        4        79         0.3032832        3
    10         0.2424024        1        80         0.4521810        3
    11         0.2829797        1        81         0.4708059        3
    12         0.4424130        1        82         0.6854492        3
    13         0.4850367        1        83         0.7300708        3
    14         0.5755344        1        84         0.7601809        3
    15         0.6787770        1        85         0.9052423        3
    16         0.7407589        1        86         1.1153001        3
    17         0.8134549        1        87         1.3101580        3
    18         1.0199010        1        88         1.3566291        3
    19         1.0998457        1        89         1.4447755        3
    20         1.1098723        1        90         1.4951158        3
    21         1.1425120        1        91         1.5989726        3
    22         1.3108955        1        92         1.6757527        3
    23         1.3693415        1        93         1.9252040        3
    24         1.4080286        1        94         2.6913774        3
    25         1.6415376        1        95         2.8671200        3
    26         1.9764433        1        96         3.3582353        3
    27         2.4434512        1        97         3.3877715        3
    28         2.5522075        1        98         3.5268609        3
    29         2.6729383        1        99         3.5507761        3
    30         2.8856796        1       100         3.5780904        3
    31         3.0049914        1       101         4.0008289        3
    32         3.2254445        1       102         4.0902400        3
    33         3.2410299        1       103         4.2360826        3
    34         3.3037571        1       104         4.3067698        3
    35         3.6764246        1       105         4.4532694        3
    36         3.7029127        1       106         4.4793898        3
    37         4.1302011        1       107         4.6269132        3
    38         4.1782384        1       108         4.8832114        3
    39         4.2210036        1       109         4.9394038        3
    40         4.2460297        1       110         5.4261767        3
    41         4.3290290        1       111         5.6606208        3
    42         4.4521716        1       112         6.0819833        3
    43         4.4986150        1       113         6.6332189        3
    44         4.7661552        1       114        14.8940000        3
    45         5.0513835        1       115         0.3483972        4
    46         5.1018784        1       116         0.8118776        4
    47         5.4251101        1       117         0.9504523        4
    48         5.6948908        1       118         1.0246254        4
    49        12.1426197        1       119         1.1069413        4
    50         0.2962418        2       120         1.1408344        4
    51         0.4510040        2       121         1.7156159        4
    52         0.5961508        2       122         1.7598023        4
    53         0.7147259        2       123         2.0911945        4
    54         0.7927088        2       124         2.9649771        4
    55         1.0921108        2       125         3.1872072        4
    56         1.1772094        2       126         3.2761533        4
    57         1.3459649        2       127         3.5503435        4
    58         1.3782059        2       128         3.5688931        4
    59         1.4671237        2       129         3.9378689        4
    60         1.5838505        2       130         4.0336279        4
    61         2.7530592        2       131         4.0991779        4
    62         2.8326810        2       132         4.2216357        4
    63         3.0390111        2       133         4.3130802        4
    64         3.2326068        2       134         4.7288981        4
    65         3.2440055        2       135         5.1493345        4
    66         3.4603643        2       136         5.5495331        4
    67         3.7635512        2       137         5.5640471        4
    68         3.8438511        2       138         6.2147366        4
    69         4.1332062        2       139         6.9957233        4
    70         4.2244045        2
------------------------------------------------------------------------
  -11.1032863125525      -0.913967518039335      -0.444020877521063     
 -0.251140541914146      -4.233263753287912E-002 -0.536710218555368     
  -11.1015216670132      -0.657823831215532      -0.393285770274573     
  0.242402364816211       0.282979658414828       0.442413004020879     
  0.485036656339085       0.575534390100116       0.678776962444627     
  0.740758888759157       0.813454939373322        1.01990097668224     
   1.09984566100340        1.10987227315028        1.14251198272582     
   1.31089550020001        1.36934152279659        1.40802863623902     
   1.64153762768325        1.97644331586709        2.44345116436394     
   2.55220749718179        2.67293832007934        2.88567958719940     
   3.00499140269745        3.22544449600045        3.24102991158079     
   3.30375714809215        3.67642459035183        3.70291274622699     
   4.13020105574203        4.17823842072356        4.22100356683349     
   4.24602965233348        4.32902902795915        4.45217160759108     
   4.49861502253525        4.76615519337235        5.05138354144842     
   5.10187839296502        5.42511009067513        5.69489081179391     
   12.1426197191310       0.296241835639788       0.451003973270319     
  0.596150757409249       0.714725917184397       0.792708829241360     
   1.09211076893354        1.17720935811245        1.34596486319341     
   1.37820592576481        1.46712367972483        1.58385053883209     
   2.75305915007945        2.83268100367249        3.03901107981521     
   3.23260675192535        3.24400546584795        3.46036428478203     
   3.76355120181085        3.84385112161873        4.13320615521739     
   4.22440454486904        4.32379872144393        4.45210694226118     
   4.59093254438819        5.24931316476152        5.33960461427756     
   5.74325436103859        6.39320216116090       0.278587590505536     
  0.303283206503972       0.452180976462578       0.470805881411851     
  0.685449233287216       0.730070836532670       0.760180920964994     
  0.905242298658640        1.11530014289140        1.31015803732416     
   1.35662911874229        1.44477553690287        1.49511576521843     
   1.59897256751435        1.67575274290984        1.92520400805789     
   2.69137737902671        2.86712002609056        3.35823529048008     
   3.38777154535587        3.52686091725650        3.55077608934716     
   3.57809035876462        4.00082894314886        4.09024000002551     
   4.23608264590508        4.30676983370574        4.45326938165359     
   4.47938982570130        4.62691324578038        4.88321141195933     
   4.93940378934698        5.42617673485077        5.66062078115371     
   6.08198329232633        6.63321885950925        14.8940000189786     
  0.348397191986218       0.811877556377105       0.950452330646160     
   1.02462542886584        1.10694128523247        1.14083436126507     
   1.71561589358834        1.75980230525623        2.09119454635454     
   2.96497705636572        3.18720717141121        3.27615328489697     
   3.55034349211716        3.56889311315361        3.93786891425507     
   4.03362789358535        4.09917786402446        4.22163570520078     
   4.31308023681137        4.72889813732171        5.14933452088563     
   5.54953314408878        5.56404708984341        6.21473663060732     
   6.99572325303137     
 @CHECKOUT-I, Total execution time (CPU/WALL):       12.03/       2.48 seconds.
--executable xvtran finished with status     0 in        2.50 seconds (walltime).
 --invoking executable--
/home/tsommerfeld/zscale/bin/xintprc
 @GETMEM-I,  Allocated   85830 MB of main memory.
  Processing integrals for CCSD calculation.
  @GMOIAA-I, Processing MO integrals for spin case AA.
  @GMOIAA-I, Generation of integral list completed.
                      TYPE                NUMBER
                      ----               --------
                      PPPP               9084376
                      PPPH               2501601
                      PPHH                173538
                      PHPH                 97627
                      PHHH                 13713
                      HHHH                   332

                     TOTAL              11871187

  @FORMT2-I, Second-order MP correlation energies:
            ------------------------------------------------
            E(SCF)                  =    -78.542680778824 a.u.
            E2(AA)                  =     -0.038246431856 a.u.
            E2(AB)                  =     -0.320328748159 a.u.
            E2(TOT)                 =     -0.396821611872 a.u.
            Total MP2 energy        =    -78.939502390696 a.u.
            ------------------------------------------------
   Largest T2 amplitudes for spin case AB:
       _       _                 _       _                 _       _
   i   j   a   b             i   j   a   b             i   j   a   b
-----------------------------------------------------------------------------
[  4   4  78  78]-0.08074 [  5   5  10  10]-0.06971 [  5   5  51  51]-0.04025
[  5   5  80  80]-0.03759 [  5   5  17  17]-0.03609 [  5   5  17  10] 0.03330
[  5   5  10  17] 0.03330 [  4   4  82  78]-0.03244 [  4   4  78  82]-0.03244
[  5   5  12  12]-0.03029 [  4   4  14  14]-0.02967 [  4   3  78  85] 0.02619
[  3   4  85  78] 0.02619 [  5   5  11  10] 0.02516 [  5   5  10  11] 0.02516
-----------------------------------------------------------------------------
   Norm of T2AB vector (   345906 symmetry allowed elements):  0.3327752897.
-----------------------------------------------------------------------------
 @CHECKOUT-I, Total execution time (CPU/WALL):        4.13/       2.84 seconds.
--executable xintprc finished with status     0 in        2.87 seconds (walltime).
  calling xvcc 
 --invoking executable--
/home/tsommerfeld/zscale/bin/xvcc
 @GETMEM-I,  Allocated   85830 MB of main memory.
   CCSD energy will be calculated.
   The total correlation energy is -0.396821611872 a.u.
   The total correlation energy is -0.416424748872 a.u.
  Convergence information after     1 iterations: 
  Largest element of residual vector : -0.23140542E-01.
  Largest element of DIIS residual   : -0.23140542E-01.
   The total correlation energy is -0.427563156039 a.u.
  Convergence information after     2 iterations: 
  Largest element of residual vector : -0.11584607E-01.
  Largest element of DIIS residual   : -0.10437698E-01.
   The total correlation energy is -0.430401216912 a.u.
  Convergence information after     3 iterations: 
  Largest element of residual vector : -0.60141819E-02.
  Largest element of DIIS residual   :  0.57525963E-02.
   The total correlation energy is -0.432010965524 a.u.
  Convergence information after     4 iterations: 
  Largest element of residual vector :  0.33147600E-02.
  Largest element of DIIS residual   : -0.20495059E-02.
   The total correlation energy is -0.432179320282 a.u.
  Convergence information after     5 iterations: 
  Largest element of residual vector :  0.12057255E-02.
  Largest element of DIIS residual   :  0.56494359E-03.
   The total correlation energy is -0.432185249479 a.u.
  Convergence information after     6 iterations: 
  Largest element of residual vector : -0.32745293E-03.
  Largest element of DIIS residual   :  0.25959741E-03.
   The total correlation energy is -0.432179615471 a.u.
  Convergence information after     7 iterations: 
  Largest element of residual vector :  0.14447081E-03.
  Largest element of DIIS residual   :  0.78208338E-04.
   The total correlation energy is -0.432171563622 a.u.
  Convergence information after     8 iterations: 
  Largest element of residual vector :  0.49405549E-04.
  Largest element of DIIS residual   :  0.29930036E-04.
   The total correlation energy is -0.432171839643 a.u.
  Convergence information after     9 iterations: 
  Largest element of residual vector : -0.16063010E-04.
  Largest element of DIIS residual   : -0.14195947E-04.
   The total correlation energy is -0.432172427009 a.u.
  Convergence information after    10 iterations: 
  Largest element of residual vector :  0.68443983E-05.
  Largest element of DIIS residual   : -0.75924689E-05.
   The total correlation energy is -0.432173271803 a.u.
  Convergence information after    11 iterations: 
  Largest element of residual vector : -0.49536521E-05.
  Largest element of DIIS residual   :  0.49183230E-05.
   The total correlation energy is -0.432173787759 a.u.
  Convergence information after    12 iterations: 
  Largest element of residual vector :  0.30019062E-05.
  Largest element of DIIS residual   : -0.21143299E-05.
   The total correlation energy is -0.432174106846 a.u.
  Convergence information after    13 iterations: 
  Largest element of residual vector :  0.16773062E-05.
  Largest element of DIIS residual   :  0.99556078E-06.
   The total correlation energy is -0.432174206363 a.u.
  Convergence information after    14 iterations: 
  Largest element of residual vector :  0.58573907E-06.
  Largest element of DIIS residual   : -0.37671132E-06.
   The total correlation energy is -0.432174195815 a.u.
  Convergence information after    15 iterations: 
  Largest element of residual vector :  0.27710427E-06.
  Largest element of DIIS residual   :  0.17595902E-06.
   The total correlation energy is -0.432174181957 a.u.
  Convergence information after    16 iterations: 
  Largest element of residual vector :  0.99602312E-07.
  Largest element of DIIS residual   :  0.53796475E-07.
  Amplitude equations converged in    16iterations.
   The total correlation energy is -0.432174173613 a.u.
   The CC iterations have converged.

   Largest T1 amplitudes for spin case AA:
   i       a                 i       a                 i       a    
-----------------------------------------------------------------------------
[  5      10    ] 0.03023 [  4      14    ] 0.01860 [  5      17    ] 0.01399
[  4      18    ]-0.01361 [  4      15    ]-0.00946 [  4      22    ]-0.00865
[  4      21    ]-0.00814 [  6      52    ]-0.00802 [  4      12    ] 0.00765
[  4      28    ]-0.00764 [  6      53    ] 0.00623 [  4      13    ]-0.00580
[  4      27    ] 0.00523 [  3      13    ] 0.00486 [  5      31    ] 0.00476
-----------------------------------------------------------------------------
   Norm of T1AA vector (      327 symmetry allowed elements):  0.0504098021.
-----------------------------------------------------------------------------
   Largest T2 amplitudes for spin case AB:
       _       _                 _       _                 _       _
   i   j   a   b             i   j   a   b             i   j   a   b
-----------------------------------------------------------------------------
[  5   5  10  10]-0.12638 [  4   4  78  78]-0.11330 [  5   5  17  10] 0.06641
[  5   5  10  17] 0.06641 [  5   5  51  51]-0.05321 [  5   5  80  80]-0.04953
[  5   5  17  17]-0.04766 [  4   4  82  78]-0.04513 [  4   4  78  82]-0.04513
[  5   5  11  10] 0.04507 [  5   5  10  11] 0.04507 [  5   5  12  12]-0.03971
[  5   5  15  10]-0.03664 [  5   5  10  15]-0.03664 [  4   4  14  14]-0.02670
-----------------------------------------------------------------------------
   Norm of T2AB vector (   345906 symmetry allowed elements):  0.4164692982.
-----------------------------------------------------------------------------
       Summary of iterative solution of CC equations 
      -----------------------------------------------------------
                       Correlation           Total
       Iteration         Energy              Energy
      -----------------------------------------------------------
            0        -0.396821611872     -78.939502390696  DIIS 
            1        -0.416424748872     -78.959105527696  DIIS 
            2        -0.427563156039     -78.970243934863  DIIS 
            3        -0.430401216912     -78.973081995736  DIIS 
            4        -0.432010965524     -78.974691744348  DIIS 
            5        -0.432179320282     -78.974860099106  DIIS 
            6        -0.432185249479     -78.974866028303  DIIS 
            7        -0.432179615471     -78.974860394295  DIIS 
            8        -0.432171563622     -78.974852342446  DIIS 
            9        -0.432171839643     -78.974852618467  DIIS 
           10        -0.432172427009     -78.974853205833  DIIS 
           11        -0.432173271803     -78.974854050627  DIIS 
           12        -0.432173787759     -78.974854566582  DIIS 
           13        -0.432174106846     -78.974854885670  DIIS 
           14        -0.432174206363     -78.974854985187  DIIS 
           15        -0.432174195815     -78.974854974639  DIIS 
           16        -0.432174173613     -78.974854952436  DIIS 
      -----------------------------------------------------------
      A miracle has come to pass. The CC iterations have converged.
      The reference energy is       -78.54268077882395 a.u.
      The correlation energy is      -0.43217417361251 a.u.
      The total energy is           -78.97485495243646 a.u.
 @CHECKOUT-I, Total execution time (CPU/WALL):       76.34/       9.56 seconds.
--executable xvcc finished with status     0 in        9.58 seconds (walltime).
  The final electronic energy is       -78.974854952436459 a.u. 
  This computation required                           21.57 seconds (walltime).
