CFour on node02
 --invoking executable--
/home/tsommerfeld/zscale/bin/xjoda


   *************************************************************************
         <<<     CCCCCC     CCCCCC   |||     CCCCCC     CCCCCC   >>>
       <<<      CCC        CCC       |||    CCC        CCC         >>>
      <<<      CCC        CCC        |||   CCC        CCC            >>>
    <<<        CCC        CCC        |||   CCC        CCC              >>>
      <<<      CCC        CCC        |||   CCC        CCC            >>>
       <<<      CCC        CCC       |||    CCC        CCC         >>>
         <<<     CCCCCC     CCCCCC   |||     CCCCCC     CCCCCC   >>>
   *************************************************************************

     ****************************************************************
     * CFOUR Coupled-Cluster techniques for Computational Chemistry *
     ****************************************************************
 

   Department of Chemistry                Institut fuer Physikalische Chemie
   University of Florida                  Universitaet Mainz
   Gainesville, FL 32611, USA             D-55099 Mainz, Germany

   Department of Chemistry                Department of Chemistry
   Johns Hopkins University               Southern Methodist University
   Baltimore, MD 21218, USA               Dallas, TX 75275, USA

   Institute of Nanotechnology            Department of Physical Chemistry
   Karlsruhe Inst. of Technology          Eotvos Lorand University
   D-76021 Karlsruhe, Germany             H-1053 Budapest, Hungary

 
                       Version 2.1
 
                     node02                                            
                     Thu Mar 31 13:59:57 CST 2022                      
                     integer*8 version is running
 
********************************************************************************
*                          Input from ZMAT file                                *
********************************************************************************
h_ethylene                                                                      
C       0.000000      0.0   -0.664500                                           
C       0.000000      0.0    0.664500                                           
H       0.962348      0.0   -1.159080                                           
H       0.962348      0.0    1.159080                                           
H      -0.962348      0.0   -1.159080                                           
H      -0.962348      0.0    1.159080                                           
H      0.000000      4.4      0.000000                                          
                                                                                
*CFOUR(CALC=CCSD                                                                
#EXCITE=EOMEE                                                                   
#ESTATE_SYM=0/3/0/0                                                             
CC_PROG=VCC                                                                     
CHARGE=-1                                                                       
COORDINATES=CARTESIAN                                                           
BASIS=SPECIAL                                                                   
REFERENCE=RHF                                                                   
MEM_SIZE=90,MEM_UNIT=GB)                                                        
                                                                                
C:cc-pVTZ                                                                       
C:cc-pVTZ                                                                       
H:cc-pVTZ                                                                       
H:cc-pVTZ                                                                       
H:cc-pVTZ                                                                       
H:cc-pVTZ                                                                       
H:aug-cc-pVTZ                                                                   
                                                                                
********************************************************************************
  @GTFLGS-W, Keyword #EXCITE not known and is ignored.
  @GTFLGS-W, Keyword #ESTATE_SYM not known and is ignored.
    -------------------------------------------------------------------
                    CFOUR Control Parameters 
    -------------------------------------------------------------------
        External           Internal           Value            Units
          Name               Name
    -------------------------------------------------------------------
       ABCDTYPE             IABCDT         STANDARD    [  0]    ***   
       ANHARMONIC           IANHAR         OFF         [  0]    ***   
       ANH_ALGORIT          IANALG         STANDARD    [  0]    ***   
       ANH_DERIVAT          IANDER         SECOND      [  1]    ***   
       ANH_MODE             ANHMOD         VIBRATION   [  0]    ***   
       ANH_STEPSIZ          ICUBST             50000          x 10-6  
       ANH_SYMMETR          IANHSM         ABELIAN     [  0]    ***   
       AO_LADDERS           IAOLAD         SINGLEPASS  [  1]    ***   
       AV_SCF               IAVSCF         OFF         [  0]    ***   
       BASIS                IBASIS         SPECIAL     [  0]    ***   
       BOTHVECTORS          BOTHVC         OFF         [  0]    ***   
       BOX_POTENT           IPIAB          OFF         [  0]    ***   
       BREIT                IBREIT         OFF         [  0]    ***   
       BRUCK_CONV           IBRTOL          10D-  4             ***   
       BRUECKNER            IBRKNR         OFF         [  0]    ***   
       BUFFERSIZE           IBUFFS              4096            ***   
       CACHE_RECS           ICHREC             10               ***   
       CALCLEVEL            ICLLVL         CCSD        [ 10]    ***   
       CCORBOPT             ICCORB         OFF         [  0]  x 0.01  
       CC_CONV              ICCCNV          10D-  7             ***   
       CC_EXPORDER          ICCEOR              5               ***   
       CC_EXTRAPOL          ICCEXT         DIIS        [  1]    ***   
       CC_GUESS             ICCGES         MP2         [  0]    ***   
       CC_MAXCYC            ICCCYC            100              cycles 
       CC_PROGRAM           ICCPRO         VCC         [  0]    ***   
       CHARGE               ICHRGE             -1               ***   
       CHOLESKY             ICHOLE         OFF         [  0]    ***   
       CIS_CONV             ICISTL              5               ***   
       COMM_SIZE            IPSIZE            ***               ***   
       CONSTANT             ICONST         OLD         [  1]    ***   
       CONTINUUM            ICONTU         NONE        [  0]    ***   
       CONTRACTION          ICNTYP         GENERAL     [  1]    ***   
       COORDINATES          ICOORD         CARTESIAN   [  1]    ***   
       CPHF_CONVER          ICPHFT          10D- 16             ***   
       CPHF_MAXCYC          ICPHFC             64              cycles 
       CUBIC                ICUBIC         OFF         [  0]    ***   
       CURVILINEAR          ICURVY         OFF         [  0]    ***   
       DBOC                 IDBOC          OFF         [  0]    ***   
       DCT                  IDCT           OFF         [  0]    ***   
       DERIV_LEV            IDRLVL         ZERO        [  0]    ***   
       DEVMEM_SIZE          IDVMEM         *********           MByte  
       DIAG_MRCC            IEOMST          10D-  0             ***   
       DIFF_TYPE            IDIFTY         RELAXED     [  0]    ***   
       DIRECT               IDIRCT         OFF         [  0]    ***   
       DROPMO               IDRPMO      NONE         
       ECP                  IECP           OFF         [  0]    ***   
       EIGENVECTOR          IVEC                1               ***   
       EL_ANHARM            IELANH         OFF         [  0]    ***   
       EOMFOLLOW            IEOMSR         ENERGY      [  0]    ***   
       EOMIP                IEOMIP         OFF         [  0]    ***   
       EOMLEVEL             HBARFM         SAME        [  0]    ***   
       EOM_MRCC             IMRCCE         NEW         [  1]    ***   
       EOM_NONIT            EOMNON         OFF         [  0]    ***   
       EOM_NSING            IEOMSI          10D-  0             ***   
       EOM_NSTATES          IMRCCD         DAVIDSON    [  0]    ***   
       EOM_NTRIP            IEOMTR          10D-  0             ***   
       EOM_ORDER            IEXORD         ENERGY      [  0]    ***   
       EOM_PROPSTA          IEOMST              0               ***   
       ESTATE_CONV          IEXTOL          10D-  5             ***   
       ESTATE_DIAG          IEXDIG         ITERATIVE   [  0]    ***   
       ESTATE_LOCK          IESLOC         ON          [  1]    ***   
       ESTATE_MAXC          IEXMXC             40               ***   
       ESTATE_PROP          IEXPRP         OFF         [  0]    ***   
       EVAL_HESS            IRECAL              0            # of cyc.
       EXCITATION           IEXCIT              0               ***   
       EXCITE               IEXCIT         NONE        [  0]    ***   
       EXTERN_POT           IEXPOT         OFF         [  0]    ***   
       FCGRADNEW            IFCGNW         OFF         [  0]    ***   
       FC_FIELD             IFINFC              0             x 10-6  
       FD_CALTYPE           IFDCAL         GRADONLY    [  0]    ***   
       FD_PROJECT           IFDPRJ         OFF         [  1]    ***   
       FD_STEPSIZE          IDISFD              0            10-4 bohr
       FD_USEGROUP          IFDGRP         FULL        [  0]    ***   
       FILE_RECSIZ          IFLREC              4096           words  
       FINITE_PERT          IFIPER              0             x 10-6  
       FIXGEOM              IFIXGM         OFF         [  0]    ***   
       FOCK                 IFOCK          AO          [  1]    ***   
       FREQ_ALGORI          IVIALG         STANDARD    [  0]    ***   
       FROZEN_CORE          IFROCO         OFF         [  0]    ***   
       GAMMA_ABCD           IGABCD         STORE       [  0]    ***   
       GAMMA_ABCI           IGABCI         STORE       [  0]    ***   
       GENBAS_1             IGNBS1              0               ***   
       GENBAS_2             IGNBS2              0               ***   
       GENBAS_3             IGNBS3              0               ***   
       GENBAS_4             IGNBS4              0               ***   
       GEO_CONV             ICONTL              5              H/bohr 
       GEO_MAXCYC           IOPTCY             50               ***   
       GEO_MAXSTEP          IMXSTP            300            millibohr
       GEO_METHOD           INR            SINGLE_POINT[  5]    ***   
       GIAO                 IGIAO          OFF         [  1]    ***   
       GIMIC                IGIMIC         OFF         [  0]    ***   
       GRID                 IGRID          OFF         [  0]    ***   
       GRID_ALGO            IGALGO         SERIAL      [  0]    ***   
       GUESS                IGUESS         MOREAD      [  0]    ***   
       HBAR                 IHBAR          OFF         [  0]    ***   
       HESS_TYPE            IHESTP         SCF         [  0]    ***   
       HF2_FILE             IHF2Fl         USE         [  1]    ***   
       HFSTABILITY          ISTABL         OFF         [  0]    ***   
       INCORE               INCORE         OFF         [  0]    ***   
       INPUT_MRCC           IMRCC          ON          [  1]    ***   
       INTEGRALS            INTTYP         VMOL        [  1]    ***   
       JODA_PRINT           IJPRNT              0               ***   
       KEYWORD_OUT          IDMPKW         NO          [  0]    ***   
       LINDEP_TOL           ILINDP              8               ***   
       LINEQ_CONV           IZTACN          10D-  7           cycles  
       LINEQ_EXPOR          ILMAXD              5               ***   
       LINEQ_MAXCY          ILMAXC            100               ***   
       LINEQ_TYPE           ILTYPE         DIIS        [  1]    ***   
       LOCK_ORBOCC          ILOCOC         OFF         [  0]    ***   
       MEMORY_SIZE          IMEMSZ         *********           words  
       MEM_UNIT             IMEMU          GB          [  3]    ***   
       MRCC                 IMRCCC         OFF         [  0]    ***   
       MULTIPLICTY          IMULTP              1               ***   
       NACOUPLING           IVCOUP         OFF         [  0]    ***   
       NEGEVAL              IDIE           ABORT       [  0]    ***   
       NEWNORM              INEWNO         OFF         [  0]    ***   
       NON-HF               INONHF         OFF         [  0]    ***   
       NTOP_TAMP            ITOPT2             15               ***   
       NUC_MODEL            INUCMO         POINT       [  0]    ***   
       OCCUPATION           IOCCU   ESTIMATED BY SCF 
       OPEN-SHELL           IOPEN          SPIN-ORBITAL[  0]    ***   
       OPTVIB               IOPTVB         OFF         [  0]    ***   
       ORBITALS             IORBTP         STANDARD    [  0]    ***   
       PARALLEL             IPARAL         ON          [  1]    ***   
       PARA_INT             IPINTS         ON          [  1]    ***   
       PARA_PRINT           IPPRIN              0               ***   
       PERT_ORB             IPTORB         STANDARD    [  0]    ***   
       POINTS               IGRDFD              0               ***   
       PRINT                IPRNT               0               ***   
       PROPS                IPROPS         OFF         [  0]    ***   
       PROP_INTEGR          IINTYP         INTERNAL    [  0]    ***   
       PSI                  IPSI           OFF         [  0]    ***   
       QC_ALG               IQCALG         FLM         [  0]    ***   
       QC_LINALG            IQCLIN         TRIDIAG     [  2]    ***   
       QC_MAXCYC            IQCMAX          10D-100           cycles  
       QC_MAXSCFCY          IQCMSC          10D- 15           cycles  
       QC_RTRUST            IQCRTR          10D-  0           x 10-3  
       QC_SKIPSCF           IQCSKI         OFF         [  0]    ***   
       QC_START             IQCSTA          10D-  1             ***   
       QRHFGUESS            IQGUES         OFF         [  0]    ***   
       QUARTIC              IQUART         OFF         [  0]    ***   
       RAMAN_INT            IRAMIN         OFF         [  0]    ***   
       RAMAN_ORB            IRAMRE         UNRELAXED   [  0]    ***   
       RDO                  IRDOFM         OFF         [  0]    ***   
       REDUCE_REPR          REDREP         Ir          [  0]    ***   
       REFERENCE            IREFNC         RHF         [  0]    ***   
       RELATIVIST           IRELAT         OFF         [  0]    ***   
       RELAX_DENS           IRDENS         OFF         [  0]    ***   
       RESET_FLAGS          IRESET         OFF         [  0]    ***   
       RESTART_CC           ICCRES         OFF         [  0]    ***   
       ROT_EVEC             ROTVEC              0               ***   
       SAVE_INTS            ISVINT         OFF         [  0]    ***   
       SCALE_ON             ISTCRT              0               ***   
       SCF_CONV             ISCFCV          10D-  7             ***   
       SCF_DAMPING          IDAMP               0             x 10-3  
       SCF_EXPORDE          IRPPOR              6               ***   
       SCF_EXPSTAR          IRPPLS              8               ***   
       SCF_EXTRAPO          IRPP           ON          [  1]    ***   
       SCF_MAXCYC           ISCFCY            150              cycles 
       SCF_NOSTOP           ISCFST         OFF         [  0]    ***   
       SCF_PRINT            ISCFPR              0               ***   
       SCF_PROG             ISCFPR         SCF         [  0]    ***   
       SD_FIELD             IFINSD              0             x 10-6  
       SOPERT               IPERSO         OFF         [  0]    ***   
       SPHERICAL            IDFGHI         ON          [  1]    ***   
       SPINORBIT            ISOCAL         OFF         [  0]    ***   
       SPINROTATIO          ISRCON         OFF         [  0]    ***   
       SPIN_FLIP            ISPFLP         OFF         [  0]    ***   
       SPIN_ORBIT           ISPORB         OFF         [  0]    ***   
       SPIN_SCAL            ISCSMP         OFF         [  0]    ***   
       STEEPSCALE           ISTPSC              1000          x 10-3  
       SUBGROUP             ISUBGP         DEFAULT     [  0]    ***   
       SUBGRPAXIS           ISBXYZ         X           [  0]    ***   
       SYMMETRY             ISYM           ON          [  0]    ***   
       SYM_CHECK            ISYMCK         OVERRIDE    [  1]    ***   
       T3_EXTRAPOL          IT3EXT         OFF         [  0]    ***   
       T4_EXTRAPOL          IT4EXP         OFF         [  0]    ***   
       TAMP_SUM             IEVERY              5               ***   
       TESTSUITE            ITESTS         OFF         [  0]    ***   
       THERMOCH             ITHERM         OFF         [  0]    ***   
       TOL_CHOLESK          ITOLCH          10D-  4             ***   
       TRANGRAD             IRESRM         OFF         [  0]    ***   
       TRANS_INV            ITRAIN         USE         [  0]    ***   
       TREAT_PERT           ITREAT         SIMULTANEOUS[  0]    ***   
       TRIP_ALGORI          ITRALG         NORMAL      [  0]    ***   
       UIJ_THRESHO          IUIJTH              1               ***   
       UNITS                IUNITS         ANGSTROM    [  0]    ***   
       UNOS                 IUNOS          OFF         [  0]    ***   
       UPDATE_HESS          IHUPDT         ON          [  1]    ***   
       VIBPHASE             ISETPH         STANDARD    [  0]    ***   
       VIBRATION            IVIB           NO          [  0]    ***   
       VIB_ALGORIT          IGEALG         STANDARD    [  0]    ***   
       VNATORB              IVNORB         OFF         [  0]    ***   
       VTRAN                IVTRAN         FULL/PARTIAL[  0]    ***   
       XFIELD               IXEFLD              0             x 10-6  
       XFORM_TOL            IXFTOL          10D- 11             ***   
       YFIELD               IYEFLD              0             x 10-6  
       ZFIELD               IZEFLD              0             x 10-6  
       ZSCALE_EXP           IZEXPS         OFF         [  0]    ***   
    -------------------------------------------------------------------
  @GETXYZ-I,     7 atoms read from ZMAT.
   Rotational constants (in cm-1): 
          0.4837517088             0.7469780479             0.8536890782
   Rotational constants (in MHz): 
      14502.5134145824         22393.8416427996         25592.9582983936
********************************************************************************
   The full molecular point group is C2v .
   The largest Abelian subgroup of the full molecular point group is C2v .
   The computational point group is C2v .
********************************************************************************


 ----------------------------------------------------------------
         Coordinates used in calculation (QCOMP) 
 ----------------------------------------------------------------
 Z-matrix   Atomic            Coordinates (in bohr)
  Symbol    Number           X              Y              Z
 ----------------------------------------------------------------
     C         6        -1.25572327     0.00000000    -0.28857137
     C         6         1.25572327     0.00000000    -0.28857137
     H         1        -2.19034422     1.81857454    -0.28857137
     H         1         2.19034422     1.81857454    -0.28857137
     H         1        -2.19034422    -1.81857454    -0.28857137
     H         1         2.19034422    -1.81857454    -0.28857137
     H         1         0.00000000     0.00000000     8.02622532
 ----------------------------------------------------------------
 
   Interatomic distance matrix (Angstroms) 
 
                 C             C             H             H             H    
                [ 1]        [ 2]        [ 3]        [ 4]        [ 5]
  C    [ 1]     0.00000
  C    [ 2]     1.32900     0.00000
  H    [ 3]     1.08200     2.06193     0.00000
  H    [ 4]     2.06193     1.08200     2.31816     0.00000
  H    [ 5]     1.08200     2.06193     1.92470     3.01303     0.00000
  H    [ 6]     2.06193     1.08200     3.01303     1.92470     2.31816
  H    [ 7]     4.44990     4.44990     4.65076     4.65076     4.65076
 
                 H             H    
                [ 6]        [ 7]
  H    [ 6]     0.00000
  H    [ 7]     4.65076     0.00000
 rotcon2
   Rotational constants (in cm-1): 
          0.7469780479             0.4837517088             0.8536890782
   Rotational constants (in MHz): 
      22393.8416427996         14502.5134145824         25592.9582983935
  ECPDATA file not present.   Using default ECPDATA. 
  @GTFLGS-W, Keyword #EXCITE not known and is ignored.
  @GTFLGS-W, Keyword #ESTATE_SYM not known and is ignored.
  There are  139 basis functions.
 @GEOPT-W, Archive file not created for single-point calculation.
 @CHECKOUT-I, Total execution time (CPU/WALL):        0.12/       0.14 seconds.
--executable xjoda finished with status     0 in        0.16 seconds (walltime).
 --invoking executable--
/home/tsommerfeld/zscale/bin/xvmol
 SERIAL VERSION OF MOLECULE STARTED
********************************************************************************
                    INPUT FROM MOL FILE
********************************************************************************
INTGRL        1    0    1    0    0    0    0    0    0                         
         *** CFOUR Program System (Release V0.1) ***                            
h_ethylene                                                                      
    3    2 X  Y       0.10E-08              0    0                              
   9999.00      3.00                                                            
          6.00000000    1    4    1    1    1    1                              
C #1  -1.255723272983657   0.000000000000000  -0.288571374501200                
   10    4                                                                      
   8236.00000000000       5.310000000000000E-004  0.000000000000000E+000        
 -1.130000000000000E-004  0.000000000000000E+000                                
   1235.00000000000       4.108000000000000E-003  0.000000000000000E+000        
 -8.780000000000000E-004  0.000000000000000E+000                                
   280.800000000000       2.108700000000000E-002  0.000000000000000E+000        
 -4.540000000000000E-003  0.000000000000000E+000                                
   79.2700000000000       8.185300000000000E-002  0.000000000000000E+000        
 -1.813300000000000E-002  0.000000000000000E+000                                
   25.5900000000000       0.234817000000000       0.000000000000000E+000        
 -5.576000000000000E-002  0.000000000000000E+000                                
   8.99700000000000       0.434401000000000       0.000000000000000E+000        
 -0.126895000000000       0.000000000000000E+000                                
   3.31900000000000       0.346129000000000       0.000000000000000E+000        
 -0.170352000000000       0.000000000000000E+000                                
  0.905900000000000       3.937800000000000E-002   1.00000000000000             
  0.140382000000000       0.000000000000000E+000                                
  0.364300000000000      -8.983000000000000E-003  0.000000000000000E+000        
  0.598684000000000       0.000000000000000E+000                                
  0.128500000000000       2.385000000000000E-003  0.000000000000000E+000        
  0.395389000000000        1.00000000000000                                     
    5    3                                                                      
   18.7100000000000       0.000000000000000E+000  1.403100000000000E-002        
  0.000000000000000E+000                                                        
   4.13300000000000       0.000000000000000E+000  8.686600000000000E-002        
  0.000000000000000E+000                                                        
   1.20000000000000       0.000000000000000E+000  0.290216000000000             
  0.000000000000000E+000                                                        
  0.382700000000000        1.00000000000000       0.501008000000000             
  0.000000000000000E+000                                                        
  0.120900000000000       0.000000000000000E+000  0.343406000000000             
   1.00000000000000                                                             
    2    2                                                                      
   1.09700000000000        1.00000000000000       0.000000000000000E+000        
  0.318000000000000       0.000000000000000E+000   1.00000000000000             
    1    1                                                                      
  0.761000000000000        1.00000000000000                                     
          1.00000000    1    3    1    1    1                                   
H #2  -2.190344215575466   1.818574537711477  -0.288571374501200                
    5    3                                                                      
   33.8700000000000       0.000000000000000E+000  6.068000000000000E-003        
  0.000000000000000E+000                                                        
   5.09500000000000       0.000000000000000E+000  4.530800000000000E-002        
  0.000000000000000E+000                                                        
   1.15900000000000       0.000000000000000E+000  0.202822000000000             
  0.000000000000000E+000                                                        
  0.325800000000000        1.00000000000000       0.503903000000000             
  0.000000000000000E+000                                                        
  0.102700000000000       0.000000000000000E+000  0.383421000000000             
   1.00000000000000                                                             
    2    2                                                                      
   1.40700000000000        1.00000000000000       0.000000000000000E+000        
  0.388000000000000       0.000000000000000E+000   1.00000000000000             
    1    1                                                                      
   1.05700000000000        1.00000000000000                                     
          1.00000000    1    3    1    1    1                                   
H #3   0.000000000000000   0.000000000000000   8.026225316436484                
    6    4                                                                      
   33.8700000000000       0.000000000000000E+000  6.068000000000000E-003        
  0.000000000000000E+000  0.000000000000000E+000                                
   5.09500000000000       0.000000000000000E+000  4.530800000000000E-002        
  0.000000000000000E+000  0.000000000000000E+000                                
   1.15900000000000       0.000000000000000E+000  0.202822000000000             
  0.000000000000000E+000  0.000000000000000E+000                                
  0.325800000000000        1.00000000000000       0.503903000000000             
  0.000000000000000E+000  0.000000000000000E+000                                
  0.102700000000000       0.000000000000000E+000  0.383421000000000             
   1.00000000000000       0.000000000000000E+000                                
  2.526000000000000E-002  0.000000000000000E+000  0.000000000000000E+000        
  0.000000000000000E+000   1.00000000000000                                     
    3    3                                                                      
   1.40700000000000        1.00000000000000       0.000000000000000E+000        
  0.000000000000000E+000                                                        
  0.388000000000000       0.000000000000000E+000   1.00000000000000             
  0.000000000000000E+000                                                        
  0.102000000000000       0.000000000000000E+000  0.000000000000000E+000        
   1.00000000000000                                                             
    2    2                                                                      
   1.05700000000000        1.00000000000000       0.000000000000000E+000        
  0.247000000000000       0.000000000000000E+000   1.00000000000000             
FINISH                                                                          
 
********************************************************************************
 ONE- AND TWO-ELECTRON INTEGRALS OVER SYMMETRY-ADAPTED AOS ARE CALCULATED.

  SPHERICAL HARMONICS ARE USED.
  
  INTEGRALS LESS THAN  0.10E-13 ARE NEGLECTED.

  NUCLEAR REPULSION ENERGY :   35.4713754014 A.U.
  @MOLECU-I, ONE ELECTRON INTEGRALS (CPU/WALL):        0.04/       0.04 SECONDS.
  @TWOEL-I,     698885 INTEGRALS OF SYMMETRY TYPE  I I I I
  @TWOEL-I,    3018676 INTEGRALS OF SYMMETRY TYPE  I J I J
  @TWOEL-I,    1627209 INTEGRALS OF SYMMETRY TYPE  I I J J
  @TWOEL-I,    2601155 INTEGRALS OF SYMMETRY TYPE  I J K L
  @TWOEL-I, TOTAL NUMBER OF 2-E INTEGRALS    7945925.
  @MOLECU-I, TWO ELECTRON INTEGRALS (CPU/WALL):       27.64/       4.48 SECONDS.
 @CHECKOUT-I, Total execution time (CPU/WALL):       27.69/       4.53 seconds.

Running with 8 threads/proc

--executable xvmol finished with status     0 in        4.56 seconds (walltime).
 --invoking executable--
/home/tsommerfeld/zscale/bin/xvmol2ja
 @GETMEM-I,  Allocated   85830 MB of main memory.
 @CHECKOUT-I, Total execution time (CPU/WALL):        0.08/       0.02 seconds.
--executable xvmol2ja finished with status     0 in        0.04 seconds (walltime).
 --invoking executable--
/home/tsommerfeld/zscale/bin/xvscf
  There are  139 functions in the AO basis.

  There are 4 irreducible representations.

       Irrep        # of functions
         1                 45
         2                 39
         3                 29
         4                 26


  Parameters for SCF calculation: 
        SCF reference function:  RHF  
  Maximum number of iterations:  150
     Full symmetry point group: C2v 
     Computational point group: C2v 
        Initial density matrix: MOREAD                 
     SCF convergence tolerance: 10**(- 7)
  DIIS convergence acceleration:  ON
          Latest start for DIIS:   8
                     DIIS order:   6

  Memory information:     823082 words required.
  Fock matrices are constructed from AO integral file.
 @GETMEM-I,  Allocated       6 MB of main memory.
  Initialization and symmetry analysis required      0.002 seconds.

  @INITGES-I, Occupancies from core Hamiltonian:

          Alpha population by irrep:   4    3    1    1
           Beta population by irrep:   4    3    1    1


 total no. of electrons in initial guess :  0.000000000000000E+000
  --------------------------------------------------------------------
  Iteration         Total Energy            Largest Density Difference
  --------------------------------------------------------------------
       0            35.471375401406299              0.0000000000D+00
   current occupation vector 
     4  3  1  1
     4  3  1  1
       1           -51.828512835245085              0.8750666091D+01
   current occupation vector 
     4  3  1  1
     4  3  1  1
       2           -47.754642138839081              0.2962049984D+02
   current occupation vector 
     5  3  1  0
     5  3  1  0
       3           -68.257944873565833              0.2936358355D+02
   current occupation vector 
     4  3  1  1
     4  3  1  1
       4           -55.362585865490111              0.1239897448D+02
   current occupation vector 
     5  3  1  0
     5  3  1  0
       5           -69.361601317164428              0.1236395242D+02
   current occupation vector 
     4  3  1  1
     4  3  1  1
       6           -56.246092577185046              0.8197126291D+01
   current occupation vector 
     5  3  1  0
     5  3  1  0
       7           -69.659666987807128              0.8210820247D+01
   current occupation vector 
     4  3  1  1
     4  3  1  1
       8           -56.467313484677753              0.7188160847D+01
   current occupation vector 
     5  3  1  0
     5  3  1  0
       9           -75.444286588089824              0.7343580513D+01
   current occupation vector 
     4  3  1  1
     4  3  1  1
      10           -77.405350641580725              0.9248178703D+00
   current occupation vector 
     4  3  1  1
     4  3  1  1
      11           -78.337955591778410              0.1825243552D+01
   current occupation vector 
     5  2  1  1
     5  2  1  1
      12           -78.469504913165167              0.5494148256D+00
   current occupation vector 
     5  2  1  1
     5  2  1  1
      13           -78.537191432991392              0.3389670140D+00
   current occupation vector 
     5  2  1  1
     5  2  1  1
      14           -78.543858211100599              0.1239422510D+00
   current occupation vector 
     5  2  1  1
     5  2  1  1
      15           -78.543951138173810              0.2313686289D-01
   current occupation vector 
     5  2  1  1
     5  2  1  1
      16           -78.543955184822323              0.4482329458D-02
   current occupation vector 
     5  2  1  1
     5  2  1  1
      17           -78.543955239650870              0.4846341428D-03
   current occupation vector 
     5  2  1  1
     5  2  1  1
      18           -78.543955243660804              0.1285683126D-03
   current occupation vector 
     5  2  1  1
     5  2  1  1
      19           -78.543955243840571              0.2003490820D-04
   current occupation vector 
     5  2  1  1
     5  2  1  1
      20           -78.543955243850945              0.3113154033D-05
   current occupation vector 
     5  2  1  1
     5  2  1  1
      21           -78.543955243851514              0.1501104718D-05
   current occupation vector 
     5  2  1  1
     5  2  1  1
      22           -78.543955243851372              0.1332429747D-06
   current occupation vector 
     5  2  1  1
     5  2  1  1

  SCF has converged.

 Density matrix saved to file den.dat
 total electron number:   18.0000000000001     
     E(SCF)=       -78.543955243851826              0.3389870734D-07


  Final occupancies:

     Alpha population by irrep:   5    2    1    1
      Beta population by irrep:   5    2    1    1


  Eigenvector printing suppressed.

 @PUTMOS-I, Writing converged MOs to NEWMOS. 
 @PUTMOS-I, Symmetry   1 Full Blocks 11 Partial Blocksize   1
 @PUTMOS-I, Symmetry   2 Full Blocks  9 Partial Blocksize   3
 @PUTMOS-I, Symmetry   3 Full Blocks  7 Partial Blocksize   1
 @PUTMOS-I, Symmetry   4 Full Blocks  6 Partial Blocksize   2
 @PUTFOCK-I, Writing converged Fock matrix to NEWFOCK. 
 @PUTFOCK-I, Symmetry   1 Full Blocks 11 Partial Blocksize   1
 @PUTFOCK-I, Symmetry   2 Full Blocks  9 Partial Blocksize   3
 @PUTFOCK-I, Symmetry   3 Full Blocks  7 Partial Blocksize   1
 @PUTFOCK-I, Symmetry   4 Full Blocks  6 Partial Blocksize   2


 
  ORBITAL EIGENVALUES (ALPHA)  (1H = 27.2113834 eV)

       MO #        E(hartree)               E(eV)           FULLSYM    COMPSYM
       ----   --------------------   --------------------   -------   ---------
    1     1         -11.1125154684        -302.3869189484      A1        A1 (1)
    2    46         -11.1107511216        -302.3389086311      B1        B1 (2)
    3     2          -0.9233800278         -25.1264479600      A1        A1 (1)
    4    47          -0.6668175821         -18.1450288832      B1        B1 (2)
    5    85          -0.5458139578         -14.8523528721      B2        B2 (3)
    6     3          -0.4530725457         -12.3287307503      A1        A1 (1)
    7   114          -0.4021633448         -10.9434209657      A2        A2 (4)
    8     4          -0.2606286657          -7.0920665461      A1        A1 (1)
    9     5          -0.0431874846          -1.1751912006      A1        A1 (1)
  +++++++++++++++++++++++++++++++++++++++++++++++++++++++++++++++++++++++++++++
   10     6           0.2408686913           6.5543703077      A1        A1 (1)
   11    48           0.2695602638           7.3351076890      B1        B1 (2)
   12     7           0.2767640884           7.5311337207      A1        A1 (1)
   13    86           0.2897027663           7.8832130467      B2        B2 (3)
   14    49           0.2969552210           8.0805623721      B1        B1 (2)
   15   115           0.3420198628           9.3068336165      A2        A2 (4)
   16     8           0.4361394002          11.8679564344      A1        A1 (1)
   17    50           0.4503613186          12.2549545083      B1        B1 (2)
   18    87           0.4506593812          12.2630652037      B2        B2 (3)
   19    51           0.4627588087          12.5923073666      B1        B1 (2)
   20     9           0.4739488522          12.8968039287      A1        A1 (1)
   21    10           0.5682648930          15.4632738765      A1        A1 (1)
   22    88           0.5860917361          15.9483669392      B2        B2 (3)
   23    11           0.6528823999          17.7658332994      A1        A1 (1)
   24    52           0.6768890841          18.4190883854      B1        B1 (2)
   25    89           0.7066874513          19.2299431806      B2        B2 (3)
   26    53           0.7161485327          19.4873922943      B1        B1 (2)
   27    12           0.7335176097          19.9600289086      A1        A1 (1)
   28    54           0.7513494985          20.4452592709      B1        B1 (2)
   29    90           0.7827574162          21.2999121603      B2        B2 (3)
   30    13           0.7962299071          21.6665172765      A1        A1 (1)
   31   116           0.8037663711          21.8715948881      A2        A2 (4)
   32    55           0.8967383021          24.4014897476      B1        B1 (2)
   33   117           0.9415726861          25.6214953610      A2        A2 (4)
   34    14           1.0128682375          27.5615459456      A1        A1 (1)
   35   118           1.0176760361          27.6923727946      A2        A2 (4)
   36    15           1.0976810868          29.8694209026      A1        A1 (1)
   37    91           1.0997765336          29.9264409109      B2        B2 (3)
   38   119           1.1045657531          30.0567621983      A2        A2 (4)
   39    16           1.1050915580          30.0710700777      A1        A1 (1)
   40    56           1.1065499793          30.1107557386      B1        B1 (2)
   41    17           1.1148696637          30.3371458612      A1        A1 (1)
   42   120           1.1319744662          30.8025911976      A2        A2 (4)
   43    92           1.1563152608          31.4649378926      B2        B2 (3)
   44    57           1.2961380150          35.2697084668      B1        B1 (2)
   45    18           1.2966225260          35.2828926797      A1        A1 (1)
   46    19           1.3418760201          36.5143028578      A1        A1 (1)
   47    93           1.3426481474          36.5353135096      B2        B2 (3)
   48    58           1.3484426561          36.6929901079      B1        B1 (2)
   49    94           1.3685946898          37.2413548230      B2        B2 (3)
   50    20           1.3905311690          37.8382767684      A1        A1 (1)
   51    59           1.4346523077          39.0388739903      B1        B1 (2)
   52    95           1.4576588391          39.6649135377      B2        B2 (3)
   53    60           1.4821347679          40.3309374211      B1        B1 (2)
   54    96           1.5746237306          42.8476900451      B2        B2 (3)
   55    61           1.5896770347          43.2573112733      B1        B1 (2)
   56    21           1.6268555662          44.2689905492      A1        A1 (1)
   57    62           1.6547113818          45.0269858261      B1        B1 (2)
   58   121           1.7074144735          46.4611098600      A2        A2 (4)
   59   122           1.7504955162          47.6334046316      A2        A2 (4)
   60    63           1.9140777631          52.0847038685      B1        B1 (2)
   61    22           1.9657600124          53.4910493699      A1        A1 (1)
   62   123           2.0824223788          56.6655937502      A2        A2 (4)
   63    23           2.4207942639          65.8731608464      A1        A1 (1)
   64    24           2.5093517165          68.2829316430      A1        A1 (1)
   65    25           2.6632213830          72.4699381332      A1        A1 (1)
   66    64           2.6808096159          72.9485382807      B1        B1 (2)
   67    97           2.7396452545          74.5495374014      B2        B2 (3)
   68    98           2.8232982643          76.8258515224      B2        B2 (3)
   69    65           2.8555398756          77.7031903681      B1        B1 (2)
   70    26           2.8762727949          78.2673617844      A1        A1 (1)
   71   124           2.9555649743          80.4250116785      A2        A2 (4)
   72    27           2.9900500900          81.3633993850      A1        A1 (1)
   73    99           3.0297436655          82.4435164866      B2        B2 (3)
   74   125           3.1781256434          86.4811953747      A2        A2 (4)
   75    28           3.2147482416          87.4777469380      A1        A1 (1)
   76   100           3.2224381705          87.6870005398      B2        B2 (3)
   77    29           3.2267544960          87.8044537276      A1        A1 (1)
   78   101           3.2347850384          88.0229758974      B2        B2 (3)
   79   126           3.2670188308          88.9001019786      A2        A2 (4)
   80    30           3.2944345854          89.6461225901      A1        A1 (1)
   81    66           3.3454443218          91.0341680847      B1        B1 (2)
   82    67           3.3788332785          91.9427277863      B1        B1 (2)
   83   102           3.4511510889          93.9105954517      B2        B2 (3)
   84    68           3.5169185583          95.7002192761      B1        B1 (2)
   85    69           3.5408610237          96.3517268829      B1        B1 (2)
   86   127           3.5410359886          96.3564879203      A2        A2 (4)
   87   128           3.5601267395          96.8759736600      A2        A2 (4)
   88    70           3.5682115938          97.0959737316      B1        B1 (2)
   89    31           3.6659424041          99.7553642798      A1        A1 (1)
   90    32           3.6923047098         100.4727190886      A1        A1 (1)
   91   103           3.7547029033         102.1706602548      B2        B2 (3)
   92   104           3.8350268626         104.3563863073      B2        B2 (3)
   93   129           3.9290133652         106.9138890636      A2        A2 (4)
   94    71           3.9906830074         108.5920053414      B1        B1 (2)
   95   130           4.0248470567         109.5216563876      A2        A2 (4)
   96    72           4.0815401427         111.0643536846      B1        B1 (2)
   97   131           4.0902690712         111.3018799066      A2        A2 (4)
   98    33           4.1205746693         112.1265371545      A1        A1 (1)
   99   105           4.1245750219         112.2353922840      B2        B2 (3)
  100    34           4.1707404850         113.4916183985      A1        A1 (1)
  101    35           4.2197503568         114.8252448112      A1        A1 (1)
  102   132           4.2198621654         114.8282872788      A2        A2 (4)
  103   106           4.2204838827         114.8452050658      B2        B2 (3)
  104    73           4.2240082682         114.9411084718      B1        B1 (2)
  105    36           4.2285425098         115.0644914576      A1        A1 (1)
  106    74           4.2973625715         116.9371805422      B1        B1 (2)
  107   133           4.3042643130         117.1249864752      A2        A2 (4)
  108    37           4.3105665252         117.2964783883      A1        A1 (1)
  109   107           4.3150548498         117.4186119103      B2        B2 (3)
  110    38           4.4394406153         120.8033206642      A1        A1 (1)
  111    75           4.4487327196         121.0561716775      B1        B1 (2)
  112   108           4.4490885664         121.0658547596      B2        B2 (3)
  113    76           4.4677707012         121.5742214945      B1        B1 (2)
  114    39           4.4797759114         121.9008998725      A1        A1 (1)
  115   109           4.5821828966         124.6875356079      B2        B2 (3)
  116    77           4.6180810022         125.6643727225      B1        B1 (2)
  117   134           4.7199442708         128.4362131805      A2        A2 (4)
  118    40           4.7561907753         129.4225307094      A1        A1 (1)
  119    78           4.8726052852         132.5903305735      B1        B1 (2)
  120    79           4.9290126109         134.1252519387      B1        B1 (2)
  121    41           5.0421899187         137.2049630527      A1        A1 (1)
  122    42           5.0896027480         138.4951317288      A1        A1 (1)
  123   135           5.1405858539         139.8824525714      A2        A2 (4)
  124   110           5.2402309134         142.5939324878      B2        B2 (3)
  125   111           5.3304775520         145.0496683739      B2        B2 (3)
  126    43           5.4140277465         147.3231847488      A1        A1 (1)
  127    80           5.4173169284         147.4126879386      B1        B1 (2)
  128   136           5.5405083992         150.7648982818      A2        A2 (4)
  129   137           5.5552229007         151.1653002246      A2        A2 (4)
  130    81           5.6514917351         153.7849083859      B1        B1 (2)
  131    44           5.6793105248         154.5418961385      A1        A1 (1)
  132   112           5.7319378399         155.9739581872      B2        B2 (3)
  133    82           6.0711121184         165.2033595192      B1        B1 (2)
  134   138           6.2057302058         168.8665039058      A2        A2 (4)
  135   113           6.3838994369         173.7147351638      B2        B2 (3)
  136    83           6.6236373416         180.2383352060      B1        B1 (2)
  137   139           6.9867262296         190.1184861457      A2        A2 (4)
  138    45          12.0707445278         328.4616572685      A1        A1 (1)
  139    84          14.8703192176         404.6419575099      B1        B1 (2)


  VSCF finished.

 @CHECKOUT-I, Total execution time (CPU/WALL):       13.68/       1.72 seconds.
--executable xvscf finished with status     0 in        1.75 seconds (walltime).
 --invoking executable--
/home/tsommerfeld/zscale/bin/xvtran
 @GETMEM-I,  Allocated   85830 MB of main memory.
  Full RHF integral transformation
  Transformation of IIII integrals :
  1 pass through the AO integral file was required.
      698885 AO integrals were read.
      997326 MO integrals were written to HF2.
  Transformation of IIJJ integrals :
  1 pass through the AO integral file was required.
     1627209 AO integrals were read.
     2386575 MO integrals were written to HF2.
  Transformation of IJIJ integrals :
  1 pass through the AO integral file was required.
     3018676 AO integrals were read.
     4517476 MO integrals were written to HF2.
  Transformation of IJKL integrals :
  1 pass through the AO integral file was required.
     2601155 AO integrals were read.
     3969810 MO integrals were written to HF2.
  Summary of active molecular orbitals: 
------------------------------------------------------------------------
 
  Index      Eigenvalue    Symmetry    Index      Eigenvalue    Symmetry
------------------------------------------------------------------------
     1       -11.1125155        1        71         3.5408610        2
     2        -0.9233800        1        72         3.5682116        2
     3        -0.4530725        1        73         3.9906830        2
     4        -0.2606287        1        74         4.0815401        2
     5        -0.0431875        1        75         4.2240083        2
     6       -11.1107511        2        76         4.2973626        2
     7        -0.6668176        2        77         4.4487327        2
     8        -0.5458140        3        78         4.4677707        2
     9        -0.4021633        4        79         4.6180810        2
    10         0.2408687        1        80         4.8726053        2
    11         0.2767641        1        81         4.9290126        2
    12         0.4361394        1        82         5.4173169        2
    13         0.4739489        1        83         5.6514917        2
    14         0.5682649        1        84         6.0711121        2
    15         0.6528824        1        85         6.6236373        2
    16         0.7335176        1        86        14.8703192        2
    17         0.7962299        1        87         0.2897028        3
    18         1.0128682        1        88         0.4506594        3
    19         1.0976811        1        89         0.5860917        3
    20         1.1050916        1        90         0.7066875        3
    21         1.1148697        1        91         0.7827574        3
    22         1.2966225        1        92         1.0997765        3
    23         1.3418760        1        93         1.1563153        3
    24         1.3905312        1        94         1.3426481        3
    25         1.6268556        1        95         1.3685947        3
    26         1.9657600        1        96         1.4576588        3
    27         2.4207943        1        97         1.5746237        3
    28         2.5093517        1        98         2.7396453        3
    29         2.6632214        1        99         2.8232983        3
    30         2.8762728        1       100         3.0297437        3
    31         2.9900501        1       101         3.2224382        3
    32         3.2147482        1       102         3.2347850        3
    33         3.2267545        1       103         3.4511511        3
    34         3.2944346        1       104         3.7547029        3
    35         3.6659424        1       105         3.8350269        3
    36         3.6923047        1       106         4.1245750        3
    37         4.1205747        1       107         4.2204839        3
    38         4.1707405        1       108         4.3150548        3
    39         4.2197504        1       109         4.4490886        3
    40         4.2285425        1       110         4.5821829        3
    41         4.3105665        1       111         5.2402309        3
    42         4.4394406        1       112         5.3304776        3
    43         4.4797759        1       113         5.7319378        3
    44         4.7561908        1       114         6.3838994        3
    45         5.0421899        1       115         0.3420199        4
    46         5.0896027        1       116         0.8037664        4
    47         5.4140277        1       117         0.9415727        4
    48         5.6793105        1       118         1.0176760        4
    49        12.0707445        1       119         1.1045658        4
    50         0.2695603        2       120         1.1319745        4
    51         0.2969552        2       121         1.7074145        4
    52         0.4503613        2       122         1.7504955        4
    53         0.4627588        2       123         2.0824224        4
    54         0.6768891        2       124         2.9555650        4
    55         0.7161485        2       125         3.1781256        4
    56         0.7513495        2       126         3.2670188        4
    57         0.8967383        2       127         3.5410360        4
    58         1.1065500        2       128         3.5601267        4
    59         1.2961380        2       129         3.9290134        4
    60         1.3484427        2       130         4.0248471        4
    61         1.4346523        2       131         4.0902691        4
    62         1.4821348        2       132         4.2198622        4
    63         1.5896770        2       133         4.3042643        4
    64         1.6547114        2       134         4.7199443        4
    65         1.9140778        2       135         5.1405859        4
    66         2.6808096        2       136         5.5405084        4
    67         2.8555399        2       137         5.5552229        4
    68         3.3454443        2       138         6.2057302        4
    69         3.3788333        2       139         6.9867262        4
    70         3.5169186        2
------------------------------------------------------------------------
  -11.1125154683745      -0.923380027788009      -0.453072545747466     
 -0.260628665653575      -4.318748456557102E-002  -11.1107511215714     
 -0.666817582056175      -0.545813957847669      -0.402163344834024     
  0.240868691287903       0.276764088394956       0.436139400189644     
  0.473948852180610       0.568264893010451       0.652882399923768     
  0.733517609716192       0.796229907094052        1.01286823754800     
   1.09768108675593        1.10509155803075        1.11486966374405     
   1.29662252598498        1.34187602008631        1.39053116896837     
   1.62685556623181        1.96576001240350        2.42079426385830     
   2.50935171649560        2.66322138304810        2.87627279487708     
   2.99005009003036        3.21474824164862        3.22675449597406     
   3.29443458542121        3.66594240408229        3.69230470982290     
   4.12057466929314        4.17074048497261        4.21975035680183     
   4.22854250980822        4.31056652519662        4.43944061528871     
   4.47977591144678        4.75619077526792        5.04218991867465     
   5.08960274797367        5.41402774652093        5.67931052481725     
   12.0707445277674       0.269560263847209       0.296955221032213     
  0.450361318577106       0.462758808749186       0.676889084052503     
  0.716148532685578       0.751349498493269       0.896738302089272     
   1.10654997932118        1.29613801504786        1.34844265609607     
   1.43465230769023        1.48213476794937        1.58967703469652     
   1.65471138178368        1.91407776307587        2.68080961590122     
   2.85553987556852        3.34544432183083        3.37883327851327     
   3.51691855828456        3.54086102373185        3.56821159381246     
   3.99068300736832        4.08154014266552        4.22400826823899     
   4.29736257150984        4.44873271961380        4.46777070123185     
   4.61808100217702        4.87260528524011        4.92901261090371     
   5.41731692842088        5.65149173510533        6.07111211843745     
   6.62363734164265        14.8703192175768       0.289702766331212     
  0.450659381163814       0.586091736123753       0.706687451275773     
  0.782757416159159        1.09977653362871        1.15631526078934     
   1.34264814737664        1.36859468978861        1.45765883911969     
   1.57462373063650        2.73964525454576        2.82329826429956     
   3.02974366553405        3.22243817048298        3.23478503843376     
   3.45115108891208        3.75470290330019        3.83502686259262     
   4.12457502193852        4.22048388270450        4.31505484981294     
   4.44908856635500        4.58218289658442        5.24023091335243     
   5.33047755204879        5.73193783992676        6.38389943687442     
  0.342019862778217       0.803766371101170       0.941572686122113     
   1.01767603607259        1.10456575310833        1.13197446615496     
   1.70741447345911        1.75049551621274        2.08242237879755     
   2.95556497427016        3.17812564335636        3.26701883075079     
   3.54103598864766        3.56012673945943        3.92901336517694     
   4.02484705674891        4.09026907123573        4.21986216543473     
   4.30426431297299        4.71994427084257        5.14058585391115     
   5.54050839920979        5.55522290074430        6.20573020575678     
   6.98672622964305     
 @CHECKOUT-I, Total execution time (CPU/WALL):       12.11/       2.45 seconds.
--executable xvtran finished with status     0 in        2.47 seconds (walltime).
 --invoking executable--
/home/tsommerfeld/zscale/bin/xintprc
 @GETMEM-I,  Allocated   85830 MB of main memory.
  Processing integrals for CCSD calculation.
  @GMOIAA-I, Processing MO integrals for spin case AA.
  @GMOIAA-I, Generation of integral list completed.
                      TYPE                NUMBER
                      ----               --------
                      PPPP               9084376
                      PPPH               2501601
                      PPHH                173538
                      PHPH                 97627
                      PHHH                 13713
                      HHHH                   332

                     TOTAL              11871187

  @FORMT2-I, Second-order MP correlation energies:
            ------------------------------------------------
            E(SCF)                  =    -78.543955243852 a.u.
            E2(AA)                  =     -0.038133533487 a.u.
            E2(AB)                  =     -0.319935078809 a.u.
            E2(TOT)                 =     -0.396202145782 a.u.
            Total MP2 energy        =    -78.940157389634 a.u.
            ------------------------------------------------
   Largest T2 amplitudes for spin case AB:
       _       _                 _       _                 _       _
   i   j   a   b             i   j   a   b             i   j   a   b
-----------------------------------------------------------------------------
[  4   4  50  50]-0.08136 [  5   5  10  10]-0.06433 [  5   5  17  17]-0.04223
[  5   5  88  88]-0.04066 [  5   5  52  52]-0.03918 [  5   5  17  10] 0.03537
[  5   5  10  17] 0.03537 [  4   4  54  50]-0.03347 [  4   4  50  54]-0.03347
[  5   5  12  12]-0.03288 [  5   5  11  10] 0.03163 [  5   5  10  11] 0.03163
[  4   4  14  14]-0.02930 [  4   3  50  57] 0.02627 [  3   4  57  50] 0.02627
-----------------------------------------------------------------------------
   Norm of T2AB vector (   345906 symmetry allowed elements):  0.3325187364.
-----------------------------------------------------------------------------
 @CHECKOUT-I, Total execution time (CPU/WALL):        4.00/       2.73 seconds.
--executable xintprc finished with status     0 in        2.75 seconds (walltime).
  calling xvcc 
 --invoking executable--
/home/tsommerfeld/zscale/bin/xvcc
 @GETMEM-I,  Allocated   85830 MB of main memory.
   CCSD energy will be calculated.
   The total correlation energy is -0.396202145782 a.u.
   The total correlation energy is -0.415902095123 a.u.
  Convergence information after     1 iterations: 
  Largest element of residual vector : -0.21500678E-01.
  Largest element of DIIS residual   : -0.21500678E-01.
   The total correlation energy is -0.427054532118 a.u.
  Convergence information after     2 iterations: 
  Largest element of residual vector : -0.10820796E-01.
  Largest element of DIIS residual   : -0.10519899E-01.
   The total correlation energy is -0.429919566144 a.u.
  Convergence information after     3 iterations: 
  Largest element of residual vector : -0.55472939E-02.
  Largest element of DIIS residual   :  0.55799712E-02.
   The total correlation energy is -0.431532702011 a.u.
  Convergence information after     4 iterations: 
  Largest element of residual vector :  0.31902208E-02.
  Largest element of DIIS residual   : -0.19618581E-02.
   The total correlation energy is -0.431701751334 a.u.
  Convergence information after     5 iterations: 
  Largest element of residual vector :  0.11634877E-02.
  Largest element of DIIS residual   :  0.56159734E-03.
   The total correlation energy is -0.431707586830 a.u.
  Convergence information after     6 iterations: 
  Largest element of residual vector : -0.33619218E-03.
  Largest element of DIIS residual   :  0.26092445E-03.
   The total correlation energy is -0.431702055476 a.u.
  Convergence information after     7 iterations: 
  Largest element of residual vector :  0.14735582E-03.
  Largest element of DIIS residual   :  0.82547797E-04.
   The total correlation energy is -0.431693979184 a.u.
  Convergence information after     8 iterations: 
  Largest element of residual vector :  0.51004504E-04.
  Largest element of DIIS residual   :  0.31032239E-04.
   The total correlation energy is -0.431693932693 a.u.
  Convergence information after     9 iterations: 
  Largest element of residual vector : -0.19008082E-04.
  Largest element of DIIS residual   : -0.15281710E-04.
   The total correlation energy is -0.431694557637 a.u.
  Convergence information after    10 iterations: 
  Largest element of residual vector :  0.73727078E-05.
  Largest element of DIIS residual   : -0.80300044E-05.
   The total correlation energy is -0.431695427903 a.u.
  Convergence information after    11 iterations: 
  Largest element of residual vector :  0.54154962E-05.
  Largest element of DIIS residual   :  0.53926633E-05.
   The total correlation energy is -0.431695966406 a.u.
  Convergence information after    12 iterations: 
  Largest element of residual vector :  0.30020958E-05.
  Largest element of DIIS residual   : -0.24056657E-05.
   The total correlation energy is -0.431696309708 a.u.
  Convergence information after    13 iterations: 
  Largest element of residual vector :  0.18671340E-05.
  Largest element of DIIS residual   :  0.10606133E-05.
   The total correlation energy is -0.431696423579 a.u.
  Convergence information after    14 iterations: 
  Largest element of residual vector :  0.58211234E-06.
  Largest element of DIIS residual   : -0.44462686E-06.
   The total correlation energy is -0.431696413058 a.u.
  Convergence information after    15 iterations: 
  Largest element of residual vector :  0.30300750E-06.
  Largest element of DIIS residual   :  0.17170762E-06.
   The total correlation energy is -0.431696400130 a.u.
  Convergence information after    16 iterations: 
  Largest element of residual vector :  0.97017905E-07.
  Largest element of DIIS residual   :  0.52418814E-07.
  Amplitude equations converged in    16iterations.
   The total correlation energy is -0.431696390720 a.u.
   The CC iterations have converged.

   Largest T1 amplitudes for spin case AA:
   i       a                 i       a                 i       a    
-----------------------------------------------------------------------------
[  5      10    ] 0.02884 [  4      14    ] 0.01843 [  5      17    ] 0.01476
[  4      18    ]-0.01437 [  4      15    ]-0.01065 [  4      22    ]-0.00925
[  4      28    ]-0.00876 [  4      12    ] 0.00865 [  8      89    ]-0.00799
[  8      90    ] 0.00620 [  5      11    ]-0.00598 [  4      21    ]-0.00593
[  3      13    ] 0.00516 [  5      31    ] 0.00484 [  4      13    ]-0.00483
-----------------------------------------------------------------------------
   Norm of T1AA vector (      327 symmetry allowed elements):  0.0500876463.
-----------------------------------------------------------------------------
   Largest T2 amplitudes for spin case AB:
       _       _                 _       _                 _       _
   i   j   a   b             i   j   a   b             i   j   a   b
-----------------------------------------------------------------------------
[  5   5  10  10]-0.11704 [  4   4  50  50]-0.11424 [  5   5  17  10] 0.07060
[  5   5  10  17] 0.07060 [  5   5  11  10] 0.05736 [  5   5  10  11] 0.05736
[  5   5  17  17]-0.05663 [  5   5  88  88]-0.05380 [  5   5  52  52]-0.05174
[  4   4  54  50]-0.04654 [  4   4  50  54]-0.04654 [  5   5  12  12]-0.04310
[  5   5  17  11]-0.03506 [  5   5  11  17]-0.03506 [  5   5  11  11]-0.02967
-----------------------------------------------------------------------------
   Norm of T2AB vector (   345906 symmetry allowed elements):  0.4168098909.
-----------------------------------------------------------------------------
       Summary of iterative solution of CC equations 
      -----------------------------------------------------------
                       Correlation           Total
       Iteration         Energy              Energy
      -----------------------------------------------------------
            0        -0.396202145782     -78.940157389634  DIIS 
            1        -0.415902095123     -78.959857338974  DIIS 
            2        -0.427054532118     -78.971009775970  DIIS 
            3        -0.429919566144     -78.973874809996  DIIS 
            4        -0.431532702011     -78.975487945863  DIIS 
            5        -0.431701751334     -78.975656995186  DIIS 
            6        -0.431707586830     -78.975662830682  DIIS 
            7        -0.431702055476     -78.975657299328  DIIS 
            8        -0.431693979184     -78.975649223036  DIIS 
            9        -0.431693932693     -78.975649176545  DIIS 
           10        -0.431694557637     -78.975649801488  DIIS 
           11        -0.431695427903     -78.975650671755  DIIS 
           12        -0.431695966406     -78.975651210258  DIIS 
           13        -0.431696309708     -78.975651553559  DIIS 
           14        -0.431696423579     -78.975651667431  DIIS 
           15        -0.431696413058     -78.975651656910  DIIS 
           16        -0.431696390720     -78.975651634572  DIIS 
      -----------------------------------------------------------
      A miracle has come to pass. The CC iterations have converged.
      The reference energy is       -78.54395524385183 a.u.
      The correlation energy is      -0.43169639071973 a.u.
      The total energy is           -78.97565163457155 a.u.
 @CHECKOUT-I, Total execution time (CPU/WALL):       76.56/       9.58 seconds.
--executable xvcc finished with status     0 in        9.61 seconds (walltime).
  The final electronic energy is       -78.975651634571548 a.u. 
  This computation required                           21.36 seconds (walltime).
