CFour on node02
 --invoking executable--
/home/tsommerfeld/zscale/bin/xjoda


   *************************************************************************
         <<<     CCCCCC     CCCCCC   |||     CCCCCC     CCCCCC   >>>
       <<<      CCC        CCC       |||    CCC        CCC         >>>
      <<<      CCC        CCC        |||   CCC        CCC            >>>
    <<<        CCC        CCC        |||   CCC        CCC              >>>
      <<<      CCC        CCC        |||   CCC        CCC            >>>
       <<<      CCC        CCC       |||    CCC        CCC         >>>
         <<<     CCCCCC     CCCCCC   |||     CCCCCC     CCCCCC   >>>
   *************************************************************************

     ****************************************************************
     * CFOUR Coupled-Cluster techniques for Computational Chemistry *
     ****************************************************************
 

   Department of Chemistry                Institut fuer Physikalische Chemie
   University of Florida                  Universitaet Mainz
   Gainesville, FL 32611, USA             D-55099 Mainz, Germany

   Department of Chemistry                Department of Chemistry
   Johns Hopkins University               Southern Methodist University
   Baltimore, MD 21218, USA               Dallas, TX 75275, USA

   Institute of Nanotechnology            Department of Physical Chemistry
   Karlsruhe Inst. of Technology          Eotvos Lorand University
   D-76021 Karlsruhe, Germany             H-1053 Budapest, Hungary

 
                       Version 2.1
 
                     node02                                            
                     Thu Mar 31 14:05:43 CST 2022                      
                     integer*8 version is running
 
********************************************************************************
*                          Input from ZMAT file                                *
********************************************************************************
h_ethylene                                                                      
C       0.000000      0.0   -0.664500                                           
C       0.000000      0.0    0.664500                                           
H       0.962348      0.0   -1.159080                                           
H       0.962348      0.0    1.159080                                           
H      -0.962348      0.0   -1.159080                                           
H      -0.962348      0.0    1.159080                                           
H      0.000000      7.6000000000000005      0.000000                           
                                                                                
*CFOUR(CALC=CCSD                                                                
#EXCITE=EOMEE                                                                   
#ESTATE_SYM=0/3/0/0                                                             
CC_PROG=VCC                                                                     
CHARGE=-1                                                                       
COORDINATES=CARTESIAN                                                           
BASIS=SPECIAL                                                                   
REFERENCE=RHF                                                                   
MEM_SIZE=90,MEM_UNIT=GB)                                                        
                                                                                
C:cc-pVTZ                                                                       
C:cc-pVTZ                                                                       
H:cc-pVTZ                                                                       
H:cc-pVTZ                                                                       
H:cc-pVTZ                                                                       
H:cc-pVTZ                                                                       
H:aug-cc-pVTZ                                                                   
                                                                                
********************************************************************************
  @GTFLGS-W, Keyword #EXCITE not known and is ignored.
  @GTFLGS-W, Keyword #ESTATE_SYM not known and is ignored.
    -------------------------------------------------------------------
                    CFOUR Control Parameters 
    -------------------------------------------------------------------
        External           Internal           Value            Units
          Name               Name
    -------------------------------------------------------------------
       ABCDTYPE             IABCDT         STANDARD    [  0]    ***   
       ANHARMONIC           IANHAR         OFF         [  0]    ***   
       ANH_ALGORIT          IANALG         STANDARD    [  0]    ***   
       ANH_DERIVAT          IANDER         SECOND      [  1]    ***   
       ANH_MODE             ANHMOD         VIBRATION   [  0]    ***   
       ANH_STEPSIZ          ICUBST             50000          x 10-6  
       ANH_SYMMETR          IANHSM         ABELIAN     [  0]    ***   
       AO_LADDERS           IAOLAD         SINGLEPASS  [  1]    ***   
       AV_SCF               IAVSCF         OFF         [  0]    ***   
       BASIS                IBASIS         SPECIAL     [  0]    ***   
       BOTHVECTORS          BOTHVC         OFF         [  0]    ***   
       BOX_POTENT           IPIAB          OFF         [  0]    ***   
       BREIT                IBREIT         OFF         [  0]    ***   
       BRUCK_CONV           IBRTOL          10D-  4             ***   
       BRUECKNER            IBRKNR         OFF         [  0]    ***   
       BUFFERSIZE           IBUFFS              4096            ***   
       CACHE_RECS           ICHREC             10               ***   
       CALCLEVEL            ICLLVL         CCSD        [ 10]    ***   
       CCORBOPT             ICCORB         OFF         [  0]  x 0.01  
       CC_CONV              ICCCNV          10D-  7             ***   
       CC_EXPORDER          ICCEOR              5               ***   
       CC_EXTRAPOL          ICCEXT         DIIS        [  1]    ***   
       CC_GUESS             ICCGES         MP2         [  0]    ***   
       CC_MAXCYC            ICCCYC            100              cycles 
       CC_PROGRAM           ICCPRO         VCC         [  0]    ***   
       CHARGE               ICHRGE             -1               ***   
       CHOLESKY             ICHOLE         OFF         [  0]    ***   
       CIS_CONV             ICISTL              5               ***   
       COMM_SIZE            IPSIZE            ***               ***   
       CONSTANT             ICONST         OLD         [  1]    ***   
       CONTINUUM            ICONTU         NONE        [  0]    ***   
       CONTRACTION          ICNTYP         GENERAL     [  1]    ***   
       COORDINATES          ICOORD         CARTESIAN   [  1]    ***   
       CPHF_CONVER          ICPHFT          10D- 16             ***   
       CPHF_MAXCYC          ICPHFC             64              cycles 
       CUBIC                ICUBIC         OFF         [  0]    ***   
       CURVILINEAR          ICURVY         OFF         [  0]    ***   
       DBOC                 IDBOC          OFF         [  0]    ***   
       DCT                  IDCT           OFF         [  0]    ***   
       DERIV_LEV            IDRLVL         ZERO        [  0]    ***   
       DEVMEM_SIZE          IDVMEM         *********           MByte  
       DIAG_MRCC            IEOMST          10D-  0             ***   
       DIFF_TYPE            IDIFTY         RELAXED     [  0]    ***   
       DIRECT               IDIRCT         OFF         [  0]    ***   
       DROPMO               IDRPMO      NONE         
       ECP                  IECP           OFF         [  0]    ***   
       EIGENVECTOR          IVEC                1               ***   
       EL_ANHARM            IELANH         OFF         [  0]    ***   
       EOMFOLLOW            IEOMSR         ENERGY      [  0]    ***   
       EOMIP                IEOMIP         OFF         [  0]    ***   
       EOMLEVEL             HBARFM         SAME        [  0]    ***   
       EOM_MRCC             IMRCCE         NEW         [  1]    ***   
       EOM_NONIT            EOMNON         OFF         [  0]    ***   
       EOM_NSING            IEOMSI          10D-  0             ***   
       EOM_NSTATES          IMRCCD         DAVIDSON    [  0]    ***   
       EOM_NTRIP            IEOMTR          10D-  0             ***   
       EOM_ORDER            IEXORD         ENERGY      [  0]    ***   
       EOM_PROPSTA          IEOMST              0               ***   
       ESTATE_CONV          IEXTOL          10D-  5             ***   
       ESTATE_DIAG          IEXDIG         ITERATIVE   [  0]    ***   
       ESTATE_LOCK          IESLOC         ON          [  1]    ***   
       ESTATE_MAXC          IEXMXC             40               ***   
       ESTATE_PROP          IEXPRP         OFF         [  0]    ***   
       EVAL_HESS            IRECAL              0            # of cyc.
       EXCITATION           IEXCIT              0               ***   
       EXCITE               IEXCIT         NONE        [  0]    ***   
       EXTERN_POT           IEXPOT         OFF         [  0]    ***   
       FCGRADNEW            IFCGNW         OFF         [  0]    ***   
       FC_FIELD             IFINFC              0             x 10-6  
       FD_CALTYPE           IFDCAL         GRADONLY    [  0]    ***   
       FD_PROJECT           IFDPRJ         OFF         [  1]    ***   
       FD_STEPSIZE          IDISFD              0            10-4 bohr
       FD_USEGROUP          IFDGRP         FULL        [  0]    ***   
       FILE_RECSIZ          IFLREC              4096           words  
       FINITE_PERT          IFIPER              0             x 10-6  
       FIXGEOM              IFIXGM         OFF         [  0]    ***   
       FOCK                 IFOCK          AO          [  1]    ***   
       FREQ_ALGORI          IVIALG         STANDARD    [  0]    ***   
       FROZEN_CORE          IFROCO         OFF         [  0]    ***   
       GAMMA_ABCD           IGABCD         STORE       [  0]    ***   
       GAMMA_ABCI           IGABCI         STORE       [  0]    ***   
       GENBAS_1             IGNBS1              0               ***   
       GENBAS_2             IGNBS2              0               ***   
       GENBAS_3             IGNBS3              0               ***   
       GENBAS_4             IGNBS4              0               ***   
       GEO_CONV             ICONTL              5              H/bohr 
       GEO_MAXCYC           IOPTCY             50               ***   
       GEO_MAXSTEP          IMXSTP            300            millibohr
       GEO_METHOD           INR            SINGLE_POINT[  5]    ***   
       GIAO                 IGIAO          OFF         [  1]    ***   
       GIMIC                IGIMIC         OFF         [  0]    ***   
       GRID                 IGRID          OFF         [  0]    ***   
       GRID_ALGO            IGALGO         SERIAL      [  0]    ***   
       GUESS                IGUESS         MOREAD      [  0]    ***   
       HBAR                 IHBAR          OFF         [  0]    ***   
       HESS_TYPE            IHESTP         SCF         [  0]    ***   
       HF2_FILE             IHF2Fl         USE         [  1]    ***   
       HFSTABILITY          ISTABL         OFF         [  0]    ***   
       INCORE               INCORE         OFF         [  0]    ***   
       INPUT_MRCC           IMRCC          ON          [  1]    ***   
       INTEGRALS            INTTYP         VMOL        [  1]    ***   
       JODA_PRINT           IJPRNT              0               ***   
       KEYWORD_OUT          IDMPKW         NO          [  0]    ***   
       LINDEP_TOL           ILINDP              8               ***   
       LINEQ_CONV           IZTACN          10D-  7           cycles  
       LINEQ_EXPOR          ILMAXD              5               ***   
       LINEQ_MAXCY          ILMAXC            100               ***   
       LINEQ_TYPE           ILTYPE         DIIS        [  1]    ***   
       LOCK_ORBOCC          ILOCOC         OFF         [  0]    ***   
       MEMORY_SIZE          IMEMSZ         *********           words  
       MEM_UNIT             IMEMU          GB          [  3]    ***   
       MRCC                 IMRCCC         OFF         [  0]    ***   
       MULTIPLICTY          IMULTP              1               ***   
       NACOUPLING           IVCOUP         OFF         [  0]    ***   
       NEGEVAL              IDIE           ABORT       [  0]    ***   
       NEWNORM              INEWNO         OFF         [  0]    ***   
       NON-HF               INONHF         OFF         [  0]    ***   
       NTOP_TAMP            ITOPT2             15               ***   
       NUC_MODEL            INUCMO         POINT       [  0]    ***   
       OCCUPATION           IOCCU   ESTIMATED BY SCF 
       OPEN-SHELL           IOPEN          SPIN-ORBITAL[  0]    ***   
       OPTVIB               IOPTVB         OFF         [  0]    ***   
       ORBITALS             IORBTP         STANDARD    [  0]    ***   
       PARALLEL             IPARAL         ON          [  1]    ***   
       PARA_INT             IPINTS         ON          [  1]    ***   
       PARA_PRINT           IPPRIN              0               ***   
       PERT_ORB             IPTORB         STANDARD    [  0]    ***   
       POINTS               IGRDFD              0               ***   
       PRINT                IPRNT               0               ***   
       PROPS                IPROPS         OFF         [  0]    ***   
       PROP_INTEGR          IINTYP         INTERNAL    [  0]    ***   
       PSI                  IPSI           OFF         [  0]    ***   
       QC_ALG               IQCALG         FLM         [  0]    ***   
       QC_LINALG            IQCLIN         TRIDIAG     [  2]    ***   
       QC_MAXCYC            IQCMAX          10D-100           cycles  
       QC_MAXSCFCY          IQCMSC          10D- 15           cycles  
       QC_RTRUST            IQCRTR          10D-  0           x 10-3  
       QC_SKIPSCF           IQCSKI         OFF         [  0]    ***   
       QC_START             IQCSTA          10D-  1             ***   
       QRHFGUESS            IQGUES         OFF         [  0]    ***   
       QUARTIC              IQUART         OFF         [  0]    ***   
       RAMAN_INT            IRAMIN         OFF         [  0]    ***   
       RAMAN_ORB            IRAMRE         UNRELAXED   [  0]    ***   
       RDO                  IRDOFM         OFF         [  0]    ***   
       REDUCE_REPR          REDREP         Ir          [  0]    ***   
       REFERENCE            IREFNC         RHF         [  0]    ***   
       RELATIVIST           IRELAT         OFF         [  0]    ***   
       RELAX_DENS           IRDENS         OFF         [  0]    ***   
       RESET_FLAGS          IRESET         OFF         [  0]    ***   
       RESTART_CC           ICCRES         OFF         [  0]    ***   
       ROT_EVEC             ROTVEC              0               ***   
       SAVE_INTS            ISVINT         OFF         [  0]    ***   
       SCALE_ON             ISTCRT              0               ***   
       SCF_CONV             ISCFCV          10D-  7             ***   
       SCF_DAMPING          IDAMP               0             x 10-3  
       SCF_EXPORDE          IRPPOR              6               ***   
       SCF_EXPSTAR          IRPPLS              8               ***   
       SCF_EXTRAPO          IRPP           ON          [  1]    ***   
       SCF_MAXCYC           ISCFCY            150              cycles 
       SCF_NOSTOP           ISCFST         OFF         [  0]    ***   
       SCF_PRINT            ISCFPR              0               ***   
       SCF_PROG             ISCFPR         SCF         [  0]    ***   
       SD_FIELD             IFINSD              0             x 10-6  
       SOPERT               IPERSO         OFF         [  0]    ***   
       SPHERICAL            IDFGHI         ON          [  1]    ***   
       SPINORBIT            ISOCAL         OFF         [  0]    ***   
       SPINROTATIO          ISRCON         OFF         [  0]    ***   
       SPIN_FLIP            ISPFLP         OFF         [  0]    ***   
       SPIN_ORBIT           ISPORB         OFF         [  0]    ***   
       SPIN_SCAL            ISCSMP         OFF         [  0]    ***   
       STEEPSCALE           ISTPSC              1000          x 10-3  
       SUBGROUP             ISUBGP         DEFAULT     [  0]    ***   
       SUBGRPAXIS           ISBXYZ         X           [  0]    ***   
       SYMMETRY             ISYM           ON          [  0]    ***   
       SYM_CHECK            ISYMCK         OVERRIDE    [  1]    ***   
       T3_EXTRAPOL          IT3EXT         OFF         [  0]    ***   
       T4_EXTRAPOL          IT4EXP         OFF         [  0]    ***   
       TAMP_SUM             IEVERY              5               ***   
       TESTSUITE            ITESTS         OFF         [  0]    ***   
       THERMOCH             ITHERM         OFF         [  0]    ***   
       TOL_CHOLESK          ITOLCH          10D-  4             ***   
       TRANGRAD             IRESRM         OFF         [  0]    ***   
       TRANS_INV            ITRAIN         USE         [  0]    ***   
       TREAT_PERT           ITREAT         SIMULTANEOUS[  0]    ***   
       TRIP_ALGORI          ITRALG         NORMAL      [  0]    ***   
       UIJ_THRESHO          IUIJTH              1               ***   
       UNITS                IUNITS         ANGSTROM    [  0]    ***   
       UNOS                 IUNOS          OFF         [  0]    ***   
       UPDATE_HESS          IHUPDT         ON          [  1]    ***   
       VIBPHASE             ISETPH         STANDARD    [  0]    ***   
       VIBRATION            IVIB           NO          [  0]    ***   
       VIB_ALGORIT          IGEALG         STANDARD    [  0]    ***   
       VNATORB              IVNORB         OFF         [  0]    ***   
       VTRAN                IVTRAN         FULL/PARTIAL[  0]    ***   
       XFIELD               IXEFLD              0             x 10-6  
       XFORM_TOL            IXFTOL          10D- 11             ***   
       YFIELD               IYEFLD              0             x 10-6  
       ZFIELD               IZEFLD              0             x 10-6  
       ZSCALE_EXP           IZEXPS         OFF         [  0]    ***   
    -------------------------------------------------------------------
  @GETXYZ-I,     7 atoms read from ZMAT.
   Rotational constants (in cm-1): 
          0.2334688852             0.2813115771             0.8536890782
   Rotational constants (in MHz): 
       6999.2220754667          8433.5100971999         25592.9582983935
********************************************************************************
   The full molecular point group is C2v .
   The largest Abelian subgroup of the full molecular point group is C2v .
   The computational point group is C2v .
********************************************************************************


 ----------------------------------------------------------------
         Coordinates used in calculation (QCOMP) 
 ----------------------------------------------------------------
 Z-matrix   Atomic            Coordinates (in bohr)
  Symbol    Number           X              Y              Z
 ----------------------------------------------------------------
     C         6        -1.25572327     0.00000000    -0.49844147
     C         6         1.25572327     0.00000000    -0.49844147
     H         1        -2.19034422     1.81857454    -0.49844147
     H         1         2.19034422     1.81857454    -0.49844147
     H         1        -2.19034422    -1.81857454    -0.49844147
     H         1         2.19034422    -1.81857454    -0.49844147
     H         1         0.00000000     0.00000000    13.86348009
 ----------------------------------------------------------------
 
   Interatomic distance matrix (Angstroms) 
 
                 C             C             H             H             H    
                [ 1]        [ 2]        [ 3]        [ 4]        [ 5]
  C    [ 1]     0.00000
  C    [ 2]     1.32900     0.00000
  H    [ 3]     1.08200     2.06193     0.00000
  H    [ 4]     2.06193     1.08200     2.31816     0.00000
  H    [ 5]     1.08200     2.06193     1.92470     3.01303     0.00000
  H    [ 6]     2.06193     1.08200     3.01303     1.92470     2.31816
  H    [ 7]     7.62900     7.62900     7.74788     7.74788     7.74788
 
                 H             H    
                [ 6]        [ 7]
  H    [ 6]     0.00000
  H    [ 7]     7.74788     0.00000
 rotcon2
   Rotational constants (in cm-1): 
          0.2813115771             0.2334688852             0.8536890782
   Rotational constants (in MHz): 
       8433.5100971999          6999.2220754667         25592.9582983935
  ECPDATA file not present.   Using default ECPDATA. 
  @GTFLGS-W, Keyword #EXCITE not known and is ignored.
  @GTFLGS-W, Keyword #ESTATE_SYM not known and is ignored.
  There are  139 basis functions.
 @GEOPT-W, Archive file not created for single-point calculation.
 @CHECKOUT-I, Total execution time (CPU/WALL):        0.13/       0.15 seconds.
--executable xjoda finished with status     0 in        0.16 seconds (walltime).
 --invoking executable--
/home/tsommerfeld/zscale/bin/xvmol
 SERIAL VERSION OF MOLECULE STARTED
********************************************************************************
                    INPUT FROM MOL FILE
********************************************************************************
INTGRL        1    0    1    0    0    0    0    0    0                         
         *** CFOUR Program System (Release V0.1) ***                            
h_ethylene                                                                      
    3    2 X  Y       0.10E-08              0    0                              
   9999.00      3.00                                                            
          6.00000000    1    4    1    1    1    1                              
C #1  -1.255723272983657   0.000000000000000  -0.498441465047528                
   10    4                                                                      
   8236.00000000000       5.310000000000000E-004  0.000000000000000E+000        
 -1.130000000000000E-004  0.000000000000000E+000                                
   1235.00000000000       4.108000000000000E-003  0.000000000000000E+000        
 -8.780000000000000E-004  0.000000000000000E+000                                
   280.800000000000       2.108700000000000E-002  0.000000000000000E+000        
 -4.540000000000000E-003  0.000000000000000E+000                                
   79.2700000000000       8.185300000000000E-002  0.000000000000000E+000        
 -1.813300000000000E-002  0.000000000000000E+000                                
   25.5900000000000       0.234817000000000       0.000000000000000E+000        
 -5.576000000000000E-002  0.000000000000000E+000                                
   8.99700000000000       0.434401000000000       0.000000000000000E+000        
 -0.126895000000000       0.000000000000000E+000                                
   3.31900000000000       0.346129000000000       0.000000000000000E+000        
 -0.170352000000000       0.000000000000000E+000                                
  0.905900000000000       3.937800000000000E-002   1.00000000000000             
  0.140382000000000       0.000000000000000E+000                                
  0.364300000000000      -8.983000000000000E-003  0.000000000000000E+000        
  0.598684000000000       0.000000000000000E+000                                
  0.128500000000000       2.385000000000000E-003  0.000000000000000E+000        
  0.395389000000000        1.00000000000000                                     
    5    3                                                                      
   18.7100000000000       0.000000000000000E+000  1.403100000000000E-002        
  0.000000000000000E+000                                                        
   4.13300000000000       0.000000000000000E+000  8.686600000000000E-002        
  0.000000000000000E+000                                                        
   1.20000000000000       0.000000000000000E+000  0.290216000000000             
  0.000000000000000E+000                                                        
  0.382700000000000        1.00000000000000       0.501008000000000             
  0.000000000000000E+000                                                        
  0.120900000000000       0.000000000000000E+000  0.343406000000000             
   1.00000000000000                                                             
    2    2                                                                      
   1.09700000000000        1.00000000000000       0.000000000000000E+000        
  0.318000000000000       0.000000000000000E+000   1.00000000000000             
    1    1                                                                      
  0.761000000000000        1.00000000000000                                     
          1.00000000    1    3    1    1    1                                   
H #2  -2.190344215575466   1.818574537711477  -0.498441465047528                
    5    3                                                                      
   33.8700000000000       0.000000000000000E+000  6.068000000000000E-003        
  0.000000000000000E+000                                                        
   5.09500000000000       0.000000000000000E+000  4.530800000000000E-002        
  0.000000000000000E+000                                                        
   1.15900000000000       0.000000000000000E+000  0.202822000000000             
  0.000000000000000E+000                                                        
  0.325800000000000        1.00000000000000       0.503903000000000             
  0.000000000000000E+000                                                        
  0.102700000000000       0.000000000000000E+000  0.383421000000000             
   1.00000000000000                                                             
    2    2                                                                      
   1.40700000000000        1.00000000000000       0.000000000000000E+000        
  0.388000000000000       0.000000000000000E+000   1.00000000000000             
    1    1                                                                      
   1.05700000000000        1.00000000000000                                     
          1.00000000    1    3    1    1    1                                   
H #3   0.000000000000000   0.000000000000000  13.863480092026657                
    6    4                                                                      
   33.8700000000000       0.000000000000000E+000  6.068000000000000E-003        
  0.000000000000000E+000  0.000000000000000E+000                                
   5.09500000000000       0.000000000000000E+000  4.530800000000000E-002        
  0.000000000000000E+000  0.000000000000000E+000                                
   1.15900000000000       0.000000000000000E+000  0.202822000000000             
  0.000000000000000E+000  0.000000000000000E+000                                
  0.325800000000000        1.00000000000000       0.503903000000000             
  0.000000000000000E+000  0.000000000000000E+000                                
  0.102700000000000       0.000000000000000E+000  0.383421000000000             
   1.00000000000000       0.000000000000000E+000                                
  2.526000000000000E-002  0.000000000000000E+000  0.000000000000000E+000        
  0.000000000000000E+000   1.00000000000000                                     
    3    3                                                                      
   1.40700000000000        1.00000000000000       0.000000000000000E+000        
  0.000000000000000E+000                                                        
  0.388000000000000       0.000000000000000E+000   1.00000000000000             
  0.000000000000000E+000                                                        
  0.102000000000000       0.000000000000000E+000  0.000000000000000E+000        
   1.00000000000000                                                             
    2    2                                                                      
   1.05700000000000        1.00000000000000       0.000000000000000E+000        
  0.247000000000000       0.000000000000000E+000   1.00000000000000             
FINISH                                                                          
 
********************************************************************************
 ONE- AND TWO-ELECTRON INTEGRALS OVER SYMMETRY-ADAPTED AOS ARE CALCULATED.

  SPHERICAL HARMONICS ARE USED.
  
  INTEGRALS LESS THAN  0.10E-13 ARE NEGLECTED.

  NUCLEAR REPULSION ENERGY :   34.6947812894 A.U.
  @MOLECU-I, ONE ELECTRON INTEGRALS (CPU/WALL):        0.04/       0.04 SECONDS.
  @TWOEL-I,     494699 INTEGRALS OF SYMMETRY TYPE  I I I I
  @TWOEL-I,    2026722 INTEGRALS OF SYMMETRY TYPE  I J I J
  @TWOEL-I,    1168295 INTEGRALS OF SYMMETRY TYPE  I I J J
  @TWOEL-I,    1754160 INTEGRALS OF SYMMETRY TYPE  I J K L
  @TWOEL-I, TOTAL NUMBER OF 2-E INTEGRALS    5443876.
  @MOLECU-I, TWO ELECTRON INTEGRALS (CPU/WALL):       23.26/       3.85 SECONDS.
 @CHECKOUT-I, Total execution time (CPU/WALL):       23.32/       3.91 seconds.

Running with 8 threads/proc

--executable xvmol finished with status     0 in        3.93 seconds (walltime).
 --invoking executable--
/home/tsommerfeld/zscale/bin/xvmol2ja
 @GETMEM-I,  Allocated   85830 MB of main memory.
 @CHECKOUT-I, Total execution time (CPU/WALL):        0.07/       0.02 seconds.
--executable xvmol2ja finished with status     0 in        0.04 seconds (walltime).
 --invoking executable--
/home/tsommerfeld/zscale/bin/xvscf
  There are  139 functions in the AO basis.

  There are 4 irreducible representations.

       Irrep        # of functions
         1                 45
         2                 39
         3                 29
         4                 26


  Parameters for SCF calculation: 
        SCF reference function:  RHF  
  Maximum number of iterations:  150
     Full symmetry point group: C2v 
     Computational point group: C2v 
        Initial density matrix: MOREAD                 
     SCF convergence tolerance: 10**(- 7)
  DIIS convergence acceleration:  ON
          Latest start for DIIS:   8
                     DIIS order:   6

  Memory information:     823082 words required.
  Fock matrices are constructed from AO integral file.
 @GETMEM-I,  Allocated       6 MB of main memory.
  Initialization and symmetry analysis required      0.002 seconds.

  @INITGES-I, Occupancies from core Hamiltonian:

          Alpha population by irrep:   4    3    1    1
           Beta population by irrep:   4    3    1    1


 total no. of electrons in initial guess :  0.000000000000000E+000
  --------------------------------------------------------------------
  Iteration         Total Energy            Largest Density Difference
  --------------------------------------------------------------------
       0            34.694781289408560              0.0000000000D+00
   current occupation vector 
     4  3  1  1
     4  3  1  1
       1           -51.711489524274562              0.8749700830D+01
   current occupation vector 
     4  3  1  1
     4  3  1  1
       2           -41.800505651406304              0.3151847110D+02
   current occupation vector 
     5  3  1  0
     5  3  1  0
       3           -68.000535401062848              0.3125744147D+02
   current occupation vector 
     4  3  1  1
     4  3  1  1
       4           -43.879359166264912              0.1243735339D+02
   current occupation vector 
     6  2  1  0
     6  2  1  0
       5           -68.662336693136353              0.1243735329D+02
   current occupation vector 
     4  3  1  1
     4  3  1  1
       6           -44.157871157082134              0.1243700622D+02
   current occupation vector 
     6  2  1  0
     6  2  1  0
       7           -68.754816472216447              0.1243700622D+02
   current occupation vector 
     4  3  1  1
     4  3  1  1
       8           -44.195295394588946              0.1243695443D+02
   current occupation vector 
     6  2  1  0
     6  2  1  0
       9           -73.555141940312097              0.1243695509D+02
   current occupation vector 
     4  3  1  1
     4  3  1  1
      10           -75.819335549950353              0.9234868787D+00
   current occupation vector 
     4  3  1  1
     4  3  1  1
      11           -78.507983506507543              0.1655573997D+01
   current occupation vector 
     5  2  1  1
     5  2  1  1
      12           -78.543542282379008              0.3220249693D+00
   current occupation vector 
     5  2  1  1
     5  2  1  1
      13           -78.546446433206143              0.5831300880D-01
   current occupation vector 
     5  2  1  1
     5  2  1  1
      14           -78.546594566710581              0.1700432711D-01
   current occupation vector 
     5  2  1  1
     5  2  1  1
      15           -78.546604377990406              0.5627423618D-02
   current occupation vector 
     5  2  1  1
     5  2  1  1
      16           -78.546604916621874              0.1947021825D-02
   current occupation vector 
     5  2  1  1
     5  2  1  1
      17           -78.546604925093334              0.1906755460D-03
   current occupation vector 
     5  2  1  1
     5  2  1  1
      18           -78.546604925318206              0.4039474347D-04
   current occupation vector 
     5  2  1  1
     5  2  1  1
      19           -78.546604925324203              0.2902553783D-05
   current occupation vector 
     5  2  1  1
     5  2  1  1
      20           -78.546604925324942              0.4613865063D-06
   current occupation vector 
     5  2  1  1
     5  2  1  1
      21           -78.546604925325170              0.1418299629D-06
   current occupation vector 
     5  2  1  1
     5  2  1  1

  SCF has converged.

 Density matrix saved to file den.dat
 total electron number:   18.0000000000000     
     E(SCF)=       -78.546604925324999              0.1320991035D-07


  Final occupancies:

     Alpha population by irrep:   5    2    1    1
      Beta population by irrep:   5    2    1    1


  Eigenvector printing suppressed.

 @PUTMOS-I, Writing converged MOs to NEWMOS. 
 @PUTMOS-I, Symmetry   1 Full Blocks 11 Partial Blocksize   1
 @PUTMOS-I, Symmetry   2 Full Blocks  9 Partial Blocksize   3
 @PUTMOS-I, Symmetry   3 Full Blocks  7 Partial Blocksize   1
 @PUTMOS-I, Symmetry   4 Full Blocks  6 Partial Blocksize   2
 @PUTFOCK-I, Writing converged Fock matrix to NEWFOCK. 
 @PUTFOCK-I, Symmetry   1 Full Blocks 11 Partial Blocksize   1
 @PUTFOCK-I, Symmetry   2 Full Blocks  9 Partial Blocksize   3
 @PUTFOCK-I, Symmetry   3 Full Blocks  7 Partial Blocksize   1
 @PUTFOCK-I, Symmetry   4 Full Blocks  6 Partial Blocksize   2


 
  ORBITAL EIGENVALUES (ALPHA)  (1H = 27.2113834 eV)

       MO #        E(hartree)               E(eV)           FULLSYM    COMPSYM
       ----   --------------------   --------------------   -------   ---------
    1     1         -11.1572882587        -303.6052485120      A1        A1 (1)
    2    46         -11.1555242204        -303.5572465889      B1        B1 (2)
    3     2          -0.9689297463         -26.3659188140      A1        A1 (1)
    4    47          -0.7111282175         -19.3507825722      B1        B1 (2)
    5    85          -0.5904115032         -16.0659137767      B2        B2 (3)
    6     3          -0.4974729480         -13.5369271205      A1        A1 (1)
    7   114          -0.4460654980         -12.1380592866      A2        A2 (4)
    8     4          -0.3073452874          -8.3632904529      A1        A1 (1)
    9     5          -0.0452130814          -1.2303104913      A1        A1 (1)
  +++++++++++++++++++++++++++++++++++++++++++++++++++++++++++++++++++++++++++++
   10    48           0.2240417693           6.0964864813      B1        B1 (2)
   11     6           0.2241920063           6.1005746398      A1        A1 (1)
   12     7           0.2436616441           6.6303704165      A1        A1 (1)
   13    86           0.2522630637           6.8644269429      B2        B2 (3)
   14    49           0.2597724077           7.0687665834      B1        B1 (2)
   15   115           0.3061470011           8.3306834238      A2        A2 (4)
   16    50           0.4227583273          11.5038389284      B1        B1 (2)
   17     8           0.4284587563          11.6589554874      A1        A1 (1)
   18    87           0.4496924800          12.2367544852      E         B2 (3)
   19    51           0.4497001475          12.2369631278      E         B1 (2)
   20     9           0.4498420617          12.2408248099      A1        A1 (1)
   21    10           0.5164409355          14.0530723004      A1        A1 (1)
   22    88           0.5403795182          14.7044742525      B2        B2 (3)
   23    11           0.5502890439          14.9741261537      A1        A1 (1)
   24    52           0.6342762854          17.2595351822      B1        B1 (2)
   25    53           0.6593258634          17.9411688549      B1        B1 (2)
   26    89           0.6649981143          18.0955186495      B2        B2 (3)
   27    12           0.6939252634          18.8826663934      A1        A1 (1)
   28    54           0.7076659949          19.2565707076      B1        B1 (2)
   29    90           0.7365102241          20.0414620854      B2        B2 (3)
   30   116           0.7620228131          20.7356949268      A2        A2 (4)
   31    13           0.7837628131          21.3272704027      A1        A1 (1)
   32    55           0.8536530597          23.2290806982      B1        B1 (2)
   33   117           0.8973315866          24.4176338407      A2        A2 (4)
   34    14           0.9655651561          26.2743636597      A1        A1 (1)
   35   118           0.9730155394          26.4770988967      A2        A2 (4)
   36    15           1.0547933766          28.7023869792      A1        A1 (1)
   37   119           1.0899469860          29.6589653226      A2        A2 (4)
   38   120           1.1024162376          29.9982709086      E         A2 (4)
   39    16           1.1024162426          29.9982710446      E         A1 (1)
   40    91           1.1024660144          29.9996254022      E         B2 (3)
   41    56           1.1024692351          29.9997130427      E         B1 (2)
   42    17           1.1024935106          30.0003736121      A1        A1 (1)
   43    92           1.1061945646          30.1010844122      B2        B2 (3)
   44    18           1.2512001465          34.0468868953      A1        A1 (1)
   45    57           1.2516035696          34.0578645974      B1        B1 (2)
   46    19           1.2980473574          35.3216643126      A1        A1 (1)
   47    93           1.3233622950          36.0105187865      B2        B2 (3)
   48    94           1.3387160983          36.4283170155      E         B2 (3)
   49    58           1.3387190812          36.4283981832      E         B1 (2)
   50    20           1.3387761098          36.4299500100      A1        A1 (1)
   51    59           1.3903542504          37.8334625706      B1        B1 (2)
   52    95           1.4138841300          38.4737431443      B2        B2 (3)
   53    60           1.4332650386          39.0011244779      B1        B1 (2)
   54    96           1.5321361196          41.6915433723      B2        B2 (3)
   55    61           1.5467490606          42.0891817126      B1        B1 (2)
   56    21           1.5760507910          42.8865223306      A1        A1 (1)
   57    62           1.6018775889          43.5893052316      B1        B1 (2)
   58   121           1.6658048673          45.3288549145      A2        A2 (4)
   59   122           1.7051533249          46.3995808792      A2        A2 (4)
   60    63           1.8688005747          50.8526489368      B1        B1 (2)
   61    22           1.9207442541          52.2661083106      A1        A1 (1)
   62   123           2.0391243779          55.4873952481      A2        A2 (4)
   63    23           2.3555322262          64.0972905185      A1        A1 (1)
   64    24           2.4339056268          66.2299391693      A1        A1 (1)
   65    25           2.6170764900          71.2142717555      A1        A1 (1)
   66    64           2.6337946069          71.6691948459      B1        B1 (2)
   67    97           2.6928560387          73.2763381088      B2        B2 (3)
   68    98           2.7779080285          75.5907204146      B2        B2 (3)
   69    65           2.8101238759          76.4673581897      B1        B1 (2)
   70    26           2.8308219742          77.0305820782      A1        A1 (1)
   71   124           2.9106466087          79.2027208124      A2        A2 (4)
   72    27           2.9773078467          81.0166653153      A1        A1 (1)
   73    99           2.9850497649          81.2273336211      B2        B2 (3)
   74   125           3.1336991475          85.2722889641      A2        A2 (4)
   75    28           3.1658007599          86.1458182453      A1        A1 (1)
   76   100           3.1760177964          86.4238379434      B2        B2 (3)
   77    29           3.1780208080          86.4783426601      A1        A1 (1)
   78   101           3.1900499884          86.8056732999      B2        B2 (3)
   79   126           3.2222643208          87.6822698498      A2        A2 (4)
   80    30           3.2478273778          88.3778759935      A1        A1 (1)
   81    66           3.2980745979          89.7451723665      B1        B1 (2)
   82    67           3.3352828820          90.7576612485      B1        B1 (2)
   83   102           3.4069713446          92.7084034897      B2        B2 (3)
   84    68           3.4713381113          94.4599122588      B1        B1 (2)
   85    69           3.4951037681          95.1066086574      B1        B1 (2)
   86   127           3.4957565360          95.1243713741      A2        A2 (4)
   87   128           3.5166279999          95.6923127797      A2        A2 (4)
   88    70           3.5227518052          95.8589499944      B1        B1 (2)
   89    31           3.6197443884          98.4982523628      A1        A1 (1)
   90    32           3.6453644518          99.1954097313      A1        A1 (1)
   91   103           3.7108935353         100.9785467454      B2        B2 (3)
   92   104           3.7916838879         103.1769640064      B2        B2 (3)
   93   129           3.8851419322         105.7200866806      A2        A2 (4)
   94    71           3.9454377647         107.3608196974      B1        B1 (2)
   95   130           3.9811802794         108.3334229668      A2        A2 (4)
   96    72           4.0376458698         109.8699297958      B1        B1 (2)
   97   131           4.0462266168         110.1034237943      A2        A2 (4)
   98    33           4.0761446654         110.9175352828      A1        A1 (1)
   99   105           4.0808778238         111.0463310716      B2        B2 (3)
  100    34           4.1263719778         112.2842899381      A1        A1 (1)
  101    35           4.2165140758         114.7371811288      E         A1 (1)
  102   132           4.2165140777         114.7371811803      E         A2 (4)
  103   106           4.2165261872         114.7375106960                B2 (3)
  104    73           4.2165269226         114.7375307084                B1 (2)
  105    36           4.2165321351         114.7376725459                A1 (1)
  106    74           4.2537436846         115.7502502876      B1        B1 (2)
  107   133           4.2606567350         115.9383639525      A2        A2 (4)
  108    37           4.2619130328         115.9725495519      A1        A1 (1)
  109   107           4.2714351802         116.2316603561      B2        B2 (3)
  110    38           4.3987850844         119.6970274254      A1        A1 (1)
  111    75           4.4195862301         120.2630553765      B1        B1 (2)
  112   108           4.4445964762         120.9436187733      E         B2 (3)
  113    76           4.4445973502         120.9436425548      E         B1 (2)
  114    39           4.4446139063         120.9440930684      A1        A1 (1)
  115   109           4.5389690249         123.5116263784      B2        B2 (3)
  116    77           4.5750674471         124.4939143836      B1        B1 (2)
  117   134           4.6757994536         127.2349716346      A2        A2 (4)
  118    40           4.7107481807         128.1859748457      A1        A1 (1)
  119    78           4.8271782858         131.3541990750      B1        B1 (2)
  120    79           4.8829927559         132.8729880198      B1        B1 (2)
  121    41           4.9974894717         135.9886020524      A1        A1 (1)
  122    42           5.0433277357         137.2359246292      A1        A1 (1)
  123   135           5.0971680792         138.7009948583      A2        A2 (4)
  124   110           5.1965036987         141.4040544836      B2        B2 (3)
  125   111           5.2860718745         143.8413284581      B2        B2 (3)
  126    43           5.3685496982         146.0856641396      A1        A1 (1)
  127    80           5.3737660459         146.2276081765      B1        B1 (2)
  128   136           5.4961450040         149.5577089269      A2        A2 (4)
  129   137           5.5115609806         149.9771989745      A2        A2 (4)
  130    81           5.6068392792         152.5698532881      B1        B1 (2)
  131    44           5.6320860186         153.2568519949      A1        A1 (1)
  132   112           5.6867268955         154.7437058435      B2        B2 (3)
  133    82           6.0262676573         163.9830796940      B1        B1 (2)
  134   138           6.1620728603         167.6785271414      A2        A2 (4)
  135   113           6.3398609298         172.5163864623      B2        B2 (3)
  136    83           6.5791871515         179.0287840406      B1        B1 (2)
  137   139           6.9426562774         188.9192817785      A2        A2 (4)
  138    45          11.9665692256         325.6269031800      A1        A1 (1)
  139    84          14.8186128247         403.2349550293      B1        B1 (2)


  VSCF finished.

 @CHECKOUT-I, Total execution time (CPU/WALL):        9.58/       1.21 seconds.
--executable xvscf finished with status     0 in        1.23 seconds (walltime).
 --invoking executable--
/home/tsommerfeld/zscale/bin/xvtran
 @GETMEM-I,  Allocated   85830 MB of main memory.
  Full RHF integral transformation
  Transformation of IIII integrals :
  1 pass through the AO integral file was required.
      494699 AO integrals were read.
      997322 MO integrals were written to HF2.
  Transformation of IIJJ integrals :
  1 pass through the AO integral file was required.
     1168295 AO integrals were read.
     2386571 MO integrals were written to HF2.
  Transformation of IJIJ integrals :
  1 pass through the AO integral file was required.
     2026722 AO integrals were read.
     4517468 MO integrals were written to HF2.
  Transformation of IJKL integrals :
  1 pass through the AO integral file was required.
     1754160 AO integrals were read.
     3969804 MO integrals were written to HF2.
  Summary of active molecular orbitals: 
------------------------------------------------------------------------
 
  Index      Eigenvalue    Symmetry    Index      Eigenvalue    Symmetry
------------------------------------------------------------------------
     1       -11.1572883        1        71         3.4951038        2
     2        -0.9689297        1        72         3.5227518        2
     3        -0.4974729        1        73         3.9454378        2
     4        -0.3073453        1        74         4.0376459        2
     5        -0.0452131        1        75         4.2165269        2
     6       -11.1555242        2        76         4.2537437        2
     7        -0.7111282        2        77         4.4195862        2
     8        -0.5904115        3        78         4.4445974        2
     9        -0.4460655        4        79         4.5750674        2
    10         0.2241920        1        80         4.8271783        2
    11         0.2436616        1        81         4.8829928        2
    12         0.4284588        1        82         5.3737660        2
    13         0.4498421        1        83         5.6068393        2
    14         0.5164409        1        84         6.0262677        2
    15         0.5502890        1        85         6.5791872        2
    16         0.6939253        1        86        14.8186128        2
    17         0.7837628        1        87         0.2522631        3
    18         0.9655652        1        88         0.4496925        3
    19         1.0547934        1        89         0.5403795        3
    20         1.1024162        1        90         0.6649981        3
    21         1.1024935        1        91         0.7365102        3
    22         1.2512001        1        92         1.1024660        3
    23         1.2980474        1        93         1.1061946        3
    24         1.3387761        1        94         1.3233623        3
    25         1.5760508        1        95         1.3387161        3
    26         1.9207443        1        96         1.4138841        3
    27         2.3555322        1        97         1.5321361        3
    28         2.4339056        1        98         2.6928560        3
    29         2.6170765        1        99         2.7779080        3
    30         2.8308220        1       100         2.9850498        3
    31         2.9773078        1       101         3.1760178        3
    32         3.1658008        1       102         3.1900500        3
    33         3.1780208        1       103         3.4069713        3
    34         3.2478274        1       104         3.7108935        3
    35         3.6197444        1       105         3.7916839        3
    36         3.6453645        1       106         4.0808778        3
    37         4.0761447        1       107         4.2165262        3
    38         4.1263720        1       108         4.2714352        3
    39         4.2165141        1       109         4.4445965        3
    40         4.2165321        1       110         4.5389690        3
    41         4.2619130        1       111         5.1965037        3
    42         4.3987851        1       112         5.2860719        3
    43         4.4446139        1       113         5.6867269        3
    44         4.7107482        1       114         6.3398609        3
    45         4.9974895        1       115         0.3061470        4
    46         5.0433277        1       116         0.7620228        4
    47         5.3685497        1       117         0.8973316        4
    48         5.6320860        1       118         0.9730155        4
    49        11.9665692        1       119         1.0899470        4
    50         0.2240418        2       120         1.1024162        4
    51         0.2597724        2       121         1.6658049        4
    52         0.4227583        2       122         1.7051533        4
    53         0.4497001        2       123         2.0391244        4
    54         0.6342763        2       124         2.9106466        4
    55         0.6593259        2       125         3.1336991        4
    56         0.7076660        2       126         3.2222643        4
    57         0.8536531        2       127         3.4957565        4
    58         1.1024692        2       128         3.5166280        4
    59         1.2516036        2       129         3.8851419        4
    60         1.3387191        2       130         3.9811803        4
    61         1.3903543        2       131         4.0462266        4
    62         1.4332650        2       132         4.2165141        4
    63         1.5467491        2       133         4.2606567        4
    64         1.6018776        2       134         4.6757995        4
    65         1.8688006        2       135         5.0971681        4
    66         2.6337946        2       136         5.4961450        4
    67         2.8101239        2       137         5.5115610        4
    68         3.2980746        2       138         6.1620729        4
    69         3.3352829        2       139         6.9426563        4
    70         3.4713381        2
------------------------------------------------------------------------
  -11.1572882587087      -0.968929746292668      -0.497472948048402     
 -0.307345287447384      -4.521308135082280E-002  -11.1555242203856     
 -0.711128217471881      -0.590411503177726      -0.446065497962302     
  0.224192006341665       0.243661644064361       0.428458756250124     
  0.449842061683839       0.516440935536974       0.550289043875623     
  0.693925263402159       0.783762813127384       0.965565156075650     
   1.05479337662861        1.10241624262964        1.10249351056984     
   1.25120014645561        1.29804735736542        1.33877610978232     
   1.57605079095553        1.92074425406122        2.35553222621034     
   2.43390562676563        2.61707648996439        2.83082197424199     
   2.97730784665840        3.16580075988703        3.17802080801698     
   3.24782737776902        3.61974438840077        3.64536445182430     
   4.07614466535513        4.12637197776775        4.21651407582653     
   4.21653213507196        4.26191303275885        4.39878508438512     
   4.44461390626825        4.71074818069252        4.99748947171886     
   5.04332773574471        5.36854969819571        5.63208601863793     
   11.9665692255821       0.224041769273841       0.259772407725977     
  0.422758327252619       0.449700147470179       0.634276285352072     
  0.659325863413715       0.707665994943804       0.853653059703845     
   1.10246923508751        1.25160356960772        1.33871908119043     
   1.39035425044255        1.43326503855531        1.54674906063795     
   1.60187758890576        1.86880057471847        2.63379460692420     
   2.81012387594120        3.29807459794684        3.33528288196185     
   3.47133811134524        3.49510376813008        3.52275180520148     
   3.94543776474890        4.03764586977308        4.21652692264012     
   4.25374368462128        4.41958623009718        4.44459735019608     
   4.57506744708912        4.82717828579773        4.88299275588490     
   5.37376604588737        5.60683927918620        6.02626765730591     
   6.57918715152764        14.8186128247080       0.252263063659057     
  0.449692479993623       0.540379518245035       0.664998114337530     
  0.736510224077360        1.10246601435924        1.10619456459618     
   1.32336229500732        1.33871609833253        1.41388412998956     
   1.53213611963103        2.69285603865185        2.77790802854162     
   2.98504976491341        3.17601779641055        3.19004998841243     
   3.40697134456275        3.71089353529122        3.79168388794398     
   4.08087782378737        4.21652618719731        4.27143518017795     
   4.44459647624127        4.53896902494291        5.19650369865339     
   5.28607187454287        5.68672689546166        6.33986092975649     
  0.306147001102893       0.762022813100739       0.897331586628373     
  0.973015539396341        1.08994698603295        1.10241623763199     
   1.66580486733159        1.70515332488267        2.03912437792919     
   2.91064660874426        3.13369914754594        3.22226432081505     
   3.49575653599903        3.51662799987236        3.88514193220210     
   3.98118027938365        4.04622661684700        4.21651407771724     
   4.26065673502279        4.67579945364504        5.09716807923565     
   5.49614500404069        5.51156098056067        6.16207286033799     
   6.94265627739208     
 @CHECKOUT-I, Total execution time (CPU/WALL):       11.41/       2.02 seconds.
--executable xvtran finished with status     0 in        2.04 seconds (walltime).
 --invoking executable--
/home/tsommerfeld/zscale/bin/xintprc
 @GETMEM-I,  Allocated   85830 MB of main memory.
  Processing integrals for CCSD calculation.
  @GMOIAA-I, Processing MO integrals for spin case AA.
  @GMOIAA-I, Generation of integral list completed.
                      TYPE                NUMBER
                      ----               --------
                      PPPP               9084360
                      PPPH               2501595
                      PPHH                173538
                      PHPH                 97627
                      PHHH                 13713
                      HHHH                   332

                     TOTAL              11871165

  @FORMT2-I, Second-order MP correlation energies:
            ------------------------------------------------
            E(SCF)                  =    -78.546604925325 a.u.
            E2(AA)                  =     -0.037955185836 a.u.
            E2(AB)                  =     -0.319275095641 a.u.
            E2(TOT)                 =     -0.395185467313 a.u.
            Total MP2 energy        =    -78.941790392638 a.u.
            ------------------------------------------------
   Largest T2 amplitudes for spin case AB:
       _       _                 _       _                 _       _
   i   j   a   b             i   j   a   b             i   j   a   b
-----------------------------------------------------------------------------
[  4   4  50  50]-0.08265 [  5   5  11  11]-0.07732 [  5   5  17  17]-0.04751
[  5   5  17  11] 0.04192 [  5   5  11  17] 0.04192 [  5   5  88  88]-0.04091
[  5   5  53  53]-0.04091 [  5   5  13  13]-0.04089 [  4   4  54  50]-0.03674
[  4   4  50  54]-0.03674 [  4   4  14  14]-0.03049 [  4   4  15  15]-0.02681
[  4   3  50  57] 0.02650 [  3   4  57  50] 0.02650 [  4   4  54  54]-0.02626
-----------------------------------------------------------------------------
   Norm of T2AB vector (   345906 symmetry allowed elements):  0.3321906730.
-----------------------------------------------------------------------------
 @CHECKOUT-I, Total execution time (CPU/WALL):        4.12/       2.83 seconds.
--executable xintprc finished with status     0 in        2.85 seconds (walltime).
  calling xvcc 
 --invoking executable--
/home/tsommerfeld/zscale/bin/xvcc
 @GETMEM-I,  Allocated   85830 MB of main memory.
   CCSD energy will be calculated.
   The total correlation energy is -0.395185467313 a.u.
   The total correlation energy is -0.415077493104 a.u.
  Convergence information after     1 iterations: 
  Largest element of residual vector : -0.27217308E-01.
  Largest element of DIIS residual   : -0.27217308E-01.
   The total correlation energy is -0.426240916746 a.u.
  Convergence information after     2 iterations: 
  Largest element of residual vector : -0.12645811E-01.
  Largest element of DIIS residual   : -0.10650978E-01.
   The total correlation energy is -0.429143838226 a.u.
  Convergence information after     3 iterations: 
  Largest element of residual vector : -0.67425915E-02.
  Largest element of DIIS residual   : -0.56463578E-02.
   The total correlation energy is -0.430767854407 a.u.
  Convergence information after     4 iterations: 
  Largest element of residual vector : -0.33983240E-02.
  Largest element of DIIS residual   : -0.19663516E-02.
   The total correlation energy is -0.430941489464 a.u.
  Convergence information after     5 iterations: 
  Largest element of residual vector : -0.99420055E-03.
  Largest element of DIIS residual   : -0.35364528E-03.
   The total correlation energy is -0.430946700491 a.u.
  Convergence information after     6 iterations: 
  Largest element of residual vector :  0.24500906E-03.
  Largest element of DIIS residual   :  0.19889434E-03.
   The total correlation energy is -0.430937795030 a.u.
  Convergence information after     7 iterations: 
  Largest element of residual vector :  0.10849496E-03.
  Largest element of DIIS residual   :  0.75407570E-04.
   The total correlation energy is -0.430934217950 a.u.
  Convergence information after     8 iterations: 
  Largest element of residual vector : -0.71785107E-04.
  Largest element of DIIS residual   :  0.26914854E-04.
   The total correlation energy is -0.430933665151 a.u.
  Convergence information after     9 iterations: 
  Largest element of residual vector :  0.27403377E-04.
  Largest element of DIIS residual   :  0.11677333E-04.
   The total correlation energy is -0.430933999160 a.u.
  Convergence information after    10 iterations: 
  Largest element of residual vector : -0.12962326E-04.
  Largest element of DIIS residual   :  0.45902784E-05.
   The total correlation energy is -0.430934631285 a.u.
  Convergence information after    11 iterations: 
  Largest element of residual vector :  0.47130137E-05.
  Largest element of DIIS residual   : -0.29468512E-05.
   The total correlation energy is -0.430934961347 a.u.
  Convergence information after    12 iterations: 
  Largest element of residual vector : -0.16463694E-05.
  Largest element of DIIS residual   : -0.14226111E-05.
   The total correlation energy is -0.430935243684 a.u.
  Convergence information after    13 iterations: 
  Largest element of residual vector : -0.94151184E-06.
  Largest element of DIIS residual   :  0.73308169E-06.
   The total correlation energy is -0.430935362613 a.u.
  Convergence information after    14 iterations: 
  Largest element of residual vector : -0.69211910E-06.
  Largest element of DIIS residual   : -0.36034072E-06.
   The total correlation energy is -0.430935397140 a.u.
  Convergence information after    15 iterations: 
  Largest element of residual vector :  0.37735423E-06.
  Largest element of DIIS residual   : -0.20544873E-06.
   The total correlation energy is -0.430935412706 a.u.
  Convergence information after    16 iterations: 
  Largest element of residual vector : -0.13935513E-06.
  Largest element of DIIS residual   :  0.73521310E-07.
   The total correlation energy is -0.430935416684 a.u.
  Convergence information after    17 iterations: 
  Largest element of residual vector :  0.75475778E-07.
  Largest element of DIIS residual   :  0.33243964E-07.
  Amplitude equations converged in    17iterations.
   The total correlation energy is -0.430935419500 a.u.
   The CC iterations have converged.

   Largest T1 amplitudes for spin case AA:
   i       a                 i       a                 i       a    
-----------------------------------------------------------------------------
[  5      11    ]-0.02657 [  4      14    ] 0.02409 [  5      17    ]-0.01558
[  4      18    ]-0.01484 [  4      22    ]-0.00979 [  4      28    ]-0.00946
[  5      10    ] 0.00835 [  8      89    ]-0.00791 [  8      90    ] 0.00618
[  3      12    ] 0.00554 [  5      31    ]-0.00493 [  9     121    ]-0.00448
[  8      97    ]-0.00433 [  4      30    ]-0.00395 [  7      56    ] 0.00393
-----------------------------------------------------------------------------
   Norm of T1AA vector (      327 symmetry allowed elements):  0.0494665565.
-----------------------------------------------------------------------------
   Largest T2 amplitudes for spin case AB:
       _       _                 _       _                 _       _
   i   j   a   b             i   j   a   b             i   j   a   b
-----------------------------------------------------------------------------
[  5   5  11  11]-0.14112 [  4   4  50  50]-0.11607 [  5   5  17  11] 0.08301
[  5   5  11  17] 0.08301 [  5   5  17  17]-0.06407 [  5   5  88  88]-0.05420
[  5   5  53  53]-0.05420 [  5   5  13  13]-0.05416 [  4   4  54  50]-0.05099
[  4   4  50  54]-0.05099 [  5   5  11  10] 0.03570 [  5   5  10  11] 0.03570
[  4   4  54  54]-0.02898 [  4   4  15  15]-0.02609 [  4   4  14  14]-0.02557
-----------------------------------------------------------------------------
   Norm of T2AB vector (   345906 symmetry allowed elements):  0.4178908894.
-----------------------------------------------------------------------------
       Summary of iterative solution of CC equations 
      -----------------------------------------------------------
                       Correlation           Total
       Iteration         Energy              Energy
      -----------------------------------------------------------
            0        -0.395185467313     -78.941790392638  DIIS 
            1        -0.415077493104     -78.961682418429  DIIS 
            2        -0.426240916746     -78.972845842071  DIIS 
            3        -0.429143838226     -78.975748763551  DIIS 
            4        -0.430767854407     -78.977372779732  DIIS 
            5        -0.430941489464     -78.977546414789  DIIS 
            6        -0.430946700491     -78.977551625816  DIIS 
            7        -0.430937795030     -78.977542720355  DIIS 
            8        -0.430934217950     -78.977539143275  DIIS 
            9        -0.430933665151     -78.977538590476  DIIS 
           10        -0.430933999160     -78.977538924485  DIIS 
           11        -0.430934631285     -78.977539556610  DIIS 
           12        -0.430934961347     -78.977539886672  DIIS 
           13        -0.430935243684     -78.977540169009  DIIS 
           14        -0.430935362613     -78.977540287938  DIIS 
           15        -0.430935397140     -78.977540322465  DIIS 
           16        -0.430935412706     -78.977540338031  DIIS 
           17        -0.430935419500     -78.977540344825  DIIS 
      -----------------------------------------------------------
      A miracle has come to pass. The CC iterations have converged.
      The reference energy is       -78.54660492532500 a.u.
      The correlation energy is      -0.43093541949959 a.u.
      The total energy is           -78.97754034482459 a.u.
 @CHECKOUT-I, Total execution time (CPU/WALL):       81.83/      10.25 seconds.
--executable xvcc finished with status     0 in       10.27 seconds (walltime).
  The final electronic energy is       -78.977540344824590 a.u. 
  This computation required                           20.55 seconds (walltime).
