CFour on node02
 --invoking executable--
/home/tsommerfeld/zscale/bin/xjoda


   *************************************************************************
         <<<     CCCCCC     CCCCCC   |||     CCCCCC     CCCCCC   >>>
       <<<      CCC        CCC       |||    CCC        CCC         >>>
      <<<      CCC        CCC        |||   CCC        CCC            >>>
    <<<        CCC        CCC        |||   CCC        CCC              >>>
      <<<      CCC        CCC        |||   CCC        CCC            >>>
       <<<      CCC        CCC       |||    CCC        CCC         >>>
         <<<     CCCCCC     CCCCCC   |||     CCCCCC     CCCCCC   >>>
   *************************************************************************

     ****************************************************************
     * CFOUR Coupled-Cluster techniques for Computational Chemistry *
     ****************************************************************
 

   Department of Chemistry                Institut fuer Physikalische Chemie
   University of Florida                  Universitaet Mainz
   Gainesville, FL 32611, USA             D-55099 Mainz, Germany

   Department of Chemistry                Department of Chemistry
   Johns Hopkins University               Southern Methodist University
   Baltimore, MD 21218, USA               Dallas, TX 75275, USA

   Institute of Nanotechnology            Department of Physical Chemistry
   Karlsruhe Inst. of Technology          Eotvos Lorand University
   D-76021 Karlsruhe, Germany             H-1053 Budapest, Hungary

 
                       Version 2.1
 
                     node02                                            
                     Thu Mar 31 14:02:52 CST 2022                      
                     integer*8 version is running
 
********************************************************************************
*                          Input from ZMAT file                                *
********************************************************************************
h_ethylene                                                                      
C       0.000000      0.0   -0.664500                                           
C       0.000000      0.0    0.664500                                           
H       0.962348      0.0   -1.159080                                           
H       0.962348      0.0    1.159080                                           
H      -0.962348      0.0   -1.159080                                           
H      -0.962348      0.0    1.159080                                           
H      0.000000      6.0      0.000000                                          
                                                                                
*CFOUR(CALC=CCSD                                                                
#EXCITE=EOMEE                                                                   
#ESTATE_SYM=0/3/0/0                                                             
CC_PROG=VCC                                                                     
CHARGE=-1                                                                       
COORDINATES=CARTESIAN                                                           
BASIS=SPECIAL                                                                   
REFERENCE=RHF                                                                   
MEM_SIZE=90,MEM_UNIT=GB)                                                        
                                                                                
C:cc-pVTZ                                                                       
C:cc-pVTZ                                                                       
H:cc-pVTZ                                                                       
H:cc-pVTZ                                                                       
H:cc-pVTZ                                                                       
H:cc-pVTZ                                                                       
H:aug-cc-pVTZ                                                                   
                                                                                
********************************************************************************
  @GTFLGS-W, Keyword #EXCITE not known and is ignored.
  @GTFLGS-W, Keyword #ESTATE_SYM not known and is ignored.
    -------------------------------------------------------------------
                    CFOUR Control Parameters 
    -------------------------------------------------------------------
        External           Internal           Value            Units
          Name               Name
    -------------------------------------------------------------------
       ABCDTYPE             IABCDT         STANDARD    [  0]    ***   
       ANHARMONIC           IANHAR         OFF         [  0]    ***   
       ANH_ALGORIT          IANALG         STANDARD    [  0]    ***   
       ANH_DERIVAT          IANDER         SECOND      [  1]    ***   
       ANH_MODE             ANHMOD         VIBRATION   [  0]    ***   
       ANH_STEPSIZ          ICUBST             50000          x 10-6  
       ANH_SYMMETR          IANHSM         ABELIAN     [  0]    ***   
       AO_LADDERS           IAOLAD         SINGLEPASS  [  1]    ***   
       AV_SCF               IAVSCF         OFF         [  0]    ***   
       BASIS                IBASIS         SPECIAL     [  0]    ***   
       BOTHVECTORS          BOTHVC         OFF         [  0]    ***   
       BOX_POTENT           IPIAB          OFF         [  0]    ***   
       BREIT                IBREIT         OFF         [  0]    ***   
       BRUCK_CONV           IBRTOL          10D-  4             ***   
       BRUECKNER            IBRKNR         OFF         [  0]    ***   
       BUFFERSIZE           IBUFFS              4096            ***   
       CACHE_RECS           ICHREC             10               ***   
       CALCLEVEL            ICLLVL         CCSD        [ 10]    ***   
       CCORBOPT             ICCORB         OFF         [  0]  x 0.01  
       CC_CONV              ICCCNV          10D-  7             ***   
       CC_EXPORDER          ICCEOR              5               ***   
       CC_EXTRAPOL          ICCEXT         DIIS        [  1]    ***   
       CC_GUESS             ICCGES         MP2         [  0]    ***   
       CC_MAXCYC            ICCCYC            100              cycles 
       CC_PROGRAM           ICCPRO         VCC         [  0]    ***   
       CHARGE               ICHRGE             -1               ***   
       CHOLESKY             ICHOLE         OFF         [  0]    ***   
       CIS_CONV             ICISTL              5               ***   
       COMM_SIZE            IPSIZE            ***               ***   
       CONSTANT             ICONST         OLD         [  1]    ***   
       CONTINUUM            ICONTU         NONE        [  0]    ***   
       CONTRACTION          ICNTYP         GENERAL     [  1]    ***   
       COORDINATES          ICOORD         CARTESIAN   [  1]    ***   
       CPHF_CONVER          ICPHFT          10D- 16             ***   
       CPHF_MAXCYC          ICPHFC             64              cycles 
       CUBIC                ICUBIC         OFF         [  0]    ***   
       CURVILINEAR          ICURVY         OFF         [  0]    ***   
       DBOC                 IDBOC          OFF         [  0]    ***   
       DCT                  IDCT           OFF         [  0]    ***   
       DERIV_LEV            IDRLVL         ZERO        [  0]    ***   
       DEVMEM_SIZE          IDVMEM         *********           MByte  
       DIAG_MRCC            IEOMST          10D-  0             ***   
       DIFF_TYPE            IDIFTY         RELAXED     [  0]    ***   
       DIRECT               IDIRCT         OFF         [  0]    ***   
       DROPMO               IDRPMO      NONE         
       ECP                  IECP           OFF         [  0]    ***   
       EIGENVECTOR          IVEC                1               ***   
       EL_ANHARM            IELANH         OFF         [  0]    ***   
       EOMFOLLOW            IEOMSR         ENERGY      [  0]    ***   
       EOMIP                IEOMIP         OFF         [  0]    ***   
       EOMLEVEL             HBARFM         SAME        [  0]    ***   
       EOM_MRCC             IMRCCE         NEW         [  1]    ***   
       EOM_NONIT            EOMNON         OFF         [  0]    ***   
       EOM_NSING            IEOMSI          10D-  0             ***   
       EOM_NSTATES          IMRCCD         DAVIDSON    [  0]    ***   
       EOM_NTRIP            IEOMTR          10D-  0             ***   
       EOM_ORDER            IEXORD         ENERGY      [  0]    ***   
       EOM_PROPSTA          IEOMST              0               ***   
       ESTATE_CONV          IEXTOL          10D-  5             ***   
       ESTATE_DIAG          IEXDIG         ITERATIVE   [  0]    ***   
       ESTATE_LOCK          IESLOC         ON          [  1]    ***   
       ESTATE_MAXC          IEXMXC             40               ***   
       ESTATE_PROP          IEXPRP         OFF         [  0]    ***   
       EVAL_HESS            IRECAL              0            # of cyc.
       EXCITATION           IEXCIT              0               ***   
       EXCITE               IEXCIT         NONE        [  0]    ***   
       EXTERN_POT           IEXPOT         OFF         [  0]    ***   
       FCGRADNEW            IFCGNW         OFF         [  0]    ***   
       FC_FIELD             IFINFC              0             x 10-6  
       FD_CALTYPE           IFDCAL         GRADONLY    [  0]    ***   
       FD_PROJECT           IFDPRJ         OFF         [  1]    ***   
       FD_STEPSIZE          IDISFD              0            10-4 bohr
       FD_USEGROUP          IFDGRP         FULL        [  0]    ***   
       FILE_RECSIZ          IFLREC              4096           words  
       FINITE_PERT          IFIPER              0             x 10-6  
       FIXGEOM              IFIXGM         OFF         [  0]    ***   
       FOCK                 IFOCK          AO          [  1]    ***   
       FREQ_ALGORI          IVIALG         STANDARD    [  0]    ***   
       FROZEN_CORE          IFROCO         OFF         [  0]    ***   
       GAMMA_ABCD           IGABCD         STORE       [  0]    ***   
       GAMMA_ABCI           IGABCI         STORE       [  0]    ***   
       GENBAS_1             IGNBS1              0               ***   
       GENBAS_2             IGNBS2              0               ***   
       GENBAS_3             IGNBS3              0               ***   
       GENBAS_4             IGNBS4              0               ***   
       GEO_CONV             ICONTL              5              H/bohr 
       GEO_MAXCYC           IOPTCY             50               ***   
       GEO_MAXSTEP          IMXSTP            300            millibohr
       GEO_METHOD           INR            SINGLE_POINT[  5]    ***   
       GIAO                 IGIAO          OFF         [  1]    ***   
       GIMIC                IGIMIC         OFF         [  0]    ***   
       GRID                 IGRID          OFF         [  0]    ***   
       GRID_ALGO            IGALGO         SERIAL      [  0]    ***   
       GUESS                IGUESS         MOREAD      [  0]    ***   
       HBAR                 IHBAR          OFF         [  0]    ***   
       HESS_TYPE            IHESTP         SCF         [  0]    ***   
       HF2_FILE             IHF2Fl         USE         [  1]    ***   
       HFSTABILITY          ISTABL         OFF         [  0]    ***   
       INCORE               INCORE         OFF         [  0]    ***   
       INPUT_MRCC           IMRCC          ON          [  1]    ***   
       INTEGRALS            INTTYP         VMOL        [  1]    ***   
       JODA_PRINT           IJPRNT              0               ***   
       KEYWORD_OUT          IDMPKW         NO          [  0]    ***   
       LINDEP_TOL           ILINDP              8               ***   
       LINEQ_CONV           IZTACN          10D-  7           cycles  
       LINEQ_EXPOR          ILMAXD              5               ***   
       LINEQ_MAXCY          ILMAXC            100               ***   
       LINEQ_TYPE           ILTYPE         DIIS        [  1]    ***   
       LOCK_ORBOCC          ILOCOC         OFF         [  0]    ***   
       MEMORY_SIZE          IMEMSZ         *********           words  
       MEM_UNIT             IMEMU          GB          [  3]    ***   
       MRCC                 IMRCCC         OFF         [  0]    ***   
       MULTIPLICTY          IMULTP              1               ***   
       NACOUPLING           IVCOUP         OFF         [  0]    ***   
       NEGEVAL              IDIE           ABORT       [  0]    ***   
       NEWNORM              INEWNO         OFF         [  0]    ***   
       NON-HF               INONHF         OFF         [  0]    ***   
       NTOP_TAMP            ITOPT2             15               ***   
       NUC_MODEL            INUCMO         POINT       [  0]    ***   
       OCCUPATION           IOCCU   ESTIMATED BY SCF 
       OPEN-SHELL           IOPEN          SPIN-ORBITAL[  0]    ***   
       OPTVIB               IOPTVB         OFF         [  0]    ***   
       ORBITALS             IORBTP         STANDARD    [  0]    ***   
       PARALLEL             IPARAL         ON          [  1]    ***   
       PARA_INT             IPINTS         ON          [  1]    ***   
       PARA_PRINT           IPPRIN              0               ***   
       PERT_ORB             IPTORB         STANDARD    [  0]    ***   
       POINTS               IGRDFD              0               ***   
       PRINT                IPRNT               0               ***   
       PROPS                IPROPS         OFF         [  0]    ***   
       PROP_INTEGR          IINTYP         INTERNAL    [  0]    ***   
       PSI                  IPSI           OFF         [  0]    ***   
       QC_ALG               IQCALG         FLM         [  0]    ***   
       QC_LINALG            IQCLIN         TRIDIAG     [  2]    ***   
       QC_MAXCYC            IQCMAX          10D-100           cycles  
       QC_MAXSCFCY          IQCMSC          10D- 15           cycles  
       QC_RTRUST            IQCRTR          10D-  0           x 10-3  
       QC_SKIPSCF           IQCSKI         OFF         [  0]    ***   
       QC_START             IQCSTA          10D-  1             ***   
       QRHFGUESS            IQGUES         OFF         [  0]    ***   
       QUARTIC              IQUART         OFF         [  0]    ***   
       RAMAN_INT            IRAMIN         OFF         [  0]    ***   
       RAMAN_ORB            IRAMRE         UNRELAXED   [  0]    ***   
       RDO                  IRDOFM         OFF         [  0]    ***   
       REDUCE_REPR          REDREP         Ir          [  0]    ***   
       REFERENCE            IREFNC         RHF         [  0]    ***   
       RELATIVIST           IRELAT         OFF         [  0]    ***   
       RELAX_DENS           IRDENS         OFF         [  0]    ***   
       RESET_FLAGS          IRESET         OFF         [  0]    ***   
       RESTART_CC           ICCRES         OFF         [  0]    ***   
       ROT_EVEC             ROTVEC              0               ***   
       SAVE_INTS            ISVINT         OFF         [  0]    ***   
       SCALE_ON             ISTCRT              0               ***   
       SCF_CONV             ISCFCV          10D-  7             ***   
       SCF_DAMPING          IDAMP               0             x 10-3  
       SCF_EXPORDE          IRPPOR              6               ***   
       SCF_EXPSTAR          IRPPLS              8               ***   
       SCF_EXTRAPO          IRPP           ON          [  1]    ***   
       SCF_MAXCYC           ISCFCY            150              cycles 
       SCF_NOSTOP           ISCFST         OFF         [  0]    ***   
       SCF_PRINT            ISCFPR              0               ***   
       SCF_PROG             ISCFPR         SCF         [  0]    ***   
       SD_FIELD             IFINSD              0             x 10-6  
       SOPERT               IPERSO         OFF         [  0]    ***   
       SPHERICAL            IDFGHI         ON          [  1]    ***   
       SPINORBIT            ISOCAL         OFF         [  0]    ***   
       SPINROTATIO          ISRCON         OFF         [  0]    ***   
       SPIN_FLIP            ISPFLP         OFF         [  0]    ***   
       SPIN_ORBIT           ISPORB         OFF         [  0]    ***   
       SPIN_SCAL            ISCSMP         OFF         [  0]    ***   
       STEEPSCALE           ISTPSC              1000          x 10-3  
       SUBGROUP             ISUBGP         DEFAULT     [  0]    ***   
       SUBGRPAXIS           ISBXYZ         X           [  0]    ***   
       SYMMETRY             ISYM           ON          [  0]    ***   
       SYM_CHECK            ISYMCK         OVERRIDE    [  1]    ***   
       T3_EXTRAPOL          IT3EXT         OFF         [  0]    ***   
       T4_EXTRAPOL          IT4EXP         OFF         [  0]    ***   
       TAMP_SUM             IEVERY              5               ***   
       TESTSUITE            ITESTS         OFF         [  0]    ***   
       THERMOCH             ITHERM         OFF         [  0]    ***   
       TOL_CHOLESK          ITOLCH          10D-  4             ***   
       TRANGRAD             IRESRM         OFF         [  0]    ***   
       TRANS_INV            ITRAIN         USE         [  0]    ***   
       TREAT_PERT           ITREAT         SIMULTANEOUS[  0]    ***   
       TRIP_ALGORI          ITRALG         NORMAL      [  0]    ***   
       UIJ_THRESHO          IUIJTH              1               ***   
       UNITS                IUNITS         ANGSTROM    [  0]    ***   
       UNOS                 IUNOS          OFF         [  0]    ***   
       UPDATE_HESS          IHUPDT         ON          [  1]    ***   
       VIBPHASE             ISETPH         STANDARD    [  0]    ***   
       VIBRATION            IVIB           NO          [  0]    ***   
       VIB_ALGORIT          IGEALG         STANDARD    [  0]    ***   
       VNATORB              IVNORB         OFF         [  0]    ***   
       VTRAN                IVTRAN         FULL/PARTIAL[  0]    ***   
       XFIELD               IXEFLD              0             x 10-6  
       XFORM_TOL            IXFTOL          10D- 11             ***   
       YFIELD               IYEFLD              0             x 10-6  
       ZFIELD               IZEFLD              0             x 10-6  
       ZSCALE_EXP           IZEXPS         OFF         [  0]    ***   
    -------------------------------------------------------------------
  @GETXYZ-I,     7 atoms read from ZMAT.
   Rotational constants (in cm-1): 
          0.3303094138             0.4349687579             0.8536890782
   Rotational constants (in MHz): 
       9902.4284950949         13040.0371347306         25592.9582983935
********************************************************************************
   The full molecular point group is C2v .
   The largest Abelian subgroup of the full molecular point group is C2v .
   The computational point group is C2v .
********************************************************************************


 ----------------------------------------------------------------
         Coordinates used in calculation (QCOMP) 
 ----------------------------------------------------------------
 Z-matrix   Atomic            Coordinates (in bohr)
  Symbol    Number           X              Y              Z
 ----------------------------------------------------------------
     C         6        -1.25572327     0.00000000    -0.39350642
     C         6         1.25572327     0.00000000    -0.39350642
     H         1        -2.19034422     1.81857454    -0.39350642
     H         1         2.19034422     1.81857454    -0.39350642
     H         1        -2.19034422    -1.81857454    -0.39350642
     H         1         2.19034422    -1.81857454    -0.39350642
     H         1         0.00000000     0.00000000    10.94485270
 ----------------------------------------------------------------
 
   Interatomic distance matrix (Angstroms) 
 
                 C             C             H             H             H    
                [ 1]        [ 2]        [ 3]        [ 4]        [ 5]
  C    [ 1]     0.00000
  C    [ 2]     1.32900     0.00000
  H    [ 3]     1.08200     2.06193     0.00000
  H    [ 4]     2.06193     1.08200     2.31816     0.00000
  H    [ 5]     1.08200     2.06193     1.92470     3.01303     0.00000
  H    [ 6]     2.06193     1.08200     3.01303     1.92470     2.31816
  H    [ 7]     6.03669     6.03669     6.18624     6.18624     6.18624
 
                 H             H    
                [ 6]        [ 7]
  H    [ 6]     0.00000
  H    [ 7]     6.18624     0.00000
 rotcon2
   Rotational constants (in cm-1): 
          0.4349687579             0.3303094138             0.8536890782
   Rotational constants (in MHz): 
      13040.0371347306          9902.4284950949         25592.9582983935
  ECPDATA file not present.   Using default ECPDATA. 
  @GTFLGS-W, Keyword #EXCITE not known and is ignored.
  @GTFLGS-W, Keyword #ESTATE_SYM not known and is ignored.
  There are  139 basis functions.
 @GEOPT-W, Archive file not created for single-point calculation.
 @CHECKOUT-I, Total execution time (CPU/WALL):        0.12/       0.14 seconds.
--executable xjoda finished with status     0 in        0.15 seconds (walltime).
 --invoking executable--
/home/tsommerfeld/zscale/bin/xvmol
 SERIAL VERSION OF MOLECULE STARTED
********************************************************************************
                    INPUT FROM MOL FILE
********************************************************************************
INTGRL        1    0    1    0    0    0    0    0    0                         
         *** CFOUR Program System (Release V0.1) ***                            
h_ethylene                                                                      
    3    2 X  Y       0.10E-08              0    0                              
   9999.00      3.00                                                            
          6.00000000    1    4    1    1    1    1                              
C #1  -1.255723272983657   0.000000000000000  -0.393506419774364                
   10    4                                                                      
   8236.00000000000       5.310000000000000E-004  0.000000000000000E+000        
 -1.130000000000000E-004  0.000000000000000E+000                                
   1235.00000000000       4.108000000000000E-003  0.000000000000000E+000        
 -8.780000000000000E-004  0.000000000000000E+000                                
   280.800000000000       2.108700000000000E-002  0.000000000000000E+000        
 -4.540000000000000E-003  0.000000000000000E+000                                
   79.2700000000000       8.185300000000000E-002  0.000000000000000E+000        
 -1.813300000000000E-002  0.000000000000000E+000                                
   25.5900000000000       0.234817000000000       0.000000000000000E+000        
 -5.576000000000000E-002  0.000000000000000E+000                                
   8.99700000000000       0.434401000000000       0.000000000000000E+000        
 -0.126895000000000       0.000000000000000E+000                                
   3.31900000000000       0.346129000000000       0.000000000000000E+000        
 -0.170352000000000       0.000000000000000E+000                                
  0.905900000000000       3.937800000000000E-002   1.00000000000000             
  0.140382000000000       0.000000000000000E+000                                
  0.364300000000000      -8.983000000000000E-003  0.000000000000000E+000        
  0.598684000000000       0.000000000000000E+000                                
  0.128500000000000       2.385000000000000E-003  0.000000000000000E+000        
  0.395389000000000        1.00000000000000                                     
    5    3                                                                      
   18.7100000000000       0.000000000000000E+000  1.403100000000000E-002        
  0.000000000000000E+000                                                        
   4.13300000000000       0.000000000000000E+000  8.686600000000000E-002        
  0.000000000000000E+000                                                        
   1.20000000000000       0.000000000000000E+000  0.290216000000000             
  0.000000000000000E+000                                                        
  0.382700000000000        1.00000000000000       0.501008000000000             
  0.000000000000000E+000                                                        
  0.120900000000000       0.000000000000000E+000  0.343406000000000             
   1.00000000000000                                                             
    2    2                                                                      
   1.09700000000000        1.00000000000000       0.000000000000000E+000        
  0.318000000000000       0.000000000000000E+000   1.00000000000000             
    1    1                                                                      
  0.761000000000000        1.00000000000000                                     
          1.00000000    1    3    1    1    1                                   
H #2  -2.190344215575466   1.818574537711477  -0.393506419774364                
    5    3                                                                      
   33.8700000000000       0.000000000000000E+000  6.068000000000000E-003        
  0.000000000000000E+000                                                        
   5.09500000000000       0.000000000000000E+000  4.530800000000000E-002        
  0.000000000000000E+000                                                        
   1.15900000000000       0.000000000000000E+000  0.202822000000000             
  0.000000000000000E+000                                                        
  0.325800000000000        1.00000000000000       0.503903000000000             
  0.000000000000000E+000                                                        
  0.102700000000000       0.000000000000000E+000  0.383421000000000             
   1.00000000000000                                                             
    2    2                                                                      
   1.40700000000000        1.00000000000000       0.000000000000000E+000        
  0.388000000000000       0.000000000000000E+000   1.00000000000000             
    1    1                                                                      
   1.05700000000000        1.00000000000000                                     
          1.00000000    1    3    1    1    1                                   
H #3   0.000000000000000   0.000000000000000  10.944852704231570                
    6    4                                                                      
   33.8700000000000       0.000000000000000E+000  6.068000000000000E-003        
  0.000000000000000E+000  0.000000000000000E+000                                
   5.09500000000000       0.000000000000000E+000  4.530800000000000E-002        
  0.000000000000000E+000  0.000000000000000E+000                                
   1.15900000000000       0.000000000000000E+000  0.202822000000000             
  0.000000000000000E+000  0.000000000000000E+000                                
  0.325800000000000        1.00000000000000       0.503903000000000             
  0.000000000000000E+000  0.000000000000000E+000                                
  0.102700000000000       0.000000000000000E+000  0.383421000000000             
   1.00000000000000       0.000000000000000E+000                                
  2.526000000000000E-002  0.000000000000000E+000  0.000000000000000E+000        
  0.000000000000000E+000   1.00000000000000                                     
    3    3                                                                      
   1.40700000000000        1.00000000000000       0.000000000000000E+000        
  0.000000000000000E+000                                                        
  0.388000000000000       0.000000000000000E+000   1.00000000000000             
  0.000000000000000E+000                                                        
  0.102000000000000       0.000000000000000E+000  0.000000000000000E+000        
   1.00000000000000                                                             
    2    2                                                                      
   1.05700000000000        1.00000000000000       0.000000000000000E+000        
  0.247000000000000       0.000000000000000E+000   1.00000000000000             
FINISH                                                                          
 
********************************************************************************
 ONE- AND TWO-ELECTRON INTEGRALS OVER SYMMETRY-ADAPTED AOS ARE CALCULATED.

  SPHERICAL HARMONICS ARE USED.
  
  INTEGRALS LESS THAN  0.10E-13 ARE NEGLECTED.

  NUCLEAR REPULSION ENERGY :   34.9833020623 A.U.
  @MOLECU-I, ONE ELECTRON INTEGRALS (CPU/WALL):        0.04/       0.04 SECONDS.
  @TWOEL-I,     596153 INTEGRALS OF SYMMETRY TYPE  I I I I
  @TWOEL-I,    2522911 INTEGRALS OF SYMMETRY TYPE  I J I J
  @TWOEL-I,    1394084 INTEGRALS OF SYMMETRY TYPE  I I J J
  @TWOEL-I,    2179837 INTEGRALS OF SYMMETRY TYPE  I J K L
  @TWOEL-I, TOTAL NUMBER OF 2-E INTEGRALS    6692985.
  @MOLECU-I, TWO ELECTRON INTEGRALS (CPU/WALL):       26.85/       4.43 SECONDS.
 @CHECKOUT-I, Total execution time (CPU/WALL):       26.89/       4.48 seconds.

Running with 8 threads/proc

--executable xvmol finished with status     0 in        4.50 seconds (walltime).
 --invoking executable--
/home/tsommerfeld/zscale/bin/xvmol2ja
 @GETMEM-I,  Allocated   85830 MB of main memory.
 @CHECKOUT-I, Total execution time (CPU/WALL):        0.08/       0.02 seconds.
--executable xvmol2ja finished with status     0 in        0.04 seconds (walltime).
 --invoking executable--
/home/tsommerfeld/zscale/bin/xvscf
  There are  139 functions in the AO basis.

  There are 4 irreducible representations.

       Irrep        # of functions
         1                 45
         2                 39
         3                 29
         4                 26


  Parameters for SCF calculation: 
        SCF reference function:  RHF  
  Maximum number of iterations:  150
     Full symmetry point group: C2v 
     Computational point group: C2v 
        Initial density matrix: MOREAD                 
     SCF convergence tolerance: 10**(- 7)
  DIIS convergence acceleration:  ON
          Latest start for DIIS:   8
                     DIIS order:   6

  Memory information:     823082 words required.
  Fock matrices are constructed from AO integral file.
 @GETMEM-I,  Allocated       6 MB of main memory.
  Initialization and symmetry analysis required      0.002 seconds.

  @INITGES-I, Occupancies from core Hamiltonian:

          Alpha population by irrep:   4    3    1    1
           Beta population by irrep:   4    3    1    1


 total no. of electrons in initial guess :  0.000000000000000E+000
  --------------------------------------------------------------------
  Iteration         Total Energy            Largest Density Difference
  --------------------------------------------------------------------
       0            34.983302062290896              0.0000000000D+00
   current occupation vector 
     4  3  1  1
     4  3  1  1
       1           -51.752861958857586              0.8749945979D+01
   current occupation vector 
     4  3  1  1
     4  3  1  1
       2           -43.754923454505452              0.3099018329D+02
   current occupation vector 
     5  3  1  0
     5  3  1  0
       3           -68.080467898187180              0.3073152955D+02
   current occupation vector 
     4  3  1  1
     4  3  1  1
       4           -45.800205301358240              0.1252453604D+02
   current occupation vector 
     6  2  1  0
     6  2  1  0
       5           -68.752250306945712              0.1252453508D+02
   current occupation vector 
     4  3  1  1
     4  3  1  1
       6           -46.081862887397499              0.1252061352D+02
   current occupation vector 
     6  2  1  0
     6  2  1  0
       7           -68.846320138945572              0.1252061354D+02
   current occupation vector 
     4  3  1  1
     4  3  1  1
       8           -46.119709230787670              0.1252002317D+02
   current occupation vector 
     6  2  1  0
     6  2  1  0
       9           -73.707725514262137              0.1252003135D+02
   current occupation vector 
     4  3  1  1
     4  3  1  1
      10           -76.042351677052096              0.9496085902D+00
   current occupation vector 
     4  3  1  1
     4  3  1  1
      11           -78.494105427842385              0.1578218082D+01
   current occupation vector 
     5  2  1  1
     5  2  1  1
      12           -78.541163142839167              0.3889609861D+00
   current occupation vector 
     5  2  1  1
     5  2  1  1
      13           -78.545743191526213              0.7723868411D-01
   current occupation vector 
     5  2  1  1
     5  2  1  1
      14           -78.545980498450319              0.2519578070D-01
   current occupation vector 
     5  2  1  1
     5  2  1  1
      15           -78.545993457301336              0.7041505774D-02
   current occupation vector 
     5  2  1  1
     5  2  1  1
      16           -78.545994088395446              0.2107819340D-02
   current occupation vector 
     5  2  1  1
     5  2  1  1
      17           -78.545994095943399              0.1709552145D-03
   current occupation vector 
     5  2  1  1
     5  2  1  1
      18           -78.545994096123820              0.2699511985D-04
   current occupation vector 
     5  2  1  1
     5  2  1  1
      19           -78.545994096137036              0.2321825804D-05
   current occupation vector 
     5  2  1  1
     5  2  1  1
      20           -78.545994096137917              0.6492008268D-06
   current occupation vector 
     5  2  1  1
     5  2  1  1
      21           -78.545994096137264              0.1565601462D-06
   current occupation vector 
     5  2  1  1
     5  2  1  1

  SCF has converged.

 Density matrix saved to file den.dat
 total electron number:   18.0000000000001     
     E(SCF)=       -78.545994096137207              0.8013367553D-08


  Final occupancies:

     Alpha population by irrep:   5    2    1    1
      Beta population by irrep:   5    2    1    1


  Eigenvector printing suppressed.

 @PUTMOS-I, Writing converged MOs to NEWMOS. 
 @PUTMOS-I, Symmetry   1 Full Blocks 11 Partial Blocksize   1
 @PUTMOS-I, Symmetry   2 Full Blocks  9 Partial Blocksize   3
 @PUTMOS-I, Symmetry   3 Full Blocks  7 Partial Blocksize   1
 @PUTMOS-I, Symmetry   4 Full Blocks  6 Partial Blocksize   2
 @PUTFOCK-I, Writing converged Fock matrix to NEWFOCK. 
 @PUTFOCK-I, Symmetry   1 Full Blocks 11 Partial Blocksize   1
 @PUTFOCK-I, Symmetry   2 Full Blocks  9 Partial Blocksize   3
 @PUTFOCK-I, Symmetry   3 Full Blocks  7 Partial Blocksize   1
 @PUTFOCK-I, Symmetry   4 Full Blocks  6 Partial Blocksize   2


 
  ORBITAL EIGENVALUES (ALPHA)  (1H = 27.2113834 eV)

       MO #        E(hartree)               E(eV)           FULLSYM    COMPSYM
       ----   --------------------   --------------------   -------   ---------
    1     1         -11.1399148801        -303.1324948467      A1        A1 (1)
    2    46         -11.1381508126        -303.0844921293      B1        B1 (2)
    3     2          -0.9513106168         -25.8864779258      A1        A1 (1)
    4    47          -0.6938470076         -18.8805369450      B1        B1 (2)
    5    85          -0.5730581695         -15.5937055621      B2        B2 (3)
    6     3          -0.4801806759         -13.0663804736      A1        A1 (1)
    7   114          -0.4289069630         -11.6711518118      A2        A2 (4)
    8     4          -0.2893036332          -7.8723520820      A1        A1 (1)
    9     5          -0.0447459121          -1.2175981698      A1        A1 (1)
  +++++++++++++++++++++++++++++++++++++++++++++++++++++++++++++++++++++++++++++
   10     6           0.2317073447           6.3050773936      A1        A1 (1)
   11    48           0.2418790416           6.5818633376      B1        B1 (2)
   12     7           0.2549509707           6.9375686113      A1        A1 (1)
   13    86           0.2677055289           7.2846377855      B2        B2 (3)
   14    49           0.2751670339           7.4876756591      B1        B1 (2)
   15   115           0.3209695861           8.7340264670      A2        A2 (4)
   16    50           0.4387340203          11.9385596382      B1        B1 (2)
   17     8           0.4451836399          12.1140627092      A1        A1 (1)
   18     9           0.4492369496          12.2243588722      A1        A1 (1)
   19    51           0.4500309535          12.2459648175      E         B1 (2)
   20    87           0.4500397088          12.2462030617      E         B2 (3)
   21    10           0.5371098787          14.6155028362      A1        A1 (1)
   22    88           0.5578116087          15.1788255500      B2        B2 (3)
   23    11           0.5737414144          15.6122976000      A1        A1 (1)
   24    52           0.6509693103          17.7137754836      B1        B1 (2)
   25    53           0.6795308049          18.4909732640      B1        B1 (2)
   26    89           0.6815199006          18.5450993099      B2        B2 (3)
   27    12           0.7105989579          19.3363806869      A1        A1 (1)
   28    54           0.7245636819          19.7163801445      B1        B1 (2)
   29    90           0.7543010856          20.5255760399      B2        B2 (3)
   30   116           0.7785631519          21.1857804272      A2        A2 (4)
   31    13           0.7880165788          21.4430212500      A1        A1 (1)
   32    55           0.8706071704          23.6904255038      B1        B1 (2)
   33   117           0.9146380161          24.8885657290      A2        A2 (4)
   34    14           0.9838320480          26.7714310585      A1        A1 (1)
   35   118           0.9906002435          26.9556030231      A2        A2 (4)
   36    15           1.0719411672          29.1690020825      A1        A1 (1)
   37   119           1.1028747467          30.0107475757      E         A2 (4)
   38    16           1.1028748924          30.0107515381      E         A1 (1)
   39    91           1.1030024431          30.0142223715      B2        B2 (3)
   40    56           1.1030141549          30.0145410652      B1        B1 (2)
   41    17           1.1031054132          30.0170243302      A1        A1 (1)
   42   120           1.1065290911          30.1101873424      A2        A2 (4)
   43    92           1.1235897935          30.5744326562      B2        B2 (3)
   44    18           1.2689111937          34.5288289929      A1        A1 (1)
   45    57           1.2690857004          34.5335775612      B1        B1 (2)
   46    19           1.3148957527          35.7801324564      A1        A1 (1)
   47    93           1.3392600302          36.4431181540      B2        B2 (3)
   48    58           1.3393128282          36.4445548620      B1        B1 (2)
   49    94           1.3408572082          36.4865795777      B2        B2 (3)
   50    20           1.3410725718          36.4924399194      A1        A1 (1)
   51    59           1.4072196886          38.2923944753      B1        B1 (2)
   52    95           1.4307613724          38.9329962596      B2        B2 (3)
   53    60           1.4509423381          39.4821482528      B1        B1 (2)
   54    96           1.5487828586          42.1445241676      B2        B2 (3)
   55    61           1.5635151814          42.5454110537      B1        B1 (2)
   56    21           1.5937224308          43.3673920976      A1        A1 (1)
   57    62           1.6196415266          44.0726865522      B1        B1 (2)
   58   121           1.6822748220          45.7770251644      A2        A2 (4)
   59   122           1.7227383846          46.8780946804      A2        A2 (4)
   60    63           1.8860715819          51.3226169356      B1        B1 (2)
   61    22           1.9376496491          52.7261274961      A1        A1 (1)
   62   123           2.0561053084          55.9494698586      A2        A2 (4)
   63    23           2.3748558291          64.6231124848      A1        A1 (1)
   64    24           2.4539787875          66.7761576411      A1        A1 (1)
   65    25           2.6348403500          71.6976509611      A1        A1 (1)
   66    64           2.6516483381          72.1550195687      B1        B1 (2)
   67    97           2.7102413707          73.7494170457      B2        B2 (3)
   68    98           2.7954814469          76.0689174396      B2        B2 (3)
   69    65           2.8273714780          76.9366893033      B1        B1 (2)
   70    26           2.8484352980          77.5098649839      A1        A1 (1)
   71   124           2.9281155693          79.6780753959      A2        A2 (4)
   72    27           2.9808913833          81.1141783054      A1        A1 (1)
   73    99           3.0024250708          81.7001397304      B2        B2 (3)
   74   125           3.1509985426          85.7430294350      A2        A2 (4)
   75    28           3.1837386282          86.6339324561      A1        A1 (1)
   76   100           3.1938426498          86.9088768627      B2        B2 (3)
   77    29           3.1953622334          86.9502268351      A1        A1 (1)
   78   101           3.2074258076          87.2784933775      B2        B2 (3)
   79   126           3.2396741112          88.1560143318      A2        A2 (4)
   80    30           3.2655169461          88.8592336188      A1        A1 (1)
   81    66           3.3156330231          90.2229614056      B1        B1 (2)
   82    67           3.3523135953          91.2210905185      B1        B1 (2)
   83   102           3.4241749361          93.1765370143      B2        B2 (3)
   84    68           3.4888574834          94.9366386085      B1        B1 (2)
   85    69           3.5126847589          95.5850117384      B1        B1 (2)
   86   127           3.5133109469          95.6020511794      A2        A2 (4)
   87   128           3.5336605040          96.1557907791      A2        A2 (4)
   88    70           3.5402570217          96.3352911510      B1        B1 (2)
   89    31           3.6373226966          98.9765824460      A1        A1 (1)
   90    32           3.6630874178          99.6776761525      A1        A1 (1)
   91   103           3.7280328373         101.4449308630      B2        B2 (3)
   92   104           3.8086632711         103.6389965113      B2        B2 (3)
   93   129           3.9022955704         106.1868609058      A2        A2 (4)
   94    71           3.9628163507         107.8337150636      B1        B1 (2)
   95   130           3.9982738701         108.7985632179      A2        A2 (4)
   96    72           4.0547935272         110.3365412769      B1        B1 (2)
   97   131           4.0634311443         110.5715827880      A2        A2 (4)
   98    33           4.0933974554         111.3870075669      A1        A1 (1)
   99   105           4.0979847008         111.5118328608      B2        B2 (3)
  100    34           4.1437914725         112.7582984871      A1        A1 (1)
  101   132           4.2171736301         114.7551285142      E         A2 (4)
  102    35           4.2171736334         114.7551286026      E         A1 (1)
  103   106           4.2172051319         114.7559857215      E         B2 (3)
  104    73           4.2172087380         114.7560838480      E         B1 (2)
  105    36           4.2172275756         114.7565964460      A1        A1 (1)
  106    74           4.2707668788         116.2134749522      B1        B1 (2)
  107   133           4.2777262612         116.4028493746      A2        A2 (4)
  108    37           4.2791868356         116.4425936237      A1        A1 (1)
  109   107           4.2885276653         116.6967705218      B2        B2 (3)
  110    38           4.4159964410         120.1653722495      A1        A1 (1)
  111    75           4.4366999111         120.7287423120      B1        B1 (2)
  112   108           4.4452901662         120.9624950363      B2        B2 (3)
  113    76           4.4453655506         120.9645463507      B1        B1 (2)
  114    39           4.4458467382         120.9776401298      A1        A1 (1)
  115   109           4.5559183494         123.9728409435      B2        B2 (3)
  116    77           4.5919514774         124.9533522051      B1        B1 (2)
  117   134           4.6930272242         127.7037631054      A2        A2 (4)
  118    40           4.7281695915         128.6600355346      A1        A1 (1)
  119    78           4.8445220750         131.8261475729      B1        B1 (2)
  120    79           4.9005988565         133.3520743727      B1        B1 (2)
  121    41           5.0148188728         136.4601590287      A1        A1 (1)
  122    42           5.0603771274         137.6998621619      A1        A1 (1)
  123   135           5.1141764773         139.1638168981      A2        A2 (4)
  124   110           5.2135470631         141.8678280083      B2        B2 (3)
  125   111           5.3033639804         144.3118705799      B2        B2 (3)
  126    43           5.3858691204         146.5569495780      A1        A1 (1)
  127    80           5.3907882077         146.6908047467      B1        B1 (2)
  128   136           5.5134344601         150.0281789435      A2        A2 (4)
  129   137           5.5286379262         150.4418862906      A2        A2 (4)
  130    81           5.6242021607         153.0423213142      B1        B1 (2)
  131    44           5.6492126003         153.7228899738      A1        A1 (1)
  132   112           5.7039308748         155.2118499202      B2        B2 (3)
  133    82           6.0434576192         164.4508423367      B1        B1 (2)
  134   138           6.1791507108         168.1432390771      A2        A2 (4)
  135   113           6.3569889479         172.9824635304      B2        B2 (3)
  136    83           6.5963868123         179.4968106041      B1        B1 (2)
  137   139           6.9598502991         189.3871548960      A2        A2 (4)
  138    45          11.9871772566         326.1876762131      A1        A1 (1)
  139    84          14.8360450007         403.7093086547      B1        B1 (2)


  VSCF finished.

 @CHECKOUT-I, Total execution time (CPU/WALL):       11.54/       1.45 seconds.
--executable xvscf finished with status     0 in        1.48 seconds (walltime).
 --invoking executable--
/home/tsommerfeld/zscale/bin/xvtran
 @GETMEM-I,  Allocated   85830 MB of main memory.
  Full RHF integral transformation
  Transformation of IIII integrals :
  1 pass through the AO integral file was required.
      596153 AO integrals were read.
      997326 MO integrals were written to HF2.
  Transformation of IIJJ integrals :
  1 pass through the AO integral file was required.
     1394084 AO integrals were read.
     2386575 MO integrals were written to HF2.
  Transformation of IJIJ integrals :
  1 pass through the AO integral file was required.
     2522911 AO integrals were read.
     4517476 MO integrals were written to HF2.
  Transformation of IJKL integrals :
  1 pass through the AO integral file was required.
     2179837 AO integrals were read.
     3969810 MO integrals were written to HF2.
  Summary of active molecular orbitals: 
------------------------------------------------------------------------
 
  Index      Eigenvalue    Symmetry    Index      Eigenvalue    Symmetry
------------------------------------------------------------------------
     1       -11.1399149        1        71         3.5126848        2
     2        -0.9513106        1        72         3.5402570        2
     3        -0.4801807        1        73         3.9628164        2
     4        -0.2893036        1        74         4.0547935        2
     5        -0.0447459        1        75         4.2172087        2
     6       -11.1381508        2        76         4.2707669        2
     7        -0.6938470        2        77         4.4366999        2
     8        -0.5730582        3        78         4.4453656        2
     9        -0.4289070        4        79         4.5919515        2
    10         0.2317073        1        80         4.8445221        2
    11         0.2549510        1        81         4.9005989        2
    12         0.4451836        1        82         5.3907882        2
    13         0.4492369        1        83         5.6242022        2
    14         0.5371099        1        84         6.0434576        2
    15         0.5737414        1        85         6.5963868        2
    16         0.7105990        1        86        14.8360450        2
    17         0.7880166        1        87         0.2677055        3
    18         0.9838320        1        88         0.4500397        3
    19         1.0719412        1        89         0.5578116        3
    20         1.1028749        1        90         0.6815199        3
    21         1.1031054        1        91         0.7543011        3
    22         1.2689112        1        92         1.1030024        3
    23         1.3148958        1        93         1.1235898        3
    24         1.3410726        1        94         1.3392600        3
    25         1.5937224        1        95         1.3408572        3
    26         1.9376496        1        96         1.4307614        3
    27         2.3748558        1        97         1.5487829        3
    28         2.4539788        1        98         2.7102414        3
    29         2.6348403        1        99         2.7954814        3
    30         2.8484353        1       100         3.0024251        3
    31         2.9808914        1       101         3.1938426        3
    32         3.1837386        1       102         3.2074258        3
    33         3.1953622        1       103         3.4241749        3
    34         3.2655169        1       104         3.7280328        3
    35         3.6373227        1       105         3.8086633        3
    36         3.6630874        1       106         4.0979847        3
    37         4.0933975        1       107         4.2172051        3
    38         4.1437915        1       108         4.2885277        3
    39         4.2171736        1       109         4.4452902        3
    40         4.2172276        1       110         4.5559183        3
    41         4.2791868        1       111         5.2135471        3
    42         4.4159964        1       112         5.3033640        3
    43         4.4458467        1       113         5.7039309        3
    44         4.7281696        1       114         6.3569889        3
    45         5.0148189        1       115         0.3209696        4
    46         5.0603771        1       116         0.7785632        4
    47         5.3858691        1       117         0.9146380        4
    48         5.6492126        1       118         0.9906002        4
    49        11.9871773        1       119         1.1028747        4
    50         0.2418790        2       120         1.1065291        4
    51         0.2751670        2       121         1.6822748        4
    52         0.4387340        2       122         1.7227384        4
    53         0.4500310        2       123         2.0561053        4
    54         0.6509693        2       124         2.9281156        4
    55         0.6795308        2       125         3.1509985        4
    56         0.7245637        2       126         3.2396741        4
    57         0.8706072        2       127         3.5133109        4
    58         1.1030142        2       128         3.5336605        4
    59         1.2690857        2       129         3.9022956        4
    60         1.3393128        2       130         3.9982739        4
    61         1.4072197        2       131         4.0634311        4
    62         1.4509423        2       132         4.2171736        4
    63         1.5635152        2       133         4.2777263        4
    64         1.6196415        2       134         4.6930272        4
    65         1.8860716        2       135         5.1141765        4
    66         2.6516483        2       136         5.5134345        4
    67         2.8273715        2       137         5.5286379        4
    68         3.3156330        2       138         6.1791507        4
    69         3.3523136        2       139         6.9598503        4
    70         3.4888575        2
------------------------------------------------------------------------
  -11.1399148801361      -0.951310616784259      -0.480180675915063     
 -0.289303633197972      -4.474591210133485E-002  -11.1381508126228     
 -0.693847007611010      -0.573058169547779      -0.428906962952743     
  0.231707344711872       0.254950970677870       0.445183639915739     
  0.449236949569767       0.537109878660427       0.573741414412638     
  0.710598957896040       0.788016578754227       0.983832047970107     
   1.07194116718343        1.10287489235590        1.10310541323677     
   1.26891119372072        1.31489575265046        1.34107257183489     
   1.59372243079707        1.93764964908439        2.37485582908054     
   2.45397878746134        2.63484034997858        2.84843529799804     
   2.98089138332503        3.18373862815449        3.19536223340764     
   3.26551694607493        3.63732269657292        3.66308741776576     
   4.09339745537763        4.14379147247186        4.21717363339375     
   4.21722757564834        4.27918683559937        4.41599644101365     
   4.44584673816220        4.72816959150221        5.01481887277647     
   5.06037712738728        5.38586912042097        5.64921260026097     
   11.9871772565986       0.241879041606537       0.275167033923948     
  0.438734020342565       0.450030953499563       0.650969310277430     
  0.679530804890459       0.724563681850199       0.870607170374020     
   1.10301415492046        1.26908570040655        1.33931282824990     
   1.40721968862869        1.45094233808230        1.56351518143385     
   1.61964152664962        1.88607158192473        2.65164833805135     
   2.82737147804343        3.31563302311271        3.35231359529136     
   3.48885748338932        3.51268475892486        3.54025702166354     
   3.96281635073330        4.05479352721573        4.21720873801579     
   4.27076687884099        4.43669991111081        4.44536555060782     
   4.59195147737768        4.84452207501179        4.90059885645726     
   5.39078820765332        5.62420216070898        6.04345761916255     
   6.59638681229604        14.8360450007355       0.267705528912721     
  0.450039708811007       0.557811608725546       0.681519900596240     
  0.754301085623839        1.10300244314301        1.12358979353292     
   1.33926003019872        1.34085720822578        1.43076137244876     
   1.54878285855800        2.71024137073757        2.79548144691369     
   3.00242507076558        3.19384264979141        3.20742580759470     
   3.42417493607754        3.72803283727932        3.80866327109479     
   4.09798470080148        4.21720513193335        4.28852766529367     
   4.44529016618435        4.55591834935990        5.21354706311154     
   5.30336398038101        5.70393087475879        6.35698894788425     
  0.320969586095734       0.778563151891470       0.914638016125936     
  0.990600243539794        1.10287474673782        1.10652909114533     
   1.68227482195411        1.72273838456963        2.05610530843603     
   2.92811556930501        3.15099854258141        3.23967411123415     
   3.51331094689664        3.53366050397341        3.90229557038355     
   3.99827387011657        4.06343114433581        4.21717363014380     
   4.27772626122987        4.69302722424054        5.11417647726429     
   5.51343446006214        5.52863792623791        6.17915071076900     
   6.95985029912111     
 @CHECKOUT-I, Total execution time (CPU/WALL):       11.91/       2.25 seconds.
--executable xvtran finished with status     0 in        2.27 seconds (walltime).
 --invoking executable--
/home/tsommerfeld/zscale/bin/xintprc
 @GETMEM-I,  Allocated   85830 MB of main memory.
  Processing integrals for CCSD calculation.
  @GMOIAA-I, Processing MO integrals for spin case AA.
  @GMOIAA-I, Generation of integral list completed.
                      TYPE                NUMBER
                      ----               --------
                      PPPP               9084376
                      PPPH               2501601
                      PPHH                173538
                      PHPH                 97627
                      PHHH                 13713
                      HHHH                   332

                     TOTAL              11871187

  @FORMT2-I, Second-order MP correlation energies:
            ------------------------------------------------
            E(SCF)                  =    -78.545994096137 a.u.
            E2(AA)                  =     -0.037978586685 a.u.
            E2(AB)                  =     -0.319391354648 a.u.
            E2(TOT)                 =     -0.395348528017 a.u.
            Total MP2 energy        =    -78.941342624154 a.u.
            ------------------------------------------------
   Largest T2 amplitudes for spin case AB:
       _       _                 _       _                 _       _
   i   j   a   b             i   j   a   b             i   j   a   b
-----------------------------------------------------------------------------
[  4   4  50  50]-0.08245 [  5   5  17  17]-0.04670 [  5   5  11  11]-0.04363
[  5   5  88  88]-0.04094 [  5   5  53  53]-0.04091 [  5   5  11  10] 0.04075
[  5   5  10  11] 0.04075 [  5   5  13  13]-0.03916 [  5   5  10  10]-0.03842
[  4   4  54  50]-0.03587 [  4   4  50  54]-0.03587 [  5   5  17  11] 0.03171
[  5   5  11  17] 0.03171 [  4   4  14  14]-0.02984 [  5   5  17  10]-0.02848
-----------------------------------------------------------------------------
   Norm of T2AB vector (   345906 symmetry allowed elements):  0.3322555972.
-----------------------------------------------------------------------------
 @CHECKOUT-I, Total execution time (CPU/WALL):        4.12/       2.82 seconds.
--executable xintprc finished with status     0 in        2.84 seconds (walltime).
  calling xvcc 
 --invoking executable--
/home/tsommerfeld/zscale/bin/xvcc
 @GETMEM-I,  Allocated   85830 MB of main memory.
   CCSD energy will be calculated.
   The total correlation energy is -0.395348528017 a.u.
   The total correlation energy is -0.415206638887 a.u.
  Convergence information after     1 iterations: 
  Largest element of residual vector :  0.16509104E-01.
  Largest element of DIIS residual   :  0.16509104E-01.
   The total correlation energy is -0.426374781476 a.u.
  Convergence information after     2 iterations: 
  Largest element of residual vector : -0.10892384E-01.
  Largest element of DIIS residual   : -0.10638886E-01.
   The total correlation energy is -0.429275130754 a.u.
  Convergence information after     3 iterations: 
  Largest element of residual vector :  0.43657637E-02.
  Largest element of DIIS residual   :  0.44371169E-02.
   The total correlation energy is -0.430898466920 a.u.
  Convergence information after     4 iterations: 
  Largest element of residual vector :  0.25783656E-02.
  Largest element of DIIS residual   : -0.13353186E-02.
   The total correlation energy is -0.431072208775 a.u.
  Convergence information after     5 iterations: 
  Largest element of residual vector :  0.91980795E-03.
  Largest element of DIIS residual   :  0.47030520E-03.
   The total correlation energy is -0.431077969414 a.u.
  Convergence information after     6 iterations: 
  Largest element of residual vector : -0.31114593E-03.
  Largest element of DIIS residual   :  0.25532148E-03.
   The total correlation energy is -0.431071708638 a.u.
  Convergence information after     7 iterations: 
  Largest element of residual vector :  0.17685472E-03.
  Largest element of DIIS residual   :  0.91891754E-04.
   The total correlation energy is -0.431064650882 a.u.
  Convergence information after     8 iterations: 
  Largest element of residual vector : -0.58440090E-04.
  Largest element of DIIS residual   : -0.33173785E-04.
   The total correlation energy is -0.431064229086 a.u.
  Convergence information after     9 iterations: 
  Largest element of residual vector :  0.31291172E-04.
  Largest element of DIIS residual   : -0.14684499E-04.
   The total correlation energy is -0.431064779664 a.u.
  Convergence information after    10 iterations: 
  Largest element of residual vector : -0.10905533E-04.
  Largest element of DIIS residual   : -0.56719484E-05.
   The total correlation energy is -0.431065602484 a.u.
  Convergence information after    11 iterations: 
  Largest element of residual vector :  0.51283815E-05.
  Largest element of DIIS residual   :  0.48353568E-05.
   The total correlation energy is -0.431066115628 a.u.
  Convergence information after    12 iterations: 
  Largest element of residual vector : -0.21682603E-05.
  Largest element of DIIS residual   : -0.25403053E-05.
   The total correlation energy is -0.431066449183 a.u.
  Convergence information after    13 iterations: 
  Largest element of residual vector :  0.16877306E-05.
  Largest element of DIIS residual   :  0.95528707E-06.
   The total correlation energy is -0.431066563866 a.u.
  Convergence information after    14 iterations: 
  Largest element of residual vector : -0.81077846E-06.
  Largest element of DIIS residual   :  0.57752199E-06.
   The total correlation energy is -0.431066614470 a.u.
  Convergence information after    15 iterations: 
  Largest element of residual vector :  0.46712355E-06.
  Largest element of DIIS residual   : -0.28857534E-06.
   The total correlation energy is -0.431066614361 a.u.
  Convergence information after    16 iterations: 
  Largest element of residual vector : -0.17999562E-06.
  Largest element of DIIS residual   : -0.11974297E-06.
   The total correlation energy is -0.431066612243 a.u.
  Convergence information after    17 iterations: 
  Largest element of residual vector :  0.73265281E-07.
  Largest element of DIIS residual   :  0.56434170E-07.
  Amplitude equations converged in    17iterations.
   The total correlation energy is -0.431066613816 a.u.
   The CC iterations have converged.

   Largest T1 amplitudes for spin case AA:
   i       a                 i       a                 i       a    
-----------------------------------------------------------------------------
[  4      14    ] 0.02279 [  5      10    ] 0.02238 [  5      11    ]-0.01737
[  5      17    ]-0.01538 [  4      18    ]-0.01493 [  4      22    ] 0.00976
[  4      28    ]-0.00944 [  8      89    ]-0.00793 [  4      15    ]-0.00702
[  8      90    ] 0.00618 [  3      12    ] 0.00548 [  5      31    ]-0.00490
[  9     121    ]-0.00449 [  8      97    ]-0.00434 [  4      30    ]-0.00396
-----------------------------------------------------------------------------
   Norm of T1AA vector (      327 symmetry allowed elements):  0.0497108114.
-----------------------------------------------------------------------------
   Largest T2 amplitudes for spin case AB:
       _       _                 _       _                 _       _
   i   j   a   b             i   j   a   b             i   j   a   b
-----------------------------------------------------------------------------
[  4   4  50  50]-0.11580 [  5   5  11  11]-0.07941 [  5   5  11  10] 0.07451
[  5   5  10  11] 0.07451 [  5   5  10  10]-0.07006 [  5   5  17  17]-0.06283
[  5   5  17  11] 0.06185 [  5   5  11  17] 0.06185 [  5   5  17  10]-0.05747
[  5   5  10  17]-0.05747 [  5   5  88  88]-0.05423 [  5   5  53  53]-0.05419
[  5   5  13  13]-0.05179 [  4   4  54  50]-0.04981 [  4   4  50  54]-0.04981
-----------------------------------------------------------------------------
   Norm of T2AB vector (   345906 symmetry allowed elements):  0.4177763807.
-----------------------------------------------------------------------------
       Summary of iterative solution of CC equations 
      -----------------------------------------------------------
                       Correlation           Total
       Iteration         Energy              Energy
      -----------------------------------------------------------
            0        -0.395348528017     -78.941342624154  DIIS 
            1        -0.415206638887     -78.961200735024  DIIS 
            2        -0.426374781476     -78.972368877613  DIIS 
            3        -0.429275130754     -78.975269226892  DIIS 
            4        -0.430898466920     -78.976892563057  DIIS 
            5        -0.431072208775     -78.977066304913  DIIS 
            6        -0.431077969414     -78.977072065551  DIIS 
            7        -0.431071708638     -78.977065804775  DIIS 
            8        -0.431064650882     -78.977058747020  DIIS 
            9        -0.431064229086     -78.977058325223  DIIS 
           10        -0.431064779664     -78.977058875802  DIIS 
           11        -0.431065602484     -78.977059698621  DIIS 
           12        -0.431066115628     -78.977060211765  DIIS 
           13        -0.431066449183     -78.977060545320  DIIS 
           14        -0.431066563866     -78.977060660004  DIIS 
           15        -0.431066614470     -78.977060710607  DIIS 
           16        -0.431066614361     -78.977060710498  DIIS 
           17        -0.431066613816     -78.977060709953  DIIS 
      -----------------------------------------------------------
      A miracle has come to pass. The CC iterations have converged.
      The reference energy is       -78.54599409613721 a.u.
      The correlation energy is      -0.43106661381596 a.u.
      The total energy is           -78.97706070995316 a.u.
 @CHECKOUT-I, Total execution time (CPU/WALL):       82.04/      10.27 seconds.
--executable xvcc finished with status     0 in       10.29 seconds (walltime).
  The final electronic energy is       -78.977060709953165 a.u. 
  This computation required                           21.60 seconds (walltime).
