/src/tsommerfeld/qchem/exe/qcprog.exe .input0.944444.23159.qcin.1 /src/jdavis/qchem.scratch/qchem23159/

                  Welcome to Q-Chem
     A Quantum Leap Into The Future Of Chemistry


 Q-Chem 5.4 (devel), Q-Chem, Inc., Pleasanton, CA (2021)

 E. Epifanovsky,  A. T. B. Gilbert,  Xintian Feng,  Joonho Lee,  Yuezhi Mao,  
 N. Mardirossian,  P. Pokhilko,  A. White,  M. Wormit,  M. P. Coons,  
 A. L. Dempwolff,  Zhengting Gan,  D. Hait,  P. R. Horn,  L. D. Jacobson,  
 I. Kaliman,  J. Kussmann,  A. W. Lange,  Ka Un Lao,  D. S. Levine,  Jie Liu,  
 S. C. McKenzie,  A. F. Morrison,  K. Nanda,  F. Plasser,  D. R. Rehn,  
 M. L. Vidal,  Zhi-Qiang You,  Ying Zhu,  B. Alam,  B. Albrecht,  
 A. Aldossary,  E. Alguire,  J. H. Andersen,  D. Barton,  K. Begam,  A. Behn,  
 Y. A. Bernard,  E. J. Berquist,  H. Burton,  A. Carreras,  K. Carter-Fenk,  
 R. Chakraborty,  A. D. Chien,  K. D. Closser,  V. Cofer-Shabica,  
 S. Dasgupta,  Jia Deng,  M. de Wergifosse,  M. Diedenhofen,  Hainam Do,  
 S. Ehlert,  Po-Tung Fang,  S. Fatehi,  Qingguo Feng,  T. Friedhoff,  
 J. Gayvert,  Qinghui Ge,  G. Gidofalvi,  M. Goldey,  J. Gomes,  
 C. Gonzalez-Espinoza,  S. Gulania,  A. Gunina,  M. W. D. Hanson-Heine,  
 P. H. P. Harbach,  A. W. Hauser,  M. F. Herbst,  M. Hernandez Vera,  
 M. Hodecker,  Z. C. Holden,  S. Houck,  Xunkun Huang,  Kerwin Hui,  
 B. C. Huynh,  M. Ivanov,  Hyunjun Ji,  Hanjie Jiang,  B. Kaduk,  S. Kaehler,  
 K. Khistyaev,  Jaehoon Kim,  P. Klunzinger,  Z. Koczor-Benda,  
 Joong Hoon Koh,  D. Kosenkov,  L. Koulias,  T. Kowalczyk,  C. M. Krauter,  
 K. Kue,  A. Kunitsa,  T. Kus,  A. Landau,  K. V. Lawler,  D. Lefrancois,  
 S. Lehtola,  Rain Li,  Yi-Pei Li,  Jiashu Liang,  M. Liebenthal,  
 Hung-Hsuan Lin,  You-Sheng Lin,  Fenglai Liu,  Kuan-Yu Liu,  
 M. Loipersberger,  A. Luenser,  A. Manjanath,  P. Manohar,  E. Mansoor,  
 S. F. Manzer,  Shan-Ping Mao,  A. V. Marenich,  T. Markovich,  S. Mason,  
 S. A. Maurer,  P. F. McLaughlin,  M. F. S. J. Menger,  J.-M. Mewes,  
 S. A. Mewes,  P. Morgante,  J. W. Mullinax,  K. J. Oosterbaan,  G. Paran,  
 Alexander C. Paul,  Suranjan K. Paul,  F. Pavosevic,  Zheng Pei,  S. Prager,  
 E. I. Proynov,  E. Ramos,  B. Rana,  A. E. Rask,  A. Rettig,  R. M. Richard,  
 F. Rob,  E. Rossomme,  T. Scheele,  M. Scheurer,  M. Schneider,  
 N. Sergueev,  S. M. Sharada,  W. Skomorowski,  D. W. Small,  C. J. Stein,  
 Yu-Chuan Su,  E. J. Sundstrom,  Zhen Tao,  J. Thirman,  T. Tsuchimochi,  
 N. M. Tubman,  S. P. Veccham,  O. Vydrov,  J. Wenzel,  J. Witte,  A. Yamada,  
 Kun Yao,  S. Yeganeh,  S. R. Yost,  A. Zech,  Igor Ying Zhang,  Xing Zhang,  
 Yu Zhang,  D. Zuev,  A. Aspuru-Guzik,  A. T. Bell,  N. A. Besley,  
 K. B. Bravaya,  B. R. Brooks,  D. Casanova,  Jeng-Da Chai,  S. Coriani,  
 C. J. Cramer,  A. E. DePrince, III,  R. A. DiStasio Jr.,  A. Dreuw,  
 B. D. Dunietz,  T. R. Furlani,  W. A. Goddard III,  S. Grimme,  
 S. Hammes-Schiffer,  T. Head-Gordon,  W. J. Hehre,  Chao-Ping Hsu,  
 T.-C. Jagau,  Yousung Jung,  A. Klamt,  Jing Kong,  D. S. Lambrecht,  
 WanZhen Liang,  N. J. Mayhall,  C. W. McCurdy,  J. B. Neaton,  
 C. Ochsenfeld,  J. A. Parkhill,  R. Peverati,  V. A. Rassolov,  Yihan Shao,  
 L. V. Slipchenko,  T. Stauch,  R. P. Steele,  J. E. Subotnik,  
 A. J. W. Thom,  A. Tkatchenko,  D. G. Truhlar,  T. Van Voorhis,  
 T. A. Wesolowski,  K. B. Whaley,  H. L. Woodcock III,  P. M. Zimmerman,  
 S. Faraji,  P. M. W. Gill,  M. Head-Gordon,  J. M. Herbert,  A. I. Krylov

 Additional authors for Version 5.4.1: 
 S. Kotaru,  Shaozhi Li,  Xiangyuan Li,  F. Matz,  A. Molle,  Haisheng Ren,  
 Yingli Su,  Hung-Yi Tsai,  C. Utku,  Fang Wang

 Contributors to earlier versions of Q-Chem not listed above: 
 R. D. Adamson,  B. Austin,  R. Baer,  J. Baker,  G. J. O. Beran,  
 K. Brandhorst,  S. T. Brown,  E. F. C. Byrd,  A. K. Chakraborty,  
 G. K. L. Chan,  Chun-Min Chang,  Yunqing Chen,  C.-L. Cheng,  
 Siu Hung Chien,  D. M. Chipman,  D. L. Crittenden,  H. Dachsel,  
 R. J. Doerksen,  A. D. Dutoi,  R. G. Edgar,  J. Fosso-Tande,  
 L. Fusti-Molnar,  D. Ghosh,  A. Ghysels,  A. Golubeva-Zadorozhnaya,  
 J. Gonthier,  M. S. Gordon,  S. R. Gwaltney,  G. Hawkins,  J. E. Herr,  
 A. Heyden,  S. Hirata,  E. G. Hohenstein,  G. Kedziora,  F. J. Keil,  
 C. Kelley,  Jihan Kim,  R. A. King,  R. Z. Khaliullin,  P. P. Korambath,  
 W. Kurlancheek,  A. Laurent,  A. M. Lee,  M. S. Lee,  S. V. Levchenko,  
 Ching Yeh Lin,  D. Liotard,  E. Livshits,  R. C. Lochan,  I. Lotan,  
 L. A. Martinez-Martinez,  P. E. Maslen,  N. Nair,  D. P. O'Neill,  
 D. Neuhauser,  E. Neuscamman,  C. M. Oana,  R. Olivares-Amaya,  R. Olson,  
 T. M. Perrine,  B. Peters,  P. A. Pieniazek,  A. Prociuk,  Y. M. Rhee,  
 J. Ritchie,  M. A. Rohrdanz,  E. Rosta,  N. J. Russ,  H. F. Schaefer III,  
 M. W. Schmidt,  N. E. Schultz,  S. Sharma,  N. Shenvi,  C. D. Sherrill,  
 A. C. Simmonett,  A. Sodt,  T. Stein,  D. Stuck,  K. S. Thanthiriwatte,  
 V. Vanovschi,  L. Vogt,  Tao Wang,  A. Warshel,  M. A. Watson,  
 C. F. Williams,  Q. Wu,  X. Xu,  Jun Yang,  W. Zhang,  Yan Zhao

 Please cite Q-Chem as follows:
 Y. Shao et al., Mol. Phys. 113, 184-215 (2015)
 DOI: 10.1080/00268976.2014.952696

 Q-Chem 5.4.1 for Intel X86 EM64T Linux

 Parts of Q-Chem use Armadillo 9.900.5 (Nocturnal Misbehaviour).
 http://arma.sourceforge.net/

 Q-Chem begins on Sat Mar 26 18:45:51 2022  

 Host: node01
0

     Scratch files written to /src/jdavis/qchem.scratch/qchem23159//
 Processing $rem in /src/tsommerfeld/qchem/config/preferences:
 Processing $rem in /home/jdavis/.qchemrc:

 Checking the input file for inconsistencies... 	...done.

--------------------------------------------------------------
User input:
--------------------------------------------------------------
$molecule
-1 1
C        -0.6645000000    0.0000000000   -0.1764707059
C         0.6645000000    0.0000000000   -0.1764707059
H        -1.1590800000    0.0000000000    0.7858782941
H         1.1590800000    0.0000000000    0.7858782941
H        -1.1590800000    0.0000000000   -1.1388187059
H         1.1590800000    0.0000000000   -1.1388187059
H         0.0000000000    0.0000000000    2.8235292941
$end

$rem
   METHOD adc(3)
   BASIS gen
   PURECART 11
   EE_STATES [0,10,0,0]
   scf_convergence 8
   ADC_DAVIDSON_MAXITER 120
   ADC_DAVIDSON_MAXSUBSPACE 200
   adc_nguess_singles 100
   THRESH 14
   S2THRESH 14
   adc_davidson_conv 5
   adc_davidson_thresh 14
   THREADS 10
   MEM_TOTAL 95000
   STATE_ANALYSIS TRUE
$end
$basis
C 1
S   9   1.00
      6.665000D+03           6.920000D-04
      1.000000D+03           5.329000D-03
      2.280000D+02           2.707700D-02
      6.471000D+01           1.017180D-01
      2.106000D+01           2.747400D-01
      7.495000D+00           4.485640D-01
      2.797000D+00           2.850740D-01
      5.215000D-01           1.520400D-02
      1.596000D-01          -3.191000D-03
S   9   1.00
      6.665000D+03          -1.460000D-04
      1.000000D+03          -1.154000D-03
      2.280000D+02          -5.725000D-03
      6.471000D+01          -2.331200D-02
      2.106000D+01          -6.395500D-02
      7.495000D+00          -1.499810D-01
      2.797000D+00          -1.272620D-01
      5.215000D-01           5.445290D-01
      1.596000D-01           5.804960D-01
S   1   1.00
      1.596000D-01           1.000000D+00
S   1   1.00
      0.0469000              1.0000000
P   4   1.00
      9.439000D+00           3.810900D-02
      2.002000D+00           2.094800D-01
      5.456000D-01           5.085570D-01
      1.517000D-01           4.688420D-01
P   1   1.00
      1.517000D-01           1.000000D+00
P   1   1.00
      0.0573089      1.0000000
P   1   1.00
      0.0286544      1.0000000
D   1   1.00
      5.500000D-01           1.0000000
****
C 2
S   9   1.00
      6.665000D+03           6.920000D-04
      1.000000D+03           5.329000D-03
      2.280000D+02           2.707700D-02
      6.471000D+01           1.017180D-01
      2.106000D+01           2.747400D-01
      7.495000D+00           4.485640D-01
      2.797000D+00           2.850740D-01
      5.215000D-01           1.520400D-02
      1.596000D-01          -3.191000D-03
S   9   1.00
      6.665000D+03          -1.460000D-04
      1.000000D+03          -1.154000D-03
      2.280000D+02          -5.725000D-03
      6.471000D+01          -2.331200D-02
      2.106000D+01          -6.395500D-02
      7.495000D+00          -1.499810D-01
      2.797000D+00          -1.272620D-01
      5.215000D-01           5.445290D-01
      1.596000D-01           5.804960D-01
S   1   1.00
      1.596000D-01           1.000000D+00
S   1   1.00
      0.0469000              1.0000000
P   4   1.00
      9.439000D+00           3.810900D-02
      2.002000D+00           2.094800D-01
      5.456000D-01           5.085570D-01
      1.517000D-01           4.688420D-01
P   1   1.00
      1.517000D-01           1.000000D+00
P   1   1.00
      0.0573089      1.0000000
P   1   1.00
      0.0286544      1.0000000
D   1   1.00
      5.500000D-01           1.0000000
****
H 3
cc-pVDZ
****
H 4
cc-pVDZ
****
H 5
cc-pVDZ
****
H 6
cc-pVDZ
****
H 7
aug-cc-pVDZ
****
$end
--------------------------------------------------------------
 ----------------------------------------------------------------
             Standard Nuclear Orientation (Angstroms)
    I     Atom           X                Y                Z
 ----------------------------------------------------------------
    1      C      -0.6645000000    -0.0000000000    -0.1764707059
    2      C       0.6645000000     0.0000000000    -0.1764707059
    3      H      -1.1590800000    -0.0000000000     0.7858782941
    4      H       1.1590800000     0.0000000000     0.7858782941
    5      H      -1.1590800000    -0.0000000000    -1.1388187059
    6      H       1.1590800000     0.0000000000    -1.1388187059
    7      H       0.0000000000     0.0000000000     2.8235292941
 ----------------------------------------------------------------
 Molecular Point Group                 C2v   NOp =  4
 Largest Abelian Subgroup              C2v   NOp =  4
 Nuclear Repulsion Energy =          36.36366470 hartrees
 There are        9 alpha and        9 beta electrons
 Requested basis set is non-standard
 There are 33 shells and 67 basis functions
 Total memory of 95000 MB is distributed as follows: 
   MEM_STATIC is set to 192 MB
   QALLOC/CCMAN JOB total memory use is  94808 MB
 Warning: actual memory use might exceed 95000 MB

 Total QAlloc Memory Limit  95000 MB
 Mega-Array Size       188 MB
 MEM_STATIC part       192 MB

                       Distance Matrix (Angstroms)
             C (  1)   C (  2)   H (  3)   H (  4)   H (  5)   H (  6)
   C (  2)  1.329000
   H (  3)  1.082000  2.061931
   H (  4)  2.061931  1.082000  2.318160
   H (  5)  1.082000  2.061931  1.924697  3.013026
   H (  6)  2.061931  1.082000  3.013026  1.924697  2.318160
   H (  7)  3.072712  3.072712  2.344246  2.344246  4.128398  4.128398

 
 A cutoff of  1.0D-14 yielded    561 shell pairs
 There are      2337 function pairs (      2484 Cartesian)
 Smallest overlap matrix eigenvalue = 2.08E-04

 Scale SEOQF with 1.000000e-01/1.000000e-01/1.000000e-01

 Standard Electronic Orientation quadrupole field applied
 Nucleus-field energy     =    -0.0000000009 hartrees
 ================ Generating on-the-fly SAD Guess ================
Attempting to make child job directory: /src/jdavis/qchem.scratch/qchem23159//Frg1/
Attempting to make child job directory: /src/jdavis/qchem.scratch/qchem23159//Frg2/
Creating input file /src/jdavis/qchem.scratch/qchem23159/Frg1.input
using default PutDataFrgm: nothing
calling putenv with: QCSCRATCH=/src/jdavis/qchem.scratch/qchem23159/ 
Spawning Job For Fragment 0
Done Job For Fragment 0
calling putenv with: QCSCRATCH=/src/jdavis/qchem.scratch 
calling putenv with: QCTHREADS=1 
Creating input file /src/jdavis/qchem.scratch/qchem23159/Frg2.input
using default PutDataFrgm: nothing
calling putenv with: QCSCRATCH=/src/jdavis/qchem.scratch/qchem23159/ 
Spawning Job For Fragment 1
Done Job For Fragment 1
calling putenv with: QCSCRATCH=/src/jdavis/qchem.scratch 
calling putenv with: QCTHREADS=1 
 Time for running child jobs:  CPU 1.77 s  wall 54.44 s
 ============= Method Specific SAD Guess Constructed =============
 Guess from on-the-fly superposition of atomic densities
 Warning: Energy on first SCF cycle will be non-variational
 A restricted Hartree-Fock SCF calculation will be
 performed using Pulay DIIS extrapolation
 SCF converges when DIIS error is below 1.0E-08
 using 10 threads for integral computing
 -------------------------------------------------------
 OpenMP Integral computing Module                
 Release: version 1.0, May 2013, Q-Chem Inc. Pittsburgh 
 -------------------------------------------------------
 ---------------------------------------
  Cycle       Energy         DIIS Error
 ---------------------------------------
    1     -78.8141478615      7.37E-02
    2     -78.4599833227      6.97E-03
    3     -78.5091895330      1.74E-03
    4     -78.5118771524      5.53E-04
    5     -78.5121981204      1.22E-04
    6     -78.5122244407      2.89E-05
    7     -78.5122268084      7.77E-06
    8     -78.5122270321      1.15E-06
    9     -78.5122270381      2.74E-07
   10     -78.5122270386      5.87E-08
   11     -78.5122270386      1.27E-08
   12     -78.5122270387      1.82E-09 Convergence criterion met
 ---------------------------------------
 SCF time:  CPU 10.50 s  wall 1.06 s
 SCF   energy in the final basis set = -78.51222704
 Total energy in the final basis set = -78.51222704
================================================================================
|                                                                              |
|                                 A D C  M A N                                 |
|                                                                              |
 ------------------------------------------------------------------------------ 
|                                                                              |
| Components:                                                                  |
|                                                                              |
| - libvmm - 1.3-trunk                                                         |
|   Authors:                                                                   |
|   Evgeny Epifanovsky, Ilya Kaliman                                           |
|                                                                              |
| - libtensor - 2.5-trunk                                                      |
|   Authors:                                                                   |
|   Evgeny Epifanovsky, Michael Wormit, Dmitry Zuev, Sam Manzer,               |
|   Ilya Kaliman                                                               |
|                                                                              |
| - libwfa - 1.1-trunk                                                         |
|   Authors:                                                                   |
|   Felix Plasser, Stefanie Mewes (Baeppler), Benjamin Thomitzni,              |
|   Michael Wormit, Feng Chen, Anna I. Krylov, Pavel Pokhilko                  |
|                                                                              |
| - libadc - 1.1-trunk                                                         |
|   Authors:                                                                   |
|   Michael Wormit, Adrian L. Dempwolff, Philipp H. P. Harbach,                |
|   Caroline Krauter, Dirk Rehn, Matthias Schneider, Jan Wenzel                |
|                                                                              |
| - adcman - 2.6-trunk                                                         |
|   Authors:                                                                   |
|   Michael Wormit, Adrian L. Dempwolff, Philipp H. P. Harbach,                |
|   Caroline Krauter, Daniel Lefrancois, Jan-Michael Mewes, Dirk Rehn,         |
|   Matthias Schneider, Jan Wenzel, Andreas Dreuw                              |
|                                                                              |
| Authors of earlier versions of ADCMAN:                                       |
| Andreas Dreuw, Jan Hendrik Starcke, Dirk Rehn, Michael Wormit                |
|                                                                              |
================================================================================

 
 Alpha MOs, Restricted
 -- Occupied --                  
-11.069 -11.067  -0.875  -0.618  -0.492  -0.403  -0.346  -0.212
  1 A1    1 B1    2 A1    2 B1    3 A1    4 A1    3 B1    1 B2                 
 -0.031
  5 A1                                                                         
 -- Virtual --                   
  0.153   0.178   0.179   0.185   0.187   0.199   0.280   0.298
  4 B1    6 A1    2 B2    1 A2    7 A1    5 B1    8 A1    2 A2                 
  0.316   0.372   0.386   0.398   0.403   0.404   0.482   0.483
  6 B1    9 A1    7 B1    8 B1    3 B2   10 A1   11 A1    3 A2                 
  0.504   0.512   0.689   0.739   0.918   1.016   1.033   1.044
 12 A1    9 B1   10 B1   11 B1   13 A1   14 A1   15 A1   16 A1                 
  1.088   1.135   1.136   1.180   1.201   1.231   1.248   1.281
 12 B1    4 B2   17 A1    4 A2   13 B1   14 B1   18 A1    5 B2                 
  1.439   1.449   1.452   1.529   1.779   1.784   1.888   1.889
 15 B1    6 B2    5 A2   16 B1   19 A1   17 B1   20 A1    7 B2                 
  1.939   1.992   2.027   2.103   2.106   2.188   2.193   2.250
 18 B1   21 A1    6 A2   19 B1    8 B2    9 B2   22 A1   23 A1                 
  2.340   2.489   2.580   2.633   2.734   2.759   2.968   2.999
  7 A2   20 B1    8 A2   24 A1   21 B1   22 B1   25 A1   26 A1                 
  3.407   3.509
 23 B1   24 B1                                                                 
 
 Beta MOs, Restricted
 -- Occupied --                  
-11.069 -11.067  -0.875  -0.618  -0.492  -0.403  -0.346  -0.212
  1 A1    1 B1    2 A1    2 B1    3 A1    4 A1    3 B1    1 B2                 
 -0.031
  5 A1                                                                         
 -- Virtual --                   
  0.153   0.178   0.179   0.185   0.187   0.199   0.280   0.298
  4 B1    6 A1    2 B2    1 A2    7 A1    5 B1    8 A1    2 A2                 
  0.316   0.372   0.386   0.398   0.403   0.404   0.482   0.483
  6 B1    9 A1    7 B1    8 B1    3 B2   10 A1   11 A1    3 A2                 
  0.504   0.512   0.689   0.739   0.918   1.016   1.033   1.044
 12 A1    9 B1   10 B1   11 B1   13 A1   14 A1   15 A1   16 A1                 
  1.088   1.135   1.136   1.180   1.201   1.231   1.248   1.281
 12 B1    4 B2   17 A1    4 A2   13 B1   14 B1   18 A1    5 B2                 
  1.439   1.449   1.452   1.529   1.779   1.784   1.888   1.889
 15 B1    6 B2    5 A2   16 B1   19 A1   17 B1   20 A1    7 B2                 
  1.939   1.992   2.027   2.103   2.106   2.188   2.193   2.250
 18 B1   21 A1    6 A2   19 B1    8 B2    9 B2   22 A1   23 A1                 
  2.340   2.489   2.580   2.633   2.734   2.759   2.968   2.999
  7 A2   20 B1    8 A2   24 A1   21 B1   22 B1   25 A1   26 A1                 
  3.407   3.509
 23 B1   24 B1                                                                 

--------------------------------------------------------------------------------
                                   HF Summary                                   
--------------------------------------------------------------------------------
  Energy:                                                  -78.5122270387 a.u.
  Dip. moment [a.u.]:                  [   0.000000,    0.000000,   -4.275815]
  Total dipole [Debye]:                                              10.868041
  <r^2> [a.u.]:                        [  53.001342,   16.964678,   83.806204]
  Total <r^2> [a.u.]:                                               153.772224
--------------------------------------------------------------------------------

--------------------------------------------------------------------------------
                                 MP(2) Summary                                  
--------------------------------------------------------------------------------
  MP energy contribution:                                   -0.3057476708 a.u.
  Total energy:                                            -78.8179747095 a.u.
  Dip. moment [a.u.]:                  [   0.000000,    0.000000,   -4.113805]
  Total dipole [Debye]:                                              10.456251
  <r^2> [a.u.]:                        [  53.513196,   17.111484,   83.586237]
  Total <r^2> [a.u.]:                                               154.210916

  Density matrix analysis:
  ------------------------
  NOs
    Occupation of frontier NOs:
       0.0449   1.9361
    Number of electrons: 18.000000
    Number of unpaired electrons: n_u =  0.46741, n_u,nl =  0.05144
    NO participation ratio (PR_NO): 16.306628
  
  
  Mulliken Population Analysis
  Atom      Charge (e)              h+              e-           Del q
  --------------------------------------------------------------------
   1 C       -0.372875        0.088864       -0.118127       -0.029263
   2 C       -0.372875        0.088864       -0.118127       -0.029263
   3 H        0.141841        0.015452       -0.017938       -0.002486
   4 H        0.141841        0.015452       -0.017938       -0.002486
   5 H        0.029217        0.019279       -0.011610        0.007669
   6 H        0.029217        0.019279       -0.011610        0.007669
   7 H       -0.596365        0.061419       -0.013258        0.048161
  --------------------------------------------------------------------
  Sum:       -1.000000        0.308608       -0.308608       -0.000000
  
  Multipole moment analysis of the density matrix
    Molecular charge:                      -1.000000
    Number of electrons:                   18.000000
      Center of electronic charge [Ang]: [ -0.000000,  -0.000000,   0.120941]
    Total nuclear charge:                  17.000000
      Center of nuclear charge [Ang]:    [ -0.000000,   0.000000,   0.000000]
    Dipole moment [D]:                     10.456248
      Cartesian components [D]:          [  0.000000,   0.000000, -10.456248]
    RMS size of the density [Ang]:         1.544168
      Cartesian components [Ang]:        [  0.912421,   0.515951,   1.133903]
  
  Exciton analysis of the difference density matrix
    <r_h> [Ang]:                  [ -0.000000,  -0.000000,   0.311580]
    <r_e> [Ang]:                  [ -0.000000,  -0.000000,   0.033778]
    |<r_e - r_h>| [Ang]:            0.277803
    Hole size [Ang]:                1.897663
      Cartesian components [Ang]: [  0.972429,   0.778227,   1.431736]
    Electron size [Ang]:            2.023643
      Cartesian components [Ang]: [  1.187464,   0.859563,   1.395067]
--------------------------------------------------------------------------------

--------------------------------------------------------------------------------
                                 MP(3) Summary                                  
--------------------------------------------------------------------------------
  MP energy contribution:                                   -0.0285844255 a.u.
  Total energy:                                            -78.8465591350 a.u.
--------------------------------------------------------------------------------
Less singles guess vectors found than requested: 85 (found), 100 (requested).
Adjusting number of doubles guess vectors to 15.
  Starting Davidson for singlet states of irrep A2 ... 
--------------------------------------------------------------------------------
   It NVec Conv  Avg. Norm  Max. Norm  Conv. states           Remark
--------------------------------------------------------------------------------
       100    0  7.211e-02  3.335e-01  0.1181 n n n n n n n n Guess.
    1  110    0  3.015e-02  1.791e-01  0.0810 n n n n n n n n 
    2  120    0  1.730e-02  8.169e-02  0.0780 n n n n n n n n 
    3  130    0  1.413e-02  1.037e-01  0.0778 n n n n n n n n 
    4  140    0  5.915e-03  3.630e-02  0.0778 n n n n n n n n 
    5  150    0  3.145e-03  2.297e-02  0.0778 n n n n n n n n 
    6  160    0  4.202e-03  3.549e-02  0.0778 n n n n n n n n 
    7  170    1  2.415e-03  2.357e-02  0.0778 y n n n n n n n 
    8  180    2  9.542e-04  9.090e-03  0.0778 y y n n n n n n 
    9  190    4  3.847e-04  3.174e-03  0.0778 y y y n y n n n 
   10  200    4  1.592e-04  1.190e-03  0.0778 y y y n y n n n 
   11   20    5  6.372e-05  4.937e-04  0.0778 y y y y y n n n Subspace collapsed.
   12   30    7  4.464e-05  3.782e-04  0.0778 y y y y y y y n 
   13   40    8  2.974e-05  2.757e-04  0.0778 y y y y y y y y 
   14   50    8  1.337e-05  1.209e-04  0.0778 y y y y y y y y 
   15   60    8  7.743e-06  7.282e-05  0.0778 y y y y y y y y 
   16   70    8  4.638e-06  4.443e-05  0.0778 y y y y y y y y 
   17   80    8  6.138e-06  6.036e-05  0.0778 y y y y y y y y 
   18   90    9  8.986e-06  8.937e-05  0.0778 y y y y y y y y 
   19  100    9  1.288e-05  1.286e-04  0.0778 y y y y y y y y 
   20  110    9  1.298e-05  1.297e-04  0.0778 y y y y y y y y 
   21  120    9  1.070e-05  1.069e-04  0.0778 y y y y y y y y 
   22  130    9  7.225e-06  7.224e-05  0.0778 y y y y y y y y 
   23  139    9  3.021e-06  3.021e-05  0.0778 y y y y y y y y 
   24  148    9  1.151e-06  1.151e-05  0.0778 y y y y y y y y 
   25  156   10  4.401e-07  4.401e-06  0.0778 y y y y y y y y Converged.
--------------------------------------------------------------------------------
  Davidson Summary: 
 ------------------------------------------------------------
  State  0: excitation energy =   0.0778 a.u.   (converged)
  State  1: excitation energy =   0.1291 a.u.   (converged)
  State  2: excitation energy =   0.2329 a.u.   (converged)
  State  3: excitation energy =   0.2383 a.u.   (converged)
  State  4: excitation energy =   0.2861 a.u.   (converged)
  State  5: excitation energy =   0.3149 a.u.   (converged)
  State  6: excitation energy =   0.3313 a.u.   (converged)
  State  7: excitation energy =   0.3387 a.u.   (converged)
  State  8: excitation energy =   0.3440 a.u.   (converged)
  State  9: excitation energy =   0.3499 a.u.   (converged)
 ------------------------------------------------------------


--------------------------------------------------------------------------------
                   State-averaged natural transition orbitals
--------------------------------------------------------------------------------
--------------------------------------------------------------------------------

--------------------------------------------------------------------------------
                             Excited State Summary
--------------------------------------------------------------------------------
--------------------------------------------------------------------------------

  Excited state 1 (singlet, A2)                                    [converged]
  ----------------------------------------------------------------------------
  Term symbol:  1 (1) A2                                    R^2 =  5.88839e-15

  Total energy:                                            -78.7687814019 a.u.
  Excitation energy:                                               2.116440 eV

  Osc. strength:                                                      0.000000
  Trans. dip. moment [a.u.]:           [  -0.000000,    0.000000,    0.000000]
  <i|r^2|0> [a.u.]:                    [   0.000000,    0.000000,    0.000000]

  Dip. moment [a.u.]:                  [  -0.000000,    0.000000,    0.445503]
  Total dipole [Debye]:                                               1.132356
  <r^2> [a.u.]:                        [  74.830187,   37.952421,   62.573491]
  Total <r^2> [a.u.]:                                               175.356099

  V1^2 = 0.8801, V2^2 = 0.1199

  Important amplitudes:
      occ i      occ j       vir a       vir b          v   
    ---------------------------------------------------------
     5 (A1) A               1 (A2) A                  0.6190
     5 (A1) A               2 (A2) A                  0.2361
    ---------------------------------------------------------

  Density matrix analysis:
  ------------------------
  NOs
    Occupation of frontier NOs:
       0.9867   0.9913
    Number of electrons: 18.000000
    Number of unpaired electrons: n_u =  2.43023, n_u,nl =  2.05088
    NO participation ratio (PR_NO):  2.998434
  
  
  Mulliken Population Analysis
  Atom      Charge (e)              h+              e-           Del q
  --------------------------------------------------------------------
   1 C       -0.651070        0.266354       -0.544549       -0.278195
   2 C       -0.651070        0.266354       -0.544549       -0.278195
   3 H        0.078211        0.028182       -0.091812       -0.063630
   4 H        0.078211        0.028182       -0.091812       -0.063630
   5 H        0.064053        0.035357       -0.000521        0.034836
   6 H        0.064053        0.035357       -0.000521        0.034836
   7 H        0.017614        0.707112       -0.093133        0.613979
  --------------------------------------------------------------------
  Sum:       -1.000000        1.366897       -1.366897        0.000000
  
  Multipole moment analysis of the density matrix
    Molecular charge:                      -1.000000
    Number of electrons:                   18.000000
      Center of electronic charge [Ang]: [  0.000000,  -0.000000,  -0.013097]
    Total nuclear charge:                  17.000000
      Center of nuclear charge [Ang]:    [ -0.000000,   0.000000,   0.000000]
    Dipole moment [D]:                     1.132355
      Cartesian components [D]:          [ -0.000000,   0.000000,   1.132355]
    RMS size of the density [Ang]:         1.651626
      Cartesian components [Ang]:        [  1.078955,   0.768395,   0.986556]
  
  Exciton analysis of the difference density matrix
    <r_h> [Ang]:                  [ -0.000000,   0.000000,   1.926718]
    <r_e> [Ang]:                  [  0.000000,  -0.000000,   0.161638]
    |<r_e - r_h>| [Ang]:            1.765080
    Hole size [Ang]:                2.398042
      Cartesian components [Ang]: [  1.115092,   1.035467,   1.853371]
    Electron size [Ang]:            3.710609
      Cartesian components [Ang]: [  2.368654,   2.311225,   1.678194]

  Transition density matrix analysis:
  -----------------------------------
  
  CT numbers (Mulliken)
    omega =     0.8661
    <Phe> =     0.0009
  
  Exciton analysis of the transition density matrix
    Trans. dipole moment [D]:             0.000000
      Cartesian components [D]:         [ -0.000000,   0.000000,   0.000000]
    <r_h> [Ang]:                        [ -0.000000,   0.000000,   2.587219]
    <r_e> [Ang]:                        [  0.000000,  -0.000000,  -0.175998]
    |<r_e - r_h>| [Ang]:                  2.763217
    Hole size [Ang]:                      1.765118
      Cartesian components [Ang]:       [  0.879731,   0.860124,   1.265662]
    Electron size [Ang]:                  4.046910
      Cartesian components [Ang]:       [  2.675439,   2.628805,   1.519504]
    RMS electron-hole separation [Ang]:   5.206960
      Cartesian components [Ang]:       [  2.813975,   2.765502,   3.397937]
    Covariance(r_h, r_e) [Ang^2]:         0.008024
    Correlation coefficient:              0.001123
    Center-of-mass size [Ang]:            2.208459
      Cartesian components [Ang]:       [  1.409374,   1.383190,   0.988809]

  Decomposition into state-averaged NTOs
    H- 0 -> L+ 0:  0.4731 ( 44.8%)
    H- 0 -> L+ 3: -0.4309 ( 37.1%)
    H- 0 -> L+ 4:  0.1527 (  4.7%)
                   omega =  86.6%
  ----------------------------------------------------------------------------


  Excited state 2 (singlet, A2)                                    [converged]
  ----------------------------------------------------------------------------
  Term symbol:  2 (1) A2                                    R^2 =  3.73205e-15

  Total energy:                                            -78.7174206388 a.u.
  Excitation energy:                                               3.514037 eV

  Osc. strength:                                                      0.000000
  Trans. dip. moment [a.u.]:           [  -0.000000,   -0.000000,   -0.000000]
  <i|r^2|0> [a.u.]:                    [  -0.000000,   -0.000000,   -0.000000]

  Dip. moment [a.u.]:                  [  -0.000000,    0.000000,    0.433028]
  Total dipole [Debye]:                                               1.100648
  <r^2> [a.u.]:                        [  67.224720,   30.405899,   60.834199]
  Total <r^2> [a.u.]:                                               158.464818

  V1^2 = 0.8526, V2^2 = 0.1474

  Important amplitudes:
      occ i      occ j       vir a       vir b          v   
    ---------------------------------------------------------
     5 (A1) A               2 (A2) A                  0.5887
     5 (A1) A               1 (A2) A                 -0.2455
    ---------------------------------------------------------

  Density matrix analysis:
  ------------------------
  NOs
    Occupation of frontier NOs:
       0.9826   0.9832
    Number of electrons: 18.000000
    Number of unpaired electrons: n_u =  2.45794, n_u,nl =  2.05799
    NO participation ratio (PR_NO):  3.101874
  
  
  Mulliken Population Analysis
  Atom      Charge (e)              h+              e-           Del q
  --------------------------------------------------------------------
   1 C       -0.582905        0.349317       -0.559347       -0.210030
   2 C       -0.582905        0.349317       -0.559347       -0.210030
   3 H        0.040257        0.030570       -0.132154       -0.101583
   4 H        0.040257        0.030570       -0.132154       -0.101583
   5 H        0.029487        0.013047       -0.012776        0.000271
   6 H        0.029487        0.013047       -0.012776        0.000271
   7 H        0.026321        0.702876       -0.080190        0.622686
  --------------------------------------------------------------------
  Sum:       -1.000000        1.488743       -1.488743       -0.000000
  
  Multipole moment analysis of the density matrix
    Molecular charge:                      -1.000000
    Number of electrons:                   18.000000
      Center of electronic charge [Ang]: [  0.000000,  -0.000000,  -0.012730]
    Total nuclear charge:                  17.000000
      Center of nuclear charge [Ang]:    [ -0.000000,   0.000000,   0.000000]
    Dipole moment [D]:                     1.100647
      Cartesian components [D]:          [ -0.000000,   0.000000,   1.100647]
    RMS size of the density [Ang]:         1.570063
      Cartesian components [Ang]:        [  1.022656,   0.687771,   0.972751]
  
  Exciton analysis of the difference density matrix
    <r_h> [Ang]:                  [ -0.000000,   0.000000,   1.768281]
    <r_e> [Ang]:                  [  0.000000,  -0.000000,   0.152098]
    |<r_e - r_h>| [Ang]:            1.616183
    Hole size [Ang]:                2.366919
      Cartesian components [Ang]: [  1.096488,   1.030903,   1.826816]
    Electron size [Ang]:            3.083202
      Cartesian components [Ang]: [  1.944579,   1.887698,   1.470151]

  Transition density matrix analysis:
  -----------------------------------
  
  CT numbers (Mulliken)
    omega =     0.8322
    <Phe> =    -0.0005
  
  Exciton analysis of the transition density matrix
    Trans. dipole moment [D]:             0.000000
      Cartesian components [D]:         [ -0.000000,  -0.000000,  -0.000000]
    <r_h> [Ang]:                        [ -0.000000,   0.000000,   2.576792]
    <r_e> [Ang]:                        [  0.000000,  -0.000000,  -0.175086]
    |<r_e - r_h>| [Ang]:                  2.751879
    Hole size [Ang]:                      1.769131
      Cartesian components [Ang]:       [  0.878110,   0.857182,   1.274358]
    Electron size [Ang]:                  3.312781
      Cartesian components [Ang]:       [  2.201514,   2.140642,   1.243183]
    RMS electron-hole separation [Ang]:   4.653585
      Cartesian components [Ang]:       [  2.366450,   2.305284,   3.277413]
    Covariance(r_h, r_e) [Ang^2]:         0.010660
    Correlation coefficient:              0.001819
    Center-of-mass size [Ang]:            1.879206
      Cartesian components [Ang]:       [  1.186950,   1.153243,   0.890278]

  Decomposition into state-averaged NTOs
    H- 0 -> L+ 3:  0.4795 ( 46.0%)
    H- 0 -> L+ 0:  0.4283 ( 36.7%)
                   omega =  83.2%
  ----------------------------------------------------------------------------


  Excited state 3 (singlet, A2)                                    [converged]
  ----------------------------------------------------------------------------
  Term symbol:  3 (1) A2                                    R^2 =  1.06561e-13

  Total energy:                                            -78.6136192743 a.u.
  Excitation energy:                                               6.338616 eV

  Osc. strength:                                                      0.000000
  Trans. dip. moment [a.u.]:           [  -0.000000,   -0.000000,   -0.000000]
  <i|r^2|0> [a.u.]:                    [   0.000000,    0.000000,   -0.000000]

  Dip. moment [a.u.]:                  [  -0.000000,   -0.000000,   -1.854972]
  Total dipole [Debye]:                                               4.714868
  <r^2> [a.u.]:                        [  89.572254,   24.480308,   93.206328]
  Total <r^2> [a.u.]:                                               207.258889

  V1^2 = 0.9226, V2^2 = 0.0774

  Important amplitudes:
      occ i      occ j       vir a       vir b          v   
    ---------------------------------------------------------
     1 (B2) A               4 (B1) A                  0.6555
     1 (B2) A               6 (B1) A                  0.1412
    ---------------------------------------------------------

  Density matrix analysis:
  ------------------------
  NOs
    Occupation of frontier NOs:
       0.9792   0.9865
    Number of electrons: 18.000000
    Number of unpaired electrons: n_u =  2.37609, n_u,nl =  2.03421
    NO participation ratio (PR_NO):  2.908619
  
  
  Mulliken Population Analysis
  Atom      Charge (e)              h+              e-           Del q
  --------------------------------------------------------------------
   1 C       -0.506326        0.543523       -0.676973       -0.133450
   2 C       -0.506326        0.543523       -0.676973       -0.133450
   3 H        0.192807        0.073516       -0.022550        0.050966
   4 H        0.192807        0.073516       -0.022550        0.050966
   5 H        0.097018        0.122248       -0.054447        0.067802
   6 H        0.097018        0.122248       -0.054447        0.067802
   7 H       -0.567000        0.086928       -0.057563        0.029365
  --------------------------------------------------------------------
  Sum:       -1.000000        1.565503       -1.565503        0.000000
  
  Multipole moment analysis of the density matrix
    Molecular charge:                      -1.000000
    Number of electrons:                   18.000000
      Center of electronic charge [Ang]: [  0.000000,   0.000000,   0.054534]
    Total nuclear charge:                  17.000000
      Center of nuclear charge [Ang]:    [ -0.000000,   0.000000,   0.000000]
    Dipole moment [D]:                     4.714867
      Cartesian components [D]:          [ -0.000000,  -0.000000,  -4.714867]
    RMS size of the density [Ang]:         1.794821
      Cartesian components [Ang]:        [  1.180461,   0.617125,   1.202934]
  
  Exciton analysis of the difference density matrix
    <r_h> [Ang]:                  [ -0.000000,  -0.000000,  -0.016430]
    <r_e> [Ang]:                  [  0.000000,   0.000000,  -0.779969]
    |<r_e - r_h>| [Ang]:            0.763539
    Hole size [Ang]:                2.004914
      Cartesian components [Ang]: [  1.122216,   0.951169,   1.362200]
    Electron size [Ang]:            3.591730
      Cartesian components [Ang]: [  2.776583,   1.490912,   1.722874]

  Transition density matrix analysis:
  -----------------------------------
  
  CT numbers (Mulliken)
    omega =     0.8927
    <Phe> =    -0.0020
  
  Exciton analysis of the transition density matrix
    Trans. dipole moment [D]:             0.000000
      Cartesian components [D]:         [ -0.000000,  -0.000000,  -0.000000]
    <r_h> [Ang]:                        [ -0.000000,  -0.000000,  -0.183681]
    <r_e> [Ang]:                        [  0.000000,   0.000000,  -1.350509]
    |<r_e - r_h>| [Ang]:                  1.166828
    Hole size [Ang]:                      1.278129
      Cartesian components [Ang]:       [  0.763923,   0.882261,   0.521202]
    Electron size [Ang]:                  4.149008
      Cartesian components [Ang]:       [  3.377941,   1.776513,   1.627201]
    RMS electron-hole separation [Ang]:   4.485625
      Cartesian components [Ang]:       [  3.453908,   1.977951,   2.068588]
    Covariance(r_h, r_e) [Ang^2]:         0.044270
    Correlation coefficient:              0.008348
    Center-of-mass size [Ang]:            2.175800
      Cartesian components [Ang]:       [  1.736278,   0.994544,   0.854591]

  Decomposition into state-averaged NTOs
    H- 1 -> L+ 1: -0.6635 ( 88.1%)
    H- 1 -> L+ 2: -0.0760 (  1.2%)
                   omega =  89.3%
  ----------------------------------------------------------------------------


  Excited state 4 (singlet, A2)                                    [converged]
  ----------------------------------------------------------------------------
  Term symbol:  4 (1) A2                                    R^2 =  3.74787e-13

  Total energy:                                            -78.6082504815 a.u.
  Excitation energy:                                               6.484708 eV

  Osc. strength:                                                      0.000000
  Trans. dip. moment [a.u.]:           [  -0.000000,   -0.000000,    0.000000]
  <i|r^2|0> [a.u.]:                    [   0.000000,   -0.000000,    0.000000]

  Dip. moment [a.u.]:                  [   0.000000,   -0.000000,    1.181931]
  Total dipole [Debye]:                                               3.004170
  <r^2> [a.u.]:                        [  66.914845,   53.344768,   66.993800]
  Total <r^2> [a.u.]:                                               187.253413

  V1^2 = 0.0307, V2^2 = 0.9693

  Important amplitudes:
      occ i      occ j       vir a       vir b          v   
    ---------------------------------------------------------
     5 (A1) A   1 (B2) B    2 (A2) A    2 (B2) B     -0.2417
     5 (A1) A   1 (B2) B    2 (B2) A    2 (A2) B     -0.1247
    ---------------------------------------------------------

  Density matrix analysis:
  ------------------------
  NOs
    Occupation of frontier NOs:
       0.9714   1.0052
    Number of electrons: 18.000000
    Number of unpaired electrons: n_u =  4.15860, n_u,nl =  3.98994
    NO participation ratio (PR_NO):  4.839576
  
  
  Mulliken Population Analysis
  Atom      Charge (e)              h+              e-           Del q
  --------------------------------------------------------------------
   1 C       -0.778774        0.566966       -0.972864       -0.405898
   2 C       -0.778774        0.566966       -0.972864       -0.405898
   3 H        0.145773        0.015480       -0.011548        0.003932
   4 H        0.145773        0.015480       -0.011548        0.003932
   5 H        0.025721        0.003206       -0.006701       -0.003496
   6 H        0.025721        0.003206       -0.006701       -0.003496
   7 H        0.214559        0.812717       -0.001793        0.810924
  --------------------------------------------------------------------
  Sum:       -1.000000        1.984020       -1.984020        0.000000
  
  Multipole moment analysis of the density matrix
    Molecular charge:                      -1.000000
    Number of electrons:                   18.000000
      Center of electronic charge [Ang]: [ -0.000000,   0.000000,  -0.034747]
    Total nuclear charge:                  17.000000
      Center of nuclear charge [Ang]:    [ -0.000000,   0.000000,   0.000000]
    Dipole moment [D]:                     3.004169
      Cartesian components [D]:          [  0.000000,  -0.000000,   3.004169]
    RMS size of the density [Ang]:         1.706435
      Cartesian components [Ang]:        [  1.020296,   0.910984,   1.020306]
  
  Exciton analysis of the difference density matrix
    <r_h> [Ang]:                  [ -0.000000,  -0.000000,   1.246159]
    <r_e> [Ang]:                  [ -0.000000,   0.000000,  -0.166319]
    |<r_e - r_h>| [Ang]:            1.412477
    Hole size [Ang]:                2.057230
      Cartesian components [Ang]: [  0.808015,   0.872787,   1.678557]
    Electron size [Ang]:            3.228178
      Cartesian components [Ang]: [  1.595125,   2.424004,   1.414536]

  Transition density matrix analysis:
  -----------------------------------
  
  CT numbers (Mulliken)
    omega =     0.0303
    <Phe> =     0.0010
  
  Exciton analysis of the transition density matrix
    Trans. dipole moment [D]:             0.000000
      Cartesian components [D]:         [ -0.000000,  -0.000000,   0.000000]
    <r_h> [Ang]:                        [ -0.000000,   0.000000,   2.516505]
    <r_e> [Ang]:                        [  0.000000,  -0.000000,  -0.182538]
    |<r_e - r_h>| [Ang]:                  2.699043
    Hole size [Ang]:                      1.824805
      Cartesian components [Ang]:       [  0.893081,   0.861556,   1.337924]
    Electron size [Ang]:                  3.597607
      Cartesian components [Ang]:       [  2.365595,   2.342719,   1.363233]
    RMS electron-hole separation [Ang]:   4.849188
      Cartesian components [Ang]:       [  2.528418,   2.494686,   3.301254]
    Covariance(r_h, r_e) [Ang^2]:         0.021447
    Correlation coefficient:              0.003267
    Center-of-mass size [Ang]:            2.019628
      Cartesian components [Ang]:       [  1.264354,   1.248776,   0.959615]

  Decomposition into state-averaged NTOs
    H- 0 -> L+ 4: -0.0864 (  1.5%)
                   omega =   3.0%
  ----------------------------------------------------------------------------


  Excited state 5 (singlet, A2)                                    [converged]
  ----------------------------------------------------------------------------
  Term symbol:  5 (1) A2                                    R^2 =  9.62677e-13

  Total energy:                                            -78.5604416895 a.u.
  Excitation energy:                                               7.785652 eV

  Osc. strength:                                                      0.000000
  Trans. dip. moment [a.u.]:           [  -0.000000,   -0.000000,   -0.000000]
  <i|r^2|0> [a.u.]:                    [  -0.000000,    0.000000,    0.000000]

  Dip. moment [a.u.]:                  [  -0.000000,    0.000000,   -5.402669]
  Total dipole [Debye]:                                              13.732218
  <r^2> [a.u.]:                        [  85.710230,   24.331377,  105.383390]
  Total <r^2> [a.u.]:                                               215.424997

  V1^2 = 0.9040, V2^2 = 0.0960

  Important amplitudes:
      occ i      occ j       vir a       vir b          v   
    ---------------------------------------------------------
     1 (B2) A               5 (B1) A                 -0.6562
     1 (B2) A               8 (B1) A                 -0.0982
    ---------------------------------------------------------

  Density matrix analysis:
  ------------------------
  NOs
    Occupation of frontier NOs:
       0.9817   0.9865
    Number of electrons: 18.000000
    Number of unpaired electrons: n_u =  2.39531, n_u,nl =  2.03829
    NO participation ratio (PR_NO):  2.946759
  
  
  Mulliken Population Analysis
  Atom      Charge (e)              h+              e-           Del q
  --------------------------------------------------------------------
   1 C       -0.504145        0.539889       -0.671159       -0.131269
   2 C       -0.504145        0.539889       -0.671159       -0.131269
   3 H        0.143196        0.086423       -0.085068        0.001355
   4 H        0.143196        0.086423       -0.085068        0.001355
   5 H        0.098951        0.099802       -0.030068        0.069734
   6 H        0.098951        0.099802       -0.030068        0.069734
   7 H       -0.476005        0.156464       -0.036104        0.120360
  --------------------------------------------------------------------
  Sum:       -1.000000        1.608692       -1.608692        0.000000
  
  Multipole moment analysis of the density matrix
    Molecular charge:                      -1.000000
    Number of electrons:                   18.000000
      Center of electronic charge [Ang]: [  0.000000,  -0.000000,   0.158832]
    Total nuclear charge:                  17.000000
      Center of nuclear charge [Ang]:    [ -0.000000,   0.000000,   0.000000]
    Dipole moment [D]:                     13.732214
      Cartesian components [D]:          [ -0.000000,   0.000000, -13.732214]
    RMS size of the density [Ang]:         1.823779
      Cartesian components [Ang]:        [  1.154732,   0.615245,   1.270526]
  
  Exciton analysis of the difference density matrix
    <r_h> [Ang]:                  [  0.000000,  -0.000000,   0.143287]
    <r_e> [Ang]:                  [  0.000000,  -0.000000,   0.567258]
    |<r_e - r_h>| [Ang]:            0.423970
    Hole size [Ang]:                2.006050
      Cartesian components [Ang]: [  1.100191,   0.917387,   1.404356]
    Electron size [Ang]:            3.791919
      Cartesian components [Ang]: [  2.610561,   1.448579,   2.337786]

  Transition density matrix analysis:
  -----------------------------------
  
  CT numbers (Mulliken)
    omega =     0.8746
    <Phe> =    -0.0006
  
  Exciton analysis of the transition density matrix
    Trans. dipole moment [D]:             0.000000
      Cartesian components [D]:         [ -0.000000,  -0.000000,  -0.000000]
    <r_h> [Ang]:                        [ -0.000000,  -0.000000,  -0.182742]
    <r_e> [Ang]:                        [  0.000000,  -0.000000,   0.741740]
    |<r_e - r_h>| [Ang]:                  0.924482
    Hole size [Ang]:                      1.278826
      Cartesian components [Ang]:       [  0.763863,   0.882711,   0.522235]
    Electron size [Ang]:                  4.569907
      Cartesian components [Ang]:       [  3.189824,   1.725453,   2.780627]
    RMS electron-hole separation [Ang]:   4.829558
      Cartesian components [Ang]:       [  3.272835,   1.937595,   2.976392]
    Covariance(r_h, r_e) [Ang^2]:         0.024741
    Correlation coefficient:              0.004234
    Center-of-mass size [Ang]:            2.375338
      Cartesian components [Ang]:       [  1.643584,   0.969337,   1.414655]

  Decomposition into state-averaged NTOs
    H- 1 -> L+ 2:  0.6563 ( 86.2%)
    H- 1 -> L+ 1: -0.0792 (  1.3%)
                   omega =  87.5%
  ----------------------------------------------------------------------------


  Excited state 6 (singlet, A2)                                    [converged]
  ----------------------------------------------------------------------------
  Term symbol:  6 (1) A2                                    R^2 =  6.66941e-11

  Total energy:                                            -78.5316272316 a.u.
  Excitation energy:                                               8.569733 eV

  Osc. strength:                                                      0.000000
  Trans. dip. moment [a.u.]:           [   0.000000,    0.000000,    0.000000]
  <i|r^2|0> [a.u.]:                    [  -0.000000,    0.000000,   -0.000000]

  Dip. moment [a.u.]:                  [  -0.000000,    0.000000,    0.483976]
  Total dipole [Debye]:                                               1.230145
  <r^2> [a.u.]:                        [  66.591209,   30.960762,   60.841386]
  Total <r^2> [a.u.]:                                               158.393357

  V1^2 = 0.8022, V2^2 = 0.1978

  Important amplitudes:
      occ i      occ j       vir a       vir b          v   
    ---------------------------------------------------------
     5 (A1) A               3 (A2) A                  0.6134
     5 (A1) A               2 (A2) A                  0.1452
    ---------------------------------------------------------

  Density matrix analysis:
  ------------------------
  NOs
    Occupation of frontier NOs:
       0.9006   0.9794
    Number of electrons: 18.000000
    Number of unpaired electrons: n_u =  2.61883, n_u,nl =  2.14598
    NO participation ratio (PR_NO):  3.775479
  
  
  Mulliken Population Analysis
  Atom      Charge (e)              h+              e-           Del q
  --------------------------------------------------------------------
   1 C       -0.619631        0.311581       -0.558336       -0.246756
   2 C       -0.619631        0.311581       -0.558336       -0.246756
   3 H        0.061425        0.023276       -0.103691       -0.080416
   4 H        0.061425        0.023276       -0.103691       -0.080416
   5 H        0.039643        0.013597       -0.003171        0.010427
   6 H        0.039643        0.013597       -0.003171        0.010427
   7 H        0.037125        0.706925       -0.073435        0.633490
  --------------------------------------------------------------------
  Sum:       -1.000000        1.403831       -1.403831       -0.000000
  
  Multipole moment analysis of the density matrix
    Molecular charge:                      -1.000000
    Number of electrons:                   18.000000
      Center of electronic charge [Ang]: [  0.000000,  -0.000000,  -0.014228]
    Total nuclear charge:                  17.000000
      Center of nuclear charge [Ang]:    [ -0.000000,   0.000000,   0.000000]
    Dipole moment [D]:                     1.230145
      Cartesian components [D]:          [ -0.000000,   0.000000,   1.230145]
    RMS size of the density [Ang]:         1.569696
      Cartesian components [Ang]:        [  1.017825,   0.694018,   0.972787]
  
  Exciton analysis of the difference density matrix
    <r_h> [Ang]:                  [ -0.000000,   0.000000,   1.864957]
    <r_e> [Ang]:                  [  0.000000,  -0.000000,   0.131814]
    |<r_e - r_h>| [Ang]:            1.733143
    Hole size [Ang]:                2.331617
      Cartesian components [Ang]: [  1.076460,   1.012782,   1.803315]
    Electron size [Ang]:            3.119522
      Cartesian components [Ang]: [  1.941004,   1.946357,   1.474997]

  Transition density matrix analysis:
  -----------------------------------
  
  CT numbers (Mulliken)
    omega =     0.7893
    <Phe> =    -0.0003
  
  Exciton analysis of the transition density matrix
    Trans. dipole moment [D]:             0.000000
      Cartesian components [D]:         [  0.000000,   0.000000,   0.000000]
    <r_h> [Ang]:                        [ -0.000000,   0.000000,   2.573659]
    <r_e> [Ang]:                        [  0.000000,  -0.000000,  -0.174922]
    |<r_e - r_h>| [Ang]:                  2.748581
    Hole size [Ang]:                      1.771127
      Cartesian components [Ang]:       [  0.878033,   0.857252,   1.277132]
    Electron size [Ang]:                  3.277648
      Cartesian components [Ang]:       [  2.161153,   2.133174,   1.233678]
    RMS electron-hole separation [Ang]:   4.628461
      Cartesian components [Ang]:       [  2.330873,   2.296869,   3.273236]
    Covariance(r_h, r_e) [Ang^2]:         0.005955
    Correlation coefficient:              0.001026
    Center-of-mass size [Ang]:            1.863584
      Cartesian components [Ang]:       [  1.167271,   1.150545,   0.886944]

  Decomposition into state-averaged NTOs
    H- 0 -> L+ 4:  0.6084 ( 74.0%)
    H- 0 -> L+ 3:  0.1383 (  3.8%)
                   omega =  78.9%
  ----------------------------------------------------------------------------


  Excited state 7 (singlet, A2)                                    [converged]
  ----------------------------------------------------------------------------
  Term symbol:  7 (1) A2                                    R^2 =  1.22977e-10

  Total energy:                                            -78.5152751108 a.u.
  Excitation energy:                                               9.014697 eV

  Osc. strength:                                                      0.000000
  Trans. dip. moment [a.u.]:           [  -0.000000,   -0.000000,   -0.000000]
  <i|r^2|0> [a.u.]:                    [   0.000000,   -0.000000,    0.000000]

  Dip. moment [a.u.]:                  [   0.000000,    0.000000,    0.924769]
  Total dipole [Debye]:                                               2.350530
  <r^2> [a.u.]:                        [ 101.803336,   32.418181,   91.263371]
  Total <r^2> [a.u.]:                                               225.484888

  V1^2 = 0.0150, V2^2 = 0.9850

  Important amplitudes:
      occ i      occ j       vir a       vir b          v   
    ---------------------------------------------------------
     5 (A1) A   1 (B2) B    4 (B1) A    7 (A1) B      0.1507
     5 (A1) A   1 (B2) B    7 (A1) A    4 (B1) B      0.1192
    ---------------------------------------------------------

  Density matrix analysis:
  ------------------------
  NOs
    Occupation of frontier NOs:
       0.8434   0.9410
    Number of electrons: 18.000000
    Number of unpaired electrons: n_u =  4.26145, n_u,nl =  4.10045
    NO participation ratio (PR_NO):  5.768010
  
  
  Mulliken Population Analysis
  Atom      Charge (e)              h+              e-           Del q
  --------------------------------------------------------------------
   1 C       -0.702227        0.570904       -0.900257       -0.329352
   2 C       -0.702227        0.570904       -0.900257       -0.329352
   3 H        0.110080        0.014133       -0.045894       -0.031761
   4 H        0.110080        0.014133       -0.045894       -0.031761
   5 H        0.008845        0.005302       -0.025674       -0.020372
   6 H        0.008845        0.005302       -0.025674       -0.020372
   7 H        0.166606        0.812398       -0.049428        0.762970
  --------------------------------------------------------------------
  Sum:       -1.000000        1.993077       -1.993077       -0.000000
  
  Multipole moment analysis of the density matrix
    Molecular charge:                      -1.000000
    Number of electrons:                   18.000000
      Center of electronic charge [Ang]: [ -0.000000,  -0.000000,  -0.027187]
    Total nuclear charge:                  17.000000
      Center of nuclear charge [Ang]:    [ -0.000000,   0.000000,   0.000000]
    Dipole moment [D]:                     2.350529
      Cartesian components [D]:          [  0.000000,   0.000000,   2.350529]
    RMS size of the density [Ang]:         1.872742
      Cartesian components [Ang]:        [  1.258479,   0.710165,   1.191242]
  
  Exciton analysis of the difference density matrix
    <r_h> [Ang]:                  [ -0.000000,  -0.000000,   1.231030]
    <r_e> [Ang]:                  [ -0.000000,  -0.000000,  -0.106750]
    |<r_e - r_h>| [Ang]:            1.337780
    Hole size [Ang]:                2.022986
      Cartesian components [Ang]: [  0.794621,   0.849701,   1.655010]
    Electron size [Ang]:            3.951018
      Cartesian components [Ang]: [  2.723273,   1.694872,   2.306889]

  Transition density matrix analysis:
  -----------------------------------
  
  CT numbers (Mulliken)
    omega =     0.0145
    <Phe> =    -0.0035
  
  Exciton analysis of the transition density matrix
    Trans. dipole moment [D]:             0.000000
      Cartesian components [D]:         [ -0.000000,  -0.000000,  -0.000000]
    <r_h> [Ang]:                        [ -0.000000,  -0.000000,   0.137383]
    <r_e> [Ang]:                        [  0.000000,  -0.000000,   0.712459]
    |<r_e - r_h>| [Ang]:                  0.575077
    Hole size [Ang]:                      1.599383
      Cartesian components [Ang]:       [  0.784672,   0.867847,   1.090486]
    Electron size [Ang]:                  4.095987
      Cartesian components [Ang]:       [  3.002179,   1.637197,   2.254687]
    RMS electron-hole separation [Ang]:   4.495363
      Cartesian components [Ang]:       [  3.106099,   1.845139,   2.675051]
    Covariance(r_h, r_e) [Ang^2]:        -0.271219
    Correlation coefficient:             -0.041401
    Center-of-mass size [Ang]:            2.167527
      Cartesian components [Ang]:       [  1.549978,   0.930404,   1.195864]

  Decomposition into state-averaged NTOs
    H- 1 -> L+ 2:  0.0765 (  1.2%)
                   omega =   1.4%
  ----------------------------------------------------------------------------


  Excited state 8 (singlet, A2)                                    [converged]
  ----------------------------------------------------------------------------
  Term symbol:  8 (1) A2                                    R^2 =  1.01599e-09

  Total energy:                                            -78.5078690151 a.u.
  Excitation energy:                                               9.216227 eV

  Osc. strength:                                                      0.000000
  Trans. dip. moment [a.u.]:           [  -0.000000,    0.000000,    0.000000]
  <i|r^2|0> [a.u.]:                    [   0.000000,   -0.000000,    0.000000]

  Dip. moment [a.u.]:                  [   0.000000,    0.000000,    2.452778]
  Total dipole [Debye]:                                               6.234342
  <r^2> [a.u.]:                        [ 110.531293,   32.699542,   83.617468]
  Total <r^2> [a.u.]:                                               226.848303

  V1^2 = 0.0231, V2^2 = 0.9769

  Important amplitudes:
      occ i      occ j       vir a       vir b          v   
    ---------------------------------------------------------
     5 (A1) A   1 (B2) A    6 (A1) A    4 (B1) A     -0.1727
     5 (A1) A   1 (B2) A    7 (A1) A    4 (B1) A      0.1176
    ---------------------------------------------------------

  Density matrix analysis:
  ------------------------
  NOs
    Occupation of frontier NOs:
       0.9288   0.9436
    Number of electrons: 18.000000
    Number of unpaired electrons: n_u =  4.24999, n_u,nl =  4.00989
    NO participation ratio (PR_NO):  5.336760
  
  
  Mulliken Population Analysis
  Atom      Charge (e)              h+              e-           Del q
  --------------------------------------------------------------------
   1 C       -0.760765        0.570393       -0.958283       -0.387890
   2 C       -0.760765        0.570393       -0.958283       -0.387890
   3 H        0.148654        0.014611       -0.007798        0.006814
   4 H        0.148654        0.014611       -0.007798        0.006814
   5 H        0.020711        0.006017       -0.014523       -0.008506
   6 H        0.020711        0.006017       -0.014523       -0.008506
   7 H        0.182799        0.799705       -0.020541        0.779164
  --------------------------------------------------------------------
  Sum:       -1.000000        1.981748       -1.981748       -0.000000
  
  Multipole moment analysis of the density matrix
    Molecular charge:                      -1.000000
    Number of electrons:                   18.000000
      Center of electronic charge [Ang]: [ -0.000000,  -0.000000,  -0.072109]
    Total nuclear charge:                  17.000000
      Center of nuclear charge [Ang]:    [ -0.000000,   0.000000,   0.000000]
    Dipole moment [D]:                     6.234340
      Cartesian components [D]:          [  0.000000,   0.000000,   6.234340]
    RMS size of the density [Ang]:         1.877208
      Cartesian components [Ang]:        [  1.311316,   0.713240,   1.138266]
  
  Exciton analysis of the difference density matrix
    <r_h> [Ang]:                  [ -0.000000,  -0.000000,   1.218321]
    <r_e> [Ang]:                  [ -0.000000,  -0.000000,  -0.535123]
    |<r_e - r_h>| [Ang]:            1.753445
    Hole size [Ang]:                2.026550
      Cartesian components [Ang]: [  0.795560,   0.849340,   1.659100]
    Electron size [Ang]:            3.945731
      Cartesian components [Ang]: [  2.947845,   1.709980,   1.988712]

  Transition density matrix analysis:
  -----------------------------------
  
  CT numbers (Mulliken)
    omega =     0.0223
    <Phe> =    -0.0114
  
  Exciton analysis of the transition density matrix
    Trans. dipole moment [D]:             0.000000
      Cartesian components [D]:         [ -0.000000,   0.000000,   0.000000]
    <r_h> [Ang]:                        [ -0.000000,  -0.000000,   0.004852]
    <r_e> [Ang]:                        [  0.000000,   0.000000,  -0.539207]
    |<r_e - r_h>| [Ang]:                  0.544058
    Hole size [Ang]:                      1.484382
      Cartesian components [Ang]:       [  0.862459,   0.787218,   0.916429]
    Electron size [Ang]:                  2.870014
      Cartesian components [Ang]:       [  1.987183,   1.491307,   1.436694]
    RMS electron-hole separation [Ang]:   3.226788
      Cartesian components [Ang]:       [  2.153652,   1.647459,   1.749235]
    Covariance(r_h, r_e) [Ang^2]:         0.162105
    Correlation coefficient:              0.038051
    Center-of-mass size [Ang]:            1.640471
      Cartesian components [Ang]:       [  1.089409,   0.862162,   0.872359]

  Decomposition into state-averaged NTOs
    H- 1 -> L+ 5: -0.0801 (  1.3%)
                   omega =   2.2%
  ----------------------------------------------------------------------------


  Excited state 9 (singlet, A2)                                    [converged]
  ----------------------------------------------------------------------------
  Term symbol:  9 (1) A2                                    R^2 =  6.08891e-08

  Total energy:                                            -78.5025366195 a.u.
  Excitation energy:                                               9.361329 eV

  Osc. strength:                                                      0.000000
  Trans. dip. moment [a.u.]:           [  -0.000000,    0.000000,    0.000000]
  <i|r^2|0> [a.u.]:                    [  -0.000000,    0.000000,    0.000000]

  Dip. moment [a.u.]:                  [   0.000000,    0.000000,   -3.856327]
  Total dipole [Debye]:                                               9.801809
  <r^2> [a.u.]:                        [  56.810129,   20.915207,   83.226629]
  Total <r^2> [a.u.]:                                               160.951965

  V1^2 = 0.9170, V2^2 = 0.0830

  Important amplitudes:
      occ i      occ j       vir a       vir b          v   
    ---------------------------------------------------------
     4 (A1) A               2 (A2) A                 -0.5542
     4 (A1) A               1 (A2) A                 -0.2725
    ---------------------------------------------------------

  Density matrix analysis:
  ------------------------
  NOs
    Occupation of frontier NOs:
       0.9340   1.0817
    Number of electrons: 18.000000
    Number of unpaired electrons: n_u =  2.48931, n_u,nl =  2.09308
    NO participation ratio (PR_NO):  3.546691
  
  
  Mulliken Population Analysis
  Atom      Charge (e)              h+              e-           Del q
  --------------------------------------------------------------------
   1 C       -0.483596        0.438679       -0.549400       -0.110721
   2 C       -0.483596        0.438679       -0.549400       -0.110721
   3 H        0.183088        0.061296       -0.020049        0.041247
   4 H        0.183088        0.061296       -0.020049        0.041247
   5 H        0.088835        0.068263       -0.008645        0.059618
   6 H        0.088835        0.068263       -0.008645        0.059618
   7 H       -0.576652        0.026545       -0.006832        0.019713
  --------------------------------------------------------------------
  Sum:       -1.000000        1.163020       -1.163020        0.000000
  
  Multipole moment analysis of the density matrix
    Molecular charge:                      -1.000000
    Number of electrons:                   18.000000
      Center of electronic charge [Ang]: [ -0.000000,  -0.000000,   0.113371]
    Total nuclear charge:                  17.000000
      Center of nuclear charge [Ang]:    [ -0.000000,   0.000000,   0.000000]
    Dipole moment [D]:                     9.801806
      Cartesian components [D]:          [  0.000000,   0.000000,  -9.801806]
    RMS size of the density [Ang]:         1.578322
      Cartesian components [Ang]:        [  0.940108,   0.570422,   1.132217]
  
  Exciton analysis of the difference density matrix
    <r_h> [Ang]:                  [ -0.000000,  -0.000000,  -0.072190]
    <r_e> [Ang]:                  [  0.000000,   0.000000,  -0.189343]
    |<r_e - r_h>| [Ang]:            0.117153
    Hole size [Ang]:                1.579910
      Cartesian components [Ang]: [  1.123312,   0.610580,   0.928157]
    Electron size [Ang]:            2.022020
      Cartesian components [Ang]: [  1.433756,   1.135191,   0.862700]

  Transition density matrix analysis:
  -----------------------------------
  
  CT numbers (Mulliken)
    omega =     0.8861
    <Phe> =    -0.0157
  
  Exciton analysis of the transition density matrix
    Trans. dipole moment [D]:             0.000000
      Cartesian components [D]:         [ -0.000000,   0.000000,   0.000000]
    <r_h> [Ang]:                        [ -0.000000,  -0.000000,  -0.139466]
    <r_e> [Ang]:                        [  0.000000,  -0.000000,  -0.222787]
    |<r_e - r_h>| [Ang]:                  0.083321
    Hole size [Ang]:                      1.304197
      Cartesian components [Ang]:       [  1.063894,   0.446498,   0.608029]
    Electron size [Ang]:                  1.990034
      Cartesian components [Ang]:       [  1.418213,   1.161308,   0.774773]
    RMS electron-hole separation [Ang]:   2.359735
      Cartesian components [Ang]:       [  1.748457,   1.240055,   0.986666]
    Covariance(r_h, r_e) [Ang^2]:         0.049880
    Correlation coefficient:              0.019219
    Center-of-mass size [Ang]:            1.200097
      Cartesian components [Ang]:       [  0.898512,   0.624150,   0.493299]

  Decomposition into state-averaged NTOs
    H- 2 -> L+ 0:  0.6453 ( 83.3%)
    H- 1 -> L+ 5: -0.1498 (  4.5%)
                   omega =  88.6%
  ----------------------------------------------------------------------------


  Excited state 10 (singlet, A2)                                    [converged]
  ----------------------------------------------------------------------------
  Term symbol:  10 (1) A2                                   R^2 =  4.40051e-06

  Total energy:                                            -78.4967048512 a.u.
  Excitation energy:                                               9.520019 eV

  Osc. strength:                                                      0.000000
  Trans. dip. moment [a.u.]:           [   0.000000,    0.000000,    0.000000]
  <i|r^2|0> [a.u.]:                    [   0.000000,   -0.000000,    0.000000]

  Dip. moment [a.u.]:                  [   0.000000,    0.000000,   -0.686002]
  Total dipole [Debye]:                                               1.743645
  <r^2> [a.u.]:                        [ 105.891099,   35.331815,   79.209751]
  Total <r^2> [a.u.]:                                               220.432665

  V1^2 = 0.1512, V2^2 = 0.8488

  Important amplitudes:
      occ i      occ j       vir a       vir b          v   
    ---------------------------------------------------------
     3 (B1) A               2 (B2) A                 -0.2000
     1 (B2) A               6 (B1) A                 -0.1606
    ---------------------------------------------------------

  Density matrix analysis:
  ------------------------
  NOs
    Occupation of frontier NOs:
       0.7585   1.0386
    Number of electrons: 18.000000
    Number of unpaired electrons: n_u =  4.14006, n_u,nl =  3.83083
    NO participation ratio (PR_NO):  6.567953
  
  
  Mulliken Population Analysis
  Atom      Charge (e)              h+              e-           Del q
  --------------------------------------------------------------------
   1 C       -0.746913        0.530983       -0.905021       -0.374037
   2 C       -0.746913        0.530983       -0.905021       -0.374037
   3 H        0.145769        0.028119       -0.024190        0.003929
   4 H        0.145769        0.028119       -0.024190        0.003929
   5 H        0.067301        0.026944        0.011140        0.038084
   6 H        0.067301        0.026944        0.011140        0.038084
   7 H        0.067685        0.691665       -0.027616        0.664050
  --------------------------------------------------------------------
  Sum:       -1.000000        1.863757       -1.863757        0.000000
  
  Multipole moment analysis of the density matrix
    Molecular charge:                      -1.000000
    Number of electrons:                   18.000000
      Center of electronic charge [Ang]: [ -0.000000,  -0.000000,   0.020168]
    Total nuclear charge:                  17.000000
      Center of nuclear charge [Ang]:    [ -0.000000,   0.000000,   0.000000]
    Dipole moment [D]:                     1.743644
      Cartesian components [D]:          [  0.000000,   0.000000,  -1.743644]
    RMS size of the density [Ang]:         1.851728
      Cartesian components [Ang]:        [  1.283496,   0.741392,   1.109897]
  
  Exciton analysis of the difference density matrix
    <r_h> [Ang]:                  [ -0.000000,  -0.000000,   1.103645]
    <r_e> [Ang]:                  [ -0.000000,  -0.000000,   0.130388]
    |<r_e - r_h>| [Ang]:            0.973257
    Hole size [Ang]:                2.061199
      Cartesian components [Ang]: [  0.839687,   0.847171,   1.681002]
    Electron size [Ang]:            3.924201
      Cartesian components [Ang]: [  2.928280,   1.858842,   1.835548]

  Transition density matrix analysis:
  -----------------------------------
  
  CT numbers (Mulliken)
    omega =     0.1476
    <Phe> =     0.0000
  
  Exciton analysis of the transition density matrix
    Trans. dipole moment [D]:             0.000000
      Cartesian components [D]:         [  0.000000,   0.000000,   0.000000]
    <r_h> [Ang]:                        [  0.000000,  -0.000000,  -0.141643]
    <r_e> [Ang]:                        [ -0.000000,   0.000000,  -0.436771]
    |<r_e - r_h>| [Ang]:                  0.295128
    Hole size [Ang]:                      1.420929
      Cartesian components [Ang]:       [  0.997441,   0.639024,   0.784728]
    Electron size [Ang]:                  3.922601
      Cartesian components [Ang]:       [  2.349694,   2.608711,   1.749389]
    RMS electron-hole separation [Ang]:   4.152247
      Cartesian components [Ang]:       [  2.507894,   2.685509,   1.933822]
    Covariance(r_h, r_e) [Ang^2]:         0.125888
    Correlation coefficient:              0.022586
    Center-of-mass size [Ang]:            2.101048
      Cartesian components [Ang]:       [  1.298304,   1.343083,   0.961737]

  Decomposition into state-averaged NTOs
    H- 3 -> L+ 6: -0.2024 (  8.2%)
    H- 1 -> L+ 5: -0.1677 (  5.6%)
                   omega =  14.8%
  ----------------------------------------------------------------------------


--------------------------------------------------------------------------------
  Time of ADC calculation:  CPU 654.89 s  wall 156.28 s
================================================================================
 
 --------------------------------------------------------------
             Orbital Energies (a.u.) and Symmetries
 --------------------------------------------------------------
 
 Alpha MOs, Restricted
 -- Occupied --                  
-11.069 -11.067  -0.875  -0.618  -0.492  -0.403  -0.346  -0.212
  1 A1    1 B1    2 A1    2 B1    3 A1    4 A1    3 B1    1 B2                 
 -0.031
  5 A1                                                                         
 -- Virtual --                   
  0.153   0.178   0.179   0.185   0.187   0.199   0.280   0.298
  4 B1    6 A1    2 B2    1 A2    7 A1    5 B1    8 A1    2 A2                 
  0.316   0.372   0.386   0.398   0.403   0.404   0.482   0.483
  6 B1    9 A1    7 B1    8 B1    3 B2   10 A1   11 A1    3 A2                 
  0.504   0.512   0.689   0.739   0.918   1.016   1.033   1.044
 12 A1    9 B1   10 B1   11 B1   13 A1   14 A1   15 A1   16 A1                 
  1.088   1.135   1.136   1.180   1.201   1.231   1.248   1.281
 12 B1    4 B2   17 A1    4 A2   13 B1   14 B1   18 A1    5 B2                 
  1.439   1.449   1.452   1.529   1.779   1.784   1.888   1.889
 15 B1    6 B2    5 A2   16 B1   19 A1   17 B1   20 A1    7 B2                 
  1.939   1.992   2.027   2.103   2.106   2.188   2.193   2.250
 18 B1   21 A1    6 A2   19 B1    8 B2    9 B2   22 A1   23 A1                 
  2.340   2.489   2.580   2.633   2.734   2.759   2.968   2.999
  7 A2   20 B1    8 A2   24 A1   21 B1   22 B1   25 A1   26 A1                 
  3.407   3.509
 23 B1   24 B1                                                                 
 
 Beta MOs, Restricted
 -- Occupied --                  
-11.069 -11.067  -0.875  -0.618  -0.492  -0.403  -0.346  -0.212
  1 A1    1 B1    2 A1    2 B1    3 A1    4 A1    3 B1    1 B2                 
 -0.031
  5 A1                                                                         
 -- Virtual --                   
  0.153   0.178   0.179   0.185   0.187   0.199   0.280   0.298
  4 B1    6 A1    2 B2    1 A2    7 A1    5 B1    8 A1    2 A2                 
  0.316   0.372   0.386   0.398   0.403   0.404   0.482   0.483
  6 B1    9 A1    7 B1    8 B1    3 B2   10 A1   11 A1    3 A2                 
  0.504   0.512   0.689   0.739   0.918   1.016   1.033   1.044
 12 A1    9 B1   10 B1   11 B1   13 A1   14 A1   15 A1   16 A1                 
  1.088   1.135   1.136   1.180   1.201   1.231   1.248   1.281
 12 B1    4 B2   17 A1    4 A2   13 B1   14 B1   18 A1    5 B2                 
  1.439   1.449   1.452   1.529   1.779   1.784   1.888   1.889
 15 B1    6 B2    5 A2   16 B1   19 A1   17 B1   20 A1    7 B2                 
  1.939   1.992   2.027   2.103   2.106   2.188   2.193   2.250
 18 B1   21 A1    6 A2   19 B1    8 B2    9 B2   22 A1   23 A1                 
  2.340   2.489   2.580   2.633   2.734   2.759   2.968   2.999
  7 A2   20 B1    8 A2   24 A1   21 B1   22 B1   25 A1   26 A1                 
  3.407   3.509
 23 B1   24 B1                                                                 
 --------------------------------------------------------------
 
          Ground-State Mulliken Net Atomic Charges

     Atom                 Charge (a.u.)
  ----------------------------------------
      1 C                    -0.343612
      2 C                    -0.343612
      3 H                     0.144327
      4 H                     0.144327
      5 H                     0.021548
      6 H                     0.021548
      7 H                    -0.644526
  ----------------------------------------
  Sum of atomic charges =    -1.000000

 -----------------------------------------------------------------
                    Cartesian Multipole Moments
 -----------------------------------------------------------------
    Charge (ESU x 10^10)
                -4.8032
    Dipole Moment (Debye)
         X       0.0000      Y       0.0000      Z     -10.8680
       Tot      10.8680
    Quadrupole Moments (Debye-Ang)
        XX     -20.0260     XY       0.0000     YY     -22.8181
        XZ       0.0000     YZ       0.0000     ZZ     -54.2430
    Octopole Moments (Debye-Ang^2)
       XXX       0.0000    XXY       0.0000    XYY       0.0000
       YYY       0.0000    XXZ      -7.9120    XYZ       0.0000
       YYZ      -9.9100    XZZ       0.0000    YZZ       0.0000
       ZZZ    -117.3674
    Hexadecapole Moments (Debye-Ang^3)
      XXXX    -102.3964   XXXY       0.0000   XXYY     -25.7906
      XYYY       0.0000   YYYY     -50.7892   XXXZ      -0.0000
      XXYZ       0.0000   XYYZ       0.0000   YYYZ      -0.0000
      XXZZ     -69.0372   XYZZ       0.0000   YYZZ     -62.5418
      XZZZ       0.0000   YZZZ       0.0000   ZZZZ    -562.3775
 -----------------------------------------------------------------
 Total job time:  239.15s(wall), 699.62s(cpu) 
 Sat Mar 26 18:49:50 2022

        *************************************************************
        *                                                           *
        *  Thank you very much for using Q-Chem.  Have a nice day.  *
        *                                                           *
        *************************************************************


