/src/tsommerfeld/qchem/exe/qcprog.exe .input1.444444.24002.qcin.1 /src/jdavis/qchem.scratch/qchem24002/

                  Welcome to Q-Chem
     A Quantum Leap Into The Future Of Chemistry


 Q-Chem 5.4 (devel), Q-Chem, Inc., Pleasanton, CA (2021)

 E. Epifanovsky,  A. T. B. Gilbert,  Xintian Feng,  Joonho Lee,  Yuezhi Mao,  
 N. Mardirossian,  P. Pokhilko,  A. White,  M. Wormit,  M. P. Coons,  
 A. L. Dempwolff,  Zhengting Gan,  D. Hait,  P. R. Horn,  L. D. Jacobson,  
 I. Kaliman,  J. Kussmann,  A. W. Lange,  Ka Un Lao,  D. S. Levine,  Jie Liu,  
 S. C. McKenzie,  A. F. Morrison,  K. Nanda,  F. Plasser,  D. R. Rehn,  
 M. L. Vidal,  Zhi-Qiang You,  Ying Zhu,  B. Alam,  B. Albrecht,  
 A. Aldossary,  E. Alguire,  J. H. Andersen,  D. Barton,  K. Begam,  A. Behn,  
 Y. A. Bernard,  E. J. Berquist,  H. Burton,  A. Carreras,  K. Carter-Fenk,  
 R. Chakraborty,  A. D. Chien,  K. D. Closser,  V. Cofer-Shabica,  
 S. Dasgupta,  Jia Deng,  M. de Wergifosse,  M. Diedenhofen,  Hainam Do,  
 S. Ehlert,  Po-Tung Fang,  S. Fatehi,  Qingguo Feng,  T. Friedhoff,  
 J. Gayvert,  Qinghui Ge,  G. Gidofalvi,  M. Goldey,  J. Gomes,  
 C. Gonzalez-Espinoza,  S. Gulania,  A. Gunina,  M. W. D. Hanson-Heine,  
 P. H. P. Harbach,  A. W. Hauser,  M. F. Herbst,  M. Hernandez Vera,  
 M. Hodecker,  Z. C. Holden,  S. Houck,  Xunkun Huang,  Kerwin Hui,  
 B. C. Huynh,  M. Ivanov,  Hyunjun Ji,  Hanjie Jiang,  B. Kaduk,  S. Kaehler,  
 K. Khistyaev,  Jaehoon Kim,  P. Klunzinger,  Z. Koczor-Benda,  
 Joong Hoon Koh,  D. Kosenkov,  L. Koulias,  T. Kowalczyk,  C. M. Krauter,  
 K. Kue,  A. Kunitsa,  T. Kus,  A. Landau,  K. V. Lawler,  D. Lefrancois,  
 S. Lehtola,  Rain Li,  Yi-Pei Li,  Jiashu Liang,  M. Liebenthal,  
 Hung-Hsuan Lin,  You-Sheng Lin,  Fenglai Liu,  Kuan-Yu Liu,  
 M. Loipersberger,  A. Luenser,  A. Manjanath,  P. Manohar,  E. Mansoor,  
 S. F. Manzer,  Shan-Ping Mao,  A. V. Marenich,  T. Markovich,  S. Mason,  
 S. A. Maurer,  P. F. McLaughlin,  M. F. S. J. Menger,  J.-M. Mewes,  
 S. A. Mewes,  P. Morgante,  J. W. Mullinax,  K. J. Oosterbaan,  G. Paran,  
 Alexander C. Paul,  Suranjan K. Paul,  F. Pavosevic,  Zheng Pei,  S. Prager,  
 E. I. Proynov,  E. Ramos,  B. Rana,  A. E. Rask,  A. Rettig,  R. M. Richard,  
 F. Rob,  E. Rossomme,  T. Scheele,  M. Scheurer,  M. Schneider,  
 N. Sergueev,  S. M. Sharada,  W. Skomorowski,  D. W. Small,  C. J. Stein,  
 Yu-Chuan Su,  E. J. Sundstrom,  Zhen Tao,  J. Thirman,  T. Tsuchimochi,  
 N. M. Tubman,  S. P. Veccham,  O. Vydrov,  J. Wenzel,  J. Witte,  A. Yamada,  
 Kun Yao,  S. Yeganeh,  S. R. Yost,  A. Zech,  Igor Ying Zhang,  Xing Zhang,  
 Yu Zhang,  D. Zuev,  A. Aspuru-Guzik,  A. T. Bell,  N. A. Besley,  
 K. B. Bravaya,  B. R. Brooks,  D. Casanova,  Jeng-Da Chai,  S. Coriani,  
 C. J. Cramer,  A. E. DePrince, III,  R. A. DiStasio Jr.,  A. Dreuw,  
 B. D. Dunietz,  T. R. Furlani,  W. A. Goddard III,  S. Grimme,  
 S. Hammes-Schiffer,  T. Head-Gordon,  W. J. Hehre,  Chao-Ping Hsu,  
 T.-C. Jagau,  Yousung Jung,  A. Klamt,  Jing Kong,  D. S. Lambrecht,  
 WanZhen Liang,  N. J. Mayhall,  C. W. McCurdy,  J. B. Neaton,  
 C. Ochsenfeld,  J. A. Parkhill,  R. Peverati,  V. A. Rassolov,  Yihan Shao,  
 L. V. Slipchenko,  T. Stauch,  R. P. Steele,  J. E. Subotnik,  
 A. J. W. Thom,  A. Tkatchenko,  D. G. Truhlar,  T. Van Voorhis,  
 T. A. Wesolowski,  K. B. Whaley,  H. L. Woodcock III,  P. M. Zimmerman,  
 S. Faraji,  P. M. W. Gill,  M. Head-Gordon,  J. M. Herbert,  A. I. Krylov

 Additional authors for Version 5.4.1: 
 S. Kotaru,  Shaozhi Li,  Xiangyuan Li,  F. Matz,  A. Molle,  Haisheng Ren,  
 Yingli Su,  Hung-Yi Tsai,  C. Utku,  Fang Wang

 Contributors to earlier versions of Q-Chem not listed above: 
 R. D. Adamson,  B. Austin,  R. Baer,  J. Baker,  G. J. O. Beran,  
 K. Brandhorst,  S. T. Brown,  E. F. C. Byrd,  A. K. Chakraborty,  
 G. K. L. Chan,  Chun-Min Chang,  Yunqing Chen,  C.-L. Cheng,  
 Siu Hung Chien,  D. M. Chipman,  D. L. Crittenden,  H. Dachsel,  
 R. J. Doerksen,  A. D. Dutoi,  R. G. Edgar,  J. Fosso-Tande,  
 L. Fusti-Molnar,  D. Ghosh,  A. Ghysels,  A. Golubeva-Zadorozhnaya,  
 J. Gonthier,  M. S. Gordon,  S. R. Gwaltney,  G. Hawkins,  J. E. Herr,  
 A. Heyden,  S. Hirata,  E. G. Hohenstein,  G. Kedziora,  F. J. Keil,  
 C. Kelley,  Jihan Kim,  R. A. King,  R. Z. Khaliullin,  P. P. Korambath,  
 W. Kurlancheek,  A. Laurent,  A. M. Lee,  M. S. Lee,  S. V. Levchenko,  
 Ching Yeh Lin,  D. Liotard,  E. Livshits,  R. C. Lochan,  I. Lotan,  
 L. A. Martinez-Martinez,  P. E. Maslen,  N. Nair,  D. P. O'Neill,  
 D. Neuhauser,  E. Neuscamman,  C. M. Oana,  R. Olivares-Amaya,  R. Olson,  
 T. M. Perrine,  B. Peters,  P. A. Pieniazek,  A. Prociuk,  Y. M. Rhee,  
 J. Ritchie,  M. A. Rohrdanz,  E. Rosta,  N. J. Russ,  H. F. Schaefer III,  
 M. W. Schmidt,  N. E. Schultz,  S. Sharma,  N. Shenvi,  C. D. Sherrill,  
 A. C. Simmonett,  A. Sodt,  T. Stein,  D. Stuck,  K. S. Thanthiriwatte,  
 V. Vanovschi,  L. Vogt,  Tao Wang,  A. Warshel,  M. A. Watson,  
 C. F. Williams,  Q. Wu,  X. Xu,  Jun Yang,  W. Zhang,  Yan Zhao

 Please cite Q-Chem as follows:
 Y. Shao et al., Mol. Phys. 113, 184-215 (2015)
 DOI: 10.1080/00268976.2014.952696

 Q-Chem 5.4.1 for Intel X86 EM64T Linux

 Parts of Q-Chem use Armadillo 9.900.5 (Nocturnal Misbehaviour).
 http://arma.sourceforge.net/

 Q-Chem begins on Thu Feb 17 21:04:49 2022  

 Host: node01
0

     Scratch files written to /src/jdavis/qchem.scratch/qchem24002//
 Processing $rem in /src/tsommerfeld/qchem/config/preferences:
 Processing $rem in /home/jdavis/.qchemrc:

 Checking the input file for inconsistencies... 	...done.

--------------------------------------------------------------
User input:
--------------------------------------------------------------
$molecule
-1 1
C        -0.6645000000    0.0000000000   -0.2082049804
C         0.6645000000    0.0000000000   -0.2082049804
H        -1.1590800000    0.0000000000    0.7541440196
H         1.1590800000    0.0000000000    0.7541440196
H        -1.1590800000    0.0000000000   -1.1705529804
H         1.1590800000    0.0000000000   -1.1705529804
H         0.0000000000    0.0000000000    3.0139349415
$end

$rem
   METHOD adc(2)
   BASIS gen
   PURECART 11
   EE_STATES [0,10,0,0]
   scf_convergence 8
   ADC_DAVIDSON_MAXITER 120
   ADC_DAVIDSON_MAXSUBSPACE 200
   adc_nguess_singles 100
   THRESH 14
   S2THRESH 14
   adc_davidson_conv 5
   adc_davidson_thresh 14
   THREADS 10
   MEM_TOTAL 95000
   STATE_ANALYSIS TRUE
$end
$basis
C 1
S   9   1.00
      6.665000D+03           6.920000D-04
      1.000000D+03           5.329000D-03
      2.280000D+02           2.707700D-02
      6.471000D+01           1.017180D-01
      2.106000D+01           2.747400D-01
      7.495000D+00           4.485640D-01
      2.797000D+00           2.850740D-01
      5.215000D-01           1.520400D-02
      1.596000D-01          -3.191000D-03
S   9   1.00
      6.665000D+03          -1.460000D-04
      1.000000D+03          -1.154000D-03
      2.280000D+02          -5.725000D-03
      6.471000D+01          -2.331200D-02
      2.106000D+01          -6.395500D-02
      7.495000D+00          -1.499810D-01
      2.797000D+00          -1.272620D-01
      5.215000D-01           5.445290D-01
      1.596000D-01           5.804960D-01
S   1   1.00
      1.596000D-01           1.000000D+00
S   1   1.00
      0.0469000              1.0000000
P   4   1.00
      9.439000D+00           3.810900D-02
      2.002000D+00           2.094800D-01
      5.456000D-01           5.085570D-01
      1.517000D-01           4.688420D-01
P   1   1.00
      1.517000D-01           1.000000D+00
P   1   1.00
      0.0876489      1.0000000
P   1   1.00
      0.0438244      1.0000000
D   1   1.00
      5.500000D-01           1.0000000
****
C 2
S   9   1.00
      6.665000D+03           6.920000D-04
      1.000000D+03           5.329000D-03
      2.280000D+02           2.707700D-02
      6.471000D+01           1.017180D-01
      2.106000D+01           2.747400D-01
      7.495000D+00           4.485640D-01
      2.797000D+00           2.850740D-01
      5.215000D-01           1.520400D-02
      1.596000D-01          -3.191000D-03
S   9   1.00
      6.665000D+03          -1.460000D-04
      1.000000D+03          -1.154000D-03
      2.280000D+02          -5.725000D-03
      6.471000D+01          -2.331200D-02
      2.106000D+01          -6.395500D-02
      7.495000D+00          -1.499810D-01
      2.797000D+00          -1.272620D-01
      5.215000D-01           5.445290D-01
      1.596000D-01           5.804960D-01
S   1   1.00
      1.596000D-01           1.000000D+00
S   1   1.00
      0.0469000              1.0000000
P   4   1.00
      9.439000D+00           3.810900D-02
      2.002000D+00           2.094800D-01
      5.456000D-01           5.085570D-01
      1.517000D-01           4.688420D-01
P   1   1.00
      1.517000D-01           1.000000D+00
P   1   1.00
      0.0876489      1.0000000
P   1   1.00
      0.0438244      1.0000000
D   1   1.00
      5.500000D-01           1.0000000
****
H 3
cc-pVDZ
****
H 4
cc-pVDZ
****
H 5
cc-pVDZ
****
H 6
cc-pVDZ
****
H 7
aug-cc-pVDZ
****
$end
--------------------------------------------------------------
 ----------------------------------------------------------------
             Standard Nuclear Orientation (Angstroms)
    I     Atom           X                Y                Z
 ----------------------------------------------------------------
    1      C      -0.6645000000    -0.0000000000    -0.1895377601
    2      C       0.6645000000     0.0000000000    -0.1895377601
    3      H      -1.1590800000    -0.0000000000     0.7728112399
    4      H       1.1590800000     0.0000000000     0.7728112399
    5      H      -1.1590800000    -0.0000000000    -1.1518857601
    6      H       1.1590800000     0.0000000000    -1.1518857601
    7      H      -0.0000000000     0.0000000000     3.0326021618
 ----------------------------------------------------------------
 Molecular Point Group                 C2v   NOp =  4
 Largest Abelian Subgroup              C2v   NOp =  4
 Nuclear Repulsion Energy =          36.17984589 hartrees
 There are        9 alpha and        9 beta electrons
 Requested basis set is non-standard
 There are 33 shells and 67 basis functions
 Total memory of 95000 MB is distributed as follows: 
   MEM_STATIC is set to 192 MB
   QALLOC/CCMAN JOB total memory use is  94808 MB
 Warning: actual memory use might exceed 95000 MB

 Total QAlloc Memory Limit  95000 MB
 Mega-Array Size       188 MB
 MEM_STATIC part       192 MB

                       Distance Matrix (Angstroms)
             C (  1)   C (  2)   H (  3)   H (  4)   H (  5)   H (  6)
   C (  2)  1.329000
   H (  3)  1.082000  2.061931
   H (  4)  2.061931  1.082000  2.318160
   H (  5)  1.082000  2.061931  1.924697  3.013026
   H (  6)  2.061931  1.082000  3.013026  1.924697  2.318160
   H (  7)  3.289946  3.289946  2.539709  2.539709  4.342051  4.342051

 
 A cutoff of  1.0D-14 yielded    561 shell pairs
 There are      2337 function pairs (      2484 Cartesian)
 Smallest overlap matrix eigenvalue = 2.06E-04

 Scale SEOQF with 1.000000e-01/1.000000e-01/1.000000e-01

 Standard Electronic Orientation quadrupole field applied
 Nucleus-field energy     =    -0.0000000011 hartrees
 ================ Generating on-the-fly SAD Guess ================
Attempting to make child job directory: /src/jdavis/qchem.scratch/qchem24002//Frg1/
Attempting to make child job directory: /src/jdavis/qchem.scratch/qchem24002//Frg2/
Creating input file /src/jdavis/qchem.scratch/qchem24002/Frg1.input
using default PutDataFrgm: nothing
calling putenv with: QCSCRATCH=/src/jdavis/qchem.scratch/qchem24002/ 
Spawning Job For Fragment 0
Done Job For Fragment 0
calling putenv with: QCSCRATCH=/src/jdavis/qchem.scratch 
calling putenv with: QCTHREADS=1 
Creating input file /src/jdavis/qchem.scratch/qchem24002/Frg2.input
using default PutDataFrgm: nothing
calling putenv with: QCSCRATCH=/src/jdavis/qchem.scratch/qchem24002/ 
Spawning Job For Fragment 1
Done Job For Fragment 1
calling putenv with: QCSCRATCH=/src/jdavis/qchem.scratch 
calling putenv with: QCTHREADS=1 
 Time for running child jobs:  CPU 1.77 s  wall 51.97 s
 ============= Method Specific SAD Guess Constructed =============
 Guess from on-the-fly superposition of atomic densities
 Warning: Energy on first SCF cycle will be non-variational
 A restricted Hartree-Fock SCF calculation will be
 performed using Pulay DIIS extrapolation
 SCF converges when DIIS error is below 1.0E-08
 using 10 threads for integral computing
 -------------------------------------------------------
 OpenMP Integral computing Module                
 Release: version 1.0, May 2013, Q-Chem Inc. Pittsburgh 
 -------------------------------------------------------
 ---------------------------------------
  Cycle       Energy         DIIS Error
 ---------------------------------------
    1     -78.8095775908      7.36E-02
    2     -78.4594905111      6.89E-03
    3     -78.5061380140      1.66E-03
    4     -78.5087363134      5.39E-04
    5     -78.5090295760      1.15E-04
    6     -78.5090534855      2.60E-05
    7     -78.5090554839      7.24E-06
    8     -78.5090556728      9.73E-07
    9     -78.5090556770      2.29E-07
   10     -78.5090556773      4.44E-08
   11     -78.5090556773      9.57E-09 Convergence criterion met
 ---------------------------------------
 SCF time:  CPU 10.29 s  wall 1.03 s
 SCF   energy in the final basis set = -78.50905568
 Total energy in the final basis set = -78.50905568
================================================================================
|                                                                              |
|                                 A D C  M A N                                 |
|                                                                              |
 ------------------------------------------------------------------------------ 
|                                                                              |
| Components:                                                                  |
|                                                                              |
| - libvmm - 1.3-trunk                                                         |
|   Authors:                                                                   |
|   Evgeny Epifanovsky, Ilya Kaliman                                           |
|                                                                              |
| - libtensor - 2.5-trunk                                                      |
|   Authors:                                                                   |
|   Evgeny Epifanovsky, Michael Wormit, Dmitry Zuev, Sam Manzer,               |
|   Ilya Kaliman                                                               |
|                                                                              |
| - libwfa - 1.1-trunk                                                         |
|   Authors:                                                                   |
|   Felix Plasser, Stefanie Mewes (Baeppler), Benjamin Thomitzni,              |
|   Michael Wormit, Feng Chen, Anna I. Krylov, Pavel Pokhilko                  |
|                                                                              |
| - libadc - 1.1-trunk                                                         |
|   Authors:                                                                   |
|   Michael Wormit, Adrian L. Dempwolff, Philipp H. P. Harbach,                |
|   Caroline Krauter, Dirk Rehn, Matthias Schneider, Jan Wenzel                |
|                                                                              |
| - adcman - 2.6-trunk                                                         |
|   Authors:                                                                   |
|   Michael Wormit, Adrian L. Dempwolff, Philipp H. P. Harbach,                |
|   Caroline Krauter, Daniel Lefrancois, Jan-Michael Mewes, Dirk Rehn,         |
|   Matthias Schneider, Jan Wenzel, Andreas Dreuw                              |
|                                                                              |
| Authors of earlier versions of ADCMAN:                                       |
| Andreas Dreuw, Jan Hendrik Starcke, Dirk Rehn, Michael Wormit                |
|                                                                              |
================================================================================

 
 Alpha MOs, Restricted
 -- Occupied --                  
-11.072 -11.071  -0.878  -0.620  -0.494  -0.405  -0.349  -0.215
  1 A1    1 B1    2 A1    2 B1    3 A1    4 A1    3 B1    1 B2                 
 -0.021
  5 A1                                                                         
 -- Virtual --                   
  0.188   0.198   0.227   0.227   0.235   0.255   0.313   0.335
  4 B1    6 A1    2 B2    1 A2    7 A1    5 B1    8 A1    2 A2                 
  0.352   0.434   0.472   0.481   0.503   0.506   0.526   0.550
  6 B1    9 A1    7 B1   10 A1    8 B1   11 A1    3 B2   12 A1                 
  0.561   0.610   0.697   0.773   0.985   1.009   1.058   1.092
  9 B1    3 A2   10 B1   11 B1   13 A1   14 A1   15 A1   12 B1                 
  1.165   1.188   1.254   1.278   1.289   1.303   1.317   1.361
 16 A1   13 B1   17 A1    4 B2   18 A1   14 B1    5 B2    4 A2                 
  1.449   1.456   1.466   1.641   1.787   1.881   1.904   1.908
  5 A2    6 B2   15 B1   16 B1   19 A1   17 B1   20 A1    7 B2                 
  1.943   2.018   2.041   2.106   2.133   2.186   2.247   2.271
 18 B1   21 A1    6 A2    8 B2   19 B1    9 B2   22 A1   23 A1                 
  2.345   2.496   2.577   2.659   2.723   2.755   3.016   3.041
  7 A2   20 B1    8 A2   24 A1   21 B1   22 B1   25 A1   26 A1                 
  3.440   3.514
 23 B1   24 B1                                                                 
 
 Beta MOs, Restricted
 -- Occupied --                  
-11.072 -11.071  -0.878  -0.620  -0.494  -0.405  -0.349  -0.215
  1 A1    1 B1    2 A1    2 B1    3 A1    4 A1    3 B1    1 B2                 
 -0.021
  5 A1                                                                         
 -- Virtual --                   
  0.188   0.198   0.227   0.227   0.235   0.255   0.313   0.335
  4 B1    6 A1    2 B2    1 A2    7 A1    5 B1    8 A1    2 A2                 
  0.352   0.434   0.472   0.481   0.503   0.506   0.526   0.550
  6 B1    9 A1    7 B1   10 A1    8 B1   11 A1    3 B2   12 A1                 
  0.561   0.610   0.697   0.773   0.985   1.009   1.058   1.092
  9 B1    3 A2   10 B1   11 B1   13 A1   14 A1   15 A1   12 B1                 
  1.165   1.188   1.254   1.278   1.289   1.303   1.317   1.361
 16 A1   13 B1   17 A1    4 B2   18 A1   14 B1    5 B2    4 A2                 
  1.449   1.456   1.466   1.641   1.787   1.881   1.904   1.908
  5 A2    6 B2   15 B1   16 B1   19 A1   17 B1   20 A1    7 B2                 
  1.943   2.018   2.041   2.106   2.133   2.186   2.247   2.271
 18 B1   21 A1    6 A2    8 B2   19 B1    9 B2   22 A1   23 A1                 
  2.345   2.496   2.577   2.659   2.723   2.755   3.016   3.041
  7 A2   20 B1    8 A2   24 A1   21 B1   22 B1   25 A1   26 A1                 
  3.440   3.514
 23 B1   24 B1                                                                 

--------------------------------------------------------------------------------
                                   HF Summary                                   
--------------------------------------------------------------------------------
  Energy:                                                  -78.5090556773 a.u.
  Dip. moment [a.u.]:                  [  -0.000000,    0.000000,   -4.699003]
  Total dipole [Debye]:                                              11.943675
  <r^2> [a.u.]:                        [  52.162249,   16.191127,   89.584742]
  Total <r^2> [a.u.]:                                               157.938119
--------------------------------------------------------------------------------

--------------------------------------------------------------------------------
                                 MP(2) Summary                                  
--------------------------------------------------------------------------------
  MP energy contribution:                                   -0.3051807122 a.u.
  Total energy:                                            -78.8142363895 a.u.
  Dip. moment [a.u.]:                  [   0.000000,   -0.000000,   -4.593270]
  Total dipole [Debye]:                                              11.674931
  <r^2> [a.u.]:                        [  52.454767,   16.136929,   88.958034]
  Total <r^2> [a.u.]:                                               157.549729

  Density matrix analysis:
  ------------------------
  NOs
    Occupation of frontier NOs:
       0.0448   1.9361
    Number of electrons: 18.000000
    Number of unpaired electrons: n_u =  0.45690, n_u,nl =  0.04987
    NO participation ratio (PR_NO): 16.067705
  
  
  Mulliken Population Analysis
  Atom      Charge (e)              h+              e-           Del q
  --------------------------------------------------------------------
   1 C       -0.405038        0.087410       -0.111803       -0.024393
   2 C       -0.405038        0.087410       -0.111803       -0.024393
   3 H        0.186980        0.017269       -0.017357       -0.000088
   4 H        0.186980        0.017269       -0.017357       -0.000088
   5 H        0.054446        0.019563       -0.011411        0.008152
   6 H        0.054446        0.019563       -0.011411        0.008152
   7 H       -0.672774        0.048073       -0.015415        0.032658
  --------------------------------------------------------------------
  Sum:       -1.000000        0.296556       -0.296556        0.000000
  
  Multipole moment analysis of the density matrix
    Molecular charge:                      -1.000000
    Number of electrons:                   18.000000
      Center of electronic charge [Ang]: [ -0.000000,   0.000000,   0.135036]
    Total nuclear charge:                  17.000000
      Center of nuclear charge [Ang]:    [ -0.000000,   0.000000,  -0.000000]
    Dipole moment [D]:                     11.674927
      Cartesian components [D]:          [  0.000000,  -0.000000, -11.674927]
    RMS size of the density [Ang]:         1.559740
      Cartesian components [Ang]:        [  0.903353,   0.501043,   1.168631]
  
  Exciton analysis of the difference density matrix
    <r_h> [Ang]:                  [  0.000000,   0.000000,   0.275096]
    <r_e> [Ang]:                  [ -0.000000,   0.000000,   0.086426]
    |<r_e - r_h>| [Ang]:            0.188670
    Hole size [Ang]:                1.859326
      Cartesian components [Ang]: [  0.958985,   0.759448,   1.400243]
    Electron size [Ang]:            1.777233
      Cartesian components [Ang]: [  1.093557,   0.724972,   1.198794]
--------------------------------------------------------------------------------
Less singles guess vectors found than requested: 85 (found), 100 (requested).
Adjusting number of doubles guess vectors to 15.
  Starting Davidson for singlet states of irrep A2 ... 
--------------------------------------------------------------------------------
   It NVec Conv  Avg. Norm  Max. Norm  Conv. states           Remark
--------------------------------------------------------------------------------
       100    0  9.291e-02  4.600e-01  0.1350 n n n n n n n n Guess.
    1  110    0  5.555e-03  2.897e-02  0.0924 n n n n n n n n 
    2  120    0  4.503e-03  4.395e-02  0.0923 n n n n n n n n 
    3  130    0  1.784e-03  1.770e-02  0.0923 n n n n n n n n 
    4  140    6  5.825e-05  5.787e-04  0.0923 y y y y y n n n 
    5  150    9  1.850e-06  1.838e-05  0.0923 y y y y y y y y 
    6  160   10  3.511e-08  3.494e-07  0.0923 y y y y y y y y Converged.
--------------------------------------------------------------------------------
  Davidson Summary: 
 ------------------------------------------------------------
  State  0: excitation energy =   0.0923 a.u.   (converged)
  State  1: excitation energy =   0.1699 a.u.   (converged)
  State  2: excitation energy =   0.2516 a.u.   (converged)
  State  3: excitation energy =   0.3220 a.u.   (converged)
  State  4: excitation energy =   0.3525 a.u.   (converged)
  State  5: excitation energy =   0.3779 a.u.   (converged)
  State  6: excitation energy =   0.3944 a.u.   (converged)
  State  7: excitation energy =   0.4374 a.u.   (converged)
  State  8: excitation energy =   0.4457 a.u.   (converged)
  State  9: excitation energy =   0.4567 a.u.   (converged)
 ------------------------------------------------------------


--------------------------------------------------------------------------------
                   State-averaged natural transition orbitals
--------------------------------------------------------------------------------
--------------------------------------------------------------------------------

--------------------------------------------------------------------------------
                             Excited State Summary
--------------------------------------------------------------------------------
--------------------------------------------------------------------------------

  Excited state 1 (singlet, A2)                                    [converged]
  ----------------------------------------------------------------------------
  Term symbol:  1 (1) A2                                    R^2 =  2.96540e-11

  Total energy:                                            -78.7219638282 a.u.
  Excitation energy:                                               2.510864 eV

  Osc. strength:                                                      0.000000
  Trans. dip. moment [a.u.]:           [   0.000000,    0.000000,    0.000000]
  <i|r^2|0> [a.u.]:                    [   0.000000,    0.000000,    0.000000]

  Dip. moment [a.u.]:                  [   0.000000,   -0.000000,    0.593725]
  Total dipole [Debye]:                                               1.509098
  <r^2> [a.u.]:                        [  62.816613,   25.520786,   62.990351]
  Total <r^2> [a.u.]:                                               151.327750

  V1^2 = 0.9316, V2^2 = 0.0684

  Important amplitudes:
      occ i      occ j       vir a       vir b          v   
    ---------------------------------------------------------
     5 (A1) A               1 (A2) A                 -0.6237
     5 (A1) A               2 (A2) A                 -0.2737
    ---------------------------------------------------------

  Density matrix analysis:
  ------------------------
  NOs
    Occupation of frontier NOs:
       0.9923   0.9929
    Number of electrons: 18.000000
    Number of unpaired electrons: n_u =  2.41362, n_u,nl =  2.04382
    NO participation ratio (PR_NO):  2.939283
  
  
  Mulliken Population Analysis
  Atom      Charge (e)              h+              e-           Del q
  --------------------------------------------------------------------
   1 C       -0.691733        0.258012       -0.544707       -0.286695
   2 C       -0.691733        0.258012       -0.544707       -0.286695
   3 H        0.122177        0.015826       -0.080628       -0.064802
   4 H        0.122177        0.015826       -0.080628       -0.064802
   5 H        0.056116        0.009778       -0.008107        0.001670
   6 H        0.056116        0.009778       -0.008107        0.001670
   7 H        0.026879        0.728524       -0.028871        0.699653
  --------------------------------------------------------------------
  Sum:       -1.000000        1.295755       -1.295755        0.000000
  
  Multipole moment analysis of the density matrix
    Molecular charge:                      -1.000000
    Number of electrons:                   18.000000
      Center of electronic charge [Ang]: [ -0.000000,   0.000000,  -0.017455]
    Total nuclear charge:                  17.000000
      Center of nuclear charge [Ang]:    [ -0.000000,   0.000000,  -0.000000]
    Dipole moment [D]:                     1.509097
      Cartesian components [D]:          [  0.000000,  -0.000000,   1.509097]
    RMS size of the density [Ang]:         1.534250
      Cartesian components [Ang]:        [  0.988558,   0.630104,   0.989770]
  
  Exciton analysis of the difference density matrix
    <r_h> [Ang]:                  [ -0.000000,  -0.000000,   2.130928]
    <r_e> [Ang]:                  [ -0.000000,   0.000000,   0.012596]
    |<r_e - r_h>| [Ang]:            2.118332
    Hole size [Ang]:                2.064113
      Cartesian components [Ang]: [  0.961716,   0.879504,   1.600669]
    Electron size [Ang]:            2.730680
      Cartesian components [Ang]: [  1.778825,   1.673766,   1.221025]

  Transition density matrix analysis:
  -----------------------------------
  
  CT numbers (Mulliken)
    omega =     0.9128
    <Phe> =     0.0004
  
  Exciton analysis of the transition density matrix
    Trans. dipole moment [D]:             0.000000
      Cartesian components [D]:         [  0.000000,   0.000000,   0.000000]
    <r_h> [Ang]:                        [ -0.000000,   0.000000,   2.831553]
    <r_e> [Ang]:                        [ -0.000000,   0.000000,  -0.188578]
    |<r_e - r_h>| [Ang]:                  3.020130
    Hole size [Ang]:                      1.458286
      Cartesian components [Ang]:       [  0.775158,   0.757331,   0.975797]
    Electron size [Ang]:                  2.838847
      Cartesian components [Ang]:       [  1.901594,   1.822760,   1.058554]
    RMS electron-hole separation [Ang]:   4.391720
      Cartesian components [Ang]:       [  2.049302,   1.973311,   3.345686]
    Covariance(r_h, r_e) [Ang^2]:         0.009816
    Correlation coefficient:              0.002371
    Center-of-mass size [Ang]:            1.597286
      Cartesian components [Ang]:       [  1.028861,   0.987175,   0.719896]

  Decomposition into state-averaged NTOs
    H- 1 -> L+ 0:  0.6227 ( 77.5%)
    H- 1 -> L+ 1: -0.2321 ( 10.8%)
    H- 1 -> L+ 6:  0.1209 (  2.9%)
                   omega =  91.3%
  ----------------------------------------------------------------------------


  Excited state 2 (singlet, A2)                                    [converged]
  ----------------------------------------------------------------------------
  Term symbol:  2 (1) A2                                    R^2 =  8.62068e-11

  Total energy:                                            -78.6442919528 a.u.
  Excitation energy:                                               4.624423 eV

  Osc. strength:                                                      0.000000
  Trans. dip. moment [a.u.]:           [   0.000000,    0.000000,    0.000000]
  <i|r^2|0> [a.u.]:                    [   0.000000,    0.000000,   -0.000000]

  Dip. moment [a.u.]:                  [   0.000000,    0.000000,    0.606001]
  Total dipole [Debye]:                                               1.540301
  <r^2> [a.u.]:                        [  67.202594,   30.035745,   64.433302]
  Total <r^2> [a.u.]:                                               161.671640

  V1^2 = 0.9276, V2^2 = 0.0724

  Important amplitudes:
      occ i      occ j       vir a       vir b          v   
    ---------------------------------------------------------
     5 (A1) A               2 (A2) A                  0.6110
     5 (A1) A               1 (A2) A                 -0.2848
    ---------------------------------------------------------

  Density matrix analysis:
  ------------------------
  NOs
    Occupation of frontier NOs:
       0.9882   0.9917
    Number of electrons: 18.000000
    Number of unpaired electrons: n_u =  2.42686, n_u,nl =  2.04812
    NO participation ratio (PR_NO):  2.985811
  
  
  Mulliken Population Analysis
  Atom      Charge (e)              h+              e-           Del q
  --------------------------------------------------------------------
   1 C       -0.674232        0.258377       -0.527570       -0.269194
   2 C       -0.674232        0.258377       -0.527570       -0.269194
   3 H        0.113045        0.013147       -0.087082       -0.073935
   4 H        0.113045        0.013147       -0.087082       -0.073935
   5 H        0.046751        0.007442       -0.015136       -0.007694
   6 H        0.046751        0.007442       -0.015136       -0.007694
   7 H        0.028873        0.730452       -0.028805        0.701646
  --------------------------------------------------------------------
  Sum:       -1.000000        1.288383       -1.288383        0.000000
  
  Multipole moment analysis of the density matrix
    Molecular charge:                      -1.000000
    Number of electrons:                   18.000000
      Center of electronic charge [Ang]: [ -0.000000,  -0.000000,  -0.017816]
    Total nuclear charge:                  17.000000
      Center of nuclear charge [Ang]:    [ -0.000000,   0.000000,  -0.000000]
    Dipole moment [D]:                     1.540300
      Cartesian components [D]:          [  0.000000,   0.000000,   1.540300]
    RMS size of the density [Ang]:         1.585822
      Cartesian components [Ang]:        [  1.022487,   0.683572,   1.001040]
  
  Exciton analysis of the difference density matrix
    <r_h> [Ang]:                  [ -0.000000,  -0.000000,   2.150725]
    <r_e> [Ang]:                  [ -0.000000,  -0.000000,   0.015230]
    |<r_e - r_h>| [Ang]:            2.135495
    Hole size [Ang]:                2.041809
      Cartesian components [Ang]: [  0.951927,   0.861517,   1.587642]
    Electron size [Ang]:            3.112919
      Cartesian components [Ang]: [  2.027705,   1.939872,   1.347433]

  Transition density matrix analysis:
  -----------------------------------
  
  CT numbers (Mulliken)
    omega =     0.9101
    <Phe> =     0.0001
  
  Exciton analysis of the transition density matrix
    Trans. dipole moment [D]:             0.000000
      Cartesian components [D]:         [  0.000000,   0.000000,   0.000000]
    <r_h> [Ang]:                        [ -0.000000,   0.000000,   2.832654]
    <r_e> [Ang]:                        [ -0.000000,  -0.000000,  -0.188738]
    |<r_e - r_h>| [Ang]:                  3.021392
    Hole size [Ang]:                      1.457358
      Cartesian components [Ang]:       [  0.775056,   0.757455,   0.974393]
    Electron size [Ang]:                  3.332244
      Cartesian components [Ang]:       [  2.209264,   2.158439,   1.250658]
    RMS electron-hole separation [Ang]:   4.726917
      Cartesian components [Ang]:       [  2.339316,   2.286792,   3.412028]
    Covariance(r_h, r_e) [Ang^2]:         0.006404
    Correlation coefficient:              0.001319
    Center-of-mass size [Ang]:            1.819379
      Cartesian components [Ang]:       [  1.171615,   1.144091,   0.792788]

  Decomposition into state-averaged NTOs
    H- 1 -> L+ 1: -0.5988 ( 71.7%)
    H- 1 -> L+ 0: -0.2434 ( 11.8%)
    H- 1 -> L+ 6:  0.1924 (  7.4%)
                   omega =  91.0%
  ----------------------------------------------------------------------------


  Excited state 3 (singlet, A2)                                    [converged]
  ----------------------------------------------------------------------------
  Term symbol:  3 (1) A2                                    R^2 =  1.08568e-10

  Total energy:                                            -78.5626573027 a.u.
  Excitation energy:                                               6.845815 eV

  Osc. strength:                                                      0.000000
  Trans. dip. moment [a.u.]:           [   0.000000,   -0.000000,   -0.000000]
  <i|r^2|0> [a.u.]:                    [   0.000000,    0.000000,    0.000000]

  Dip. moment [a.u.]:                  [  -0.000000,   -0.000000,   -2.994182]
  Total dipole [Debye]:                                               7.610454
  <r^2> [a.u.]:                        [  81.881517,   20.309849,   96.147136]
  Total <r^2> [a.u.]:                                               198.338503

  V1^2 = 0.9438, V2^2 = 0.0562

  Important amplitudes:
      occ i      occ j       vir a       vir b          v   
    ---------------------------------------------------------
     1 (B2) A               4 (B1) A                  0.6743
     1 (B2) A               6 (B1) A                  0.0880
    ---------------------------------------------------------

  Density matrix analysis:
  ------------------------
  NOs
    Occupation of frontier NOs:
       0.9821   0.9928
    Number of electrons: 18.000000
    Number of unpaired electrons: n_u =  2.34095, n_u,nl =  2.02818
    NO participation ratio (PR_NO):  2.799397
  
  
  Mulliken Population Analysis
  Atom      Charge (e)              h+              e-           Del q
  --------------------------------------------------------------------
   1 C       -0.520300        0.542201       -0.657463       -0.115261
   2 C       -0.520300        0.542201       -0.657463       -0.115261
   3 H        0.243070        0.068703       -0.012612        0.056091
   4 H        0.243070        0.068703       -0.012612        0.056091
   5 H        0.105233        0.114303       -0.063516        0.050787
   6 H        0.105233        0.114303       -0.063516        0.050787
   7 H       -0.656007        0.035148       -0.018381        0.016767
  --------------------------------------------------------------------
  Sum:       -1.000000        1.485562       -1.485562       -0.000000
  
  Multipole moment analysis of the density matrix
    Molecular charge:                      -1.000000
    Number of electrons:                   18.000000
      Center of electronic charge [Ang]: [  0.000000,   0.000000,   0.088025]
    Total nuclear charge:                  17.000000
      Center of nuclear charge [Ang]:    [ -0.000000,   0.000000,  -0.000000]
    Dipole moment [D]:                     7.610451
      Cartesian components [D]:          [ -0.000000,  -0.000000,  -7.610451]
    RMS size of the density [Ang]:         1.754375
      Cartesian components [Ang]:        [  1.128646,   0.562106,   1.219847]
  
  Exciton analysis of the difference density matrix
    <r_h> [Ang]:                  [  0.000000,   0.000000,  -0.147898]
    <r_e> [Ang]:                  [  0.000000,   0.000000,  -0.717514]
    |<r_e - r_h>| [Ang]:            0.569617
    Hole size [Ang]:                1.727235
      Cartesian components [Ang]: [  1.070435,   0.888671,   1.023607]
    Electron size [Ang]:            3.190466
      Cartesian components [Ang]: [  2.587040,   1.255521,   1.382015]

  Transition density matrix analysis:
  -----------------------------------
  
  CT numbers (Mulliken)
    omega =     0.9130
    <Phe> =    -0.0028
  
  Exciton analysis of the transition density matrix
    Trans. dipole moment [D]:             0.000000
      Cartesian components [D]:         [  0.000000,  -0.000000,  -0.000000]
    <r_h> [Ang]:                        [  0.000000,  -0.000000,  -0.196670]
    <r_e> [Ang]:                        [  0.000000,   0.000000,  -1.053696]
    |<r_e - r_h>| [Ang]:                  0.857026
    Hole size [Ang]:                      1.276294
      Cartesian components [Ang]:       [  0.763984,   0.880424,   0.519720]
    Electron size [Ang]:                  3.688356
      Cartesian components [Ang]:       [  3.072601,   1.468924,   1.416106]
    RMS electron-hole separation [Ang]:   3.987386
      Cartesian components [Ang]:       [  3.159030,   1.706322,   1.734429]
    Covariance(r_h, r_e) [Ang^2]:         0.034071
    Correlation coefficient:              0.007238
    Center-of-mass size [Ang]:            1.955827
      Cartesian components [Ang]:       [  1.586633,   0.859394,   0.754517]

  Decomposition into state-averaged NTOs
    H- 0 -> L+ 4: -0.5974 ( 71.4%)
    H- 0 -> L+ 3: -0.2698 ( 14.6%)
    H- 0 -> L+ 5: -0.1628 (  5.3%)
                   omega =  91.3%
  ----------------------------------------------------------------------------


  Excited state 4 (singlet, A2)                                    [converged]
  ----------------------------------------------------------------------------
  Term symbol:  4 (1) A2                                    R^2 =  2.74902e-10

  Total energy:                                            -78.4922765404 a.u.
  Excitation energy:                                               8.760973 eV

  Osc. strength:                                                      0.000000
  Trans. dip. moment [a.u.]:           [   0.000000,    0.000000,   -0.000000]
  <i|r^2|0> [a.u.]:                    [  -0.000000,    0.000000,   -0.000000]

  Dip. moment [a.u.]:                  [  -0.000000,   -0.000000,   -5.093783]
  Total dipole [Debye]:                                              12.947106
  <r^2> [a.u.]:                        [  74.746536,   19.611410,  104.402838]
  Total <r^2> [a.u.]:                                               198.760783

  V1^2 = 0.9440, V2^2 = 0.0560

  Important amplitudes:
      occ i      occ j       vir a       vir b          v   
    ---------------------------------------------------------
     1 (B2) A               5 (B1) A                 -0.6785
     1 (B2) A               9 (B1) A                 -0.0800
    ---------------------------------------------------------

  Density matrix analysis:
  ------------------------
  NOs
    Occupation of frontier NOs:
       0.9830   0.9951
    Number of electrons: 18.000000
    Number of unpaired electrons: n_u =  2.33844, n_u,nl =  2.02746
    NO participation ratio (PR_NO):  2.784736
  
  
  Mulliken Population Analysis
  Atom      Charge (e)              h+              e-           Del q
  --------------------------------------------------------------------
   1 C       -0.524009        0.533881       -0.652852       -0.118971
   2 C       -0.524009        0.533881       -0.652852       -0.118971
   3 H        0.227221        0.083218       -0.042977        0.040241
   4 H        0.227221        0.083218       -0.042977        0.040241
   5 H        0.112410        0.102719       -0.044755        0.057964
   6 H        0.112410        0.102719       -0.044755        0.057964
   7 H       -0.631242        0.049975       -0.008443        0.041532
  --------------------------------------------------------------------
  Sum:       -1.000000        1.489609       -1.489609       -0.000000
  
  Multipole moment analysis of the density matrix
    Molecular charge:                      -1.000000
    Number of electrons:                   18.000000
      Center of electronic charge [Ang]: [  0.000000,   0.000000,   0.149751]
    Total nuclear charge:                  17.000000
      Center of nuclear charge [Ang]:    [ -0.000000,   0.000000,  -0.000000]
    Dipole moment [D]:                     12.947102
      Cartesian components [D]:          [ -0.000000,  -0.000000, -12.947102]
    RMS size of the density [Ang]:         1.752063
      Cartesian components [Ang]:        [  1.078352,   0.552356,   1.265616]
  
  Exciton analysis of the difference density matrix
    <r_h> [Ang]:                  [  0.000000,  -0.000000,  -0.090835]
    <r_e> [Ang]:                  [  0.000000,   0.000000,   0.086970]
    |<r_e - r_h>| [Ang]:            0.177805
    Hole size [Ang]:                1.721081
      Cartesian components [Ang]: [  1.054367,   0.878618,   1.038489]
    Electron size [Ang]:            3.272612
      Cartesian components [Ang]: [  2.302666,   1.193788,   1.995641]

  Transition density matrix analysis:
  -----------------------------------
  
  CT numbers (Mulliken)
    omega =     0.9130
    <Phe> =    -0.0008
  
  Exciton analysis of the transition density matrix
    Trans. dipole moment [D]:             0.000000
      Cartesian components [D]:         [  0.000000,   0.000000,  -0.000000]
    <r_h> [Ang]:                        [  0.000000,  -0.000000,  -0.196217]
    <r_e> [Ang]:                        [  0.000000,   0.000000,   0.134662]
    |<r_e - r_h>| [Ang]:                  0.330880
    Hole size [Ang]:                      1.276093
      Cartesian components [Ang]:       [  0.763678,   0.880641,   0.519308]
    Electron size [Ang]:                  3.848425
      Cartesian components [Ang]:       [  2.719141,   1.389136,   2.342423]
    RMS electron-hole separation [Ang]:   4.063496
      Cartesian components [Ang]:       [  2.818451,   1.644540,   2.421533]
    Covariance(r_h, r_e) [Ang^2]:         0.018134
    Correlation coefficient:              0.003693
    Center-of-mass size [Ang]:            2.029474
      Cartesian components [Ang]:       [  1.415115,   0.822488,   1.199887]

  Decomposition into state-averaged NTOs
    H- 0 -> L+ 5:  0.5674 ( 64.4%)
    H- 0 -> L+ 3: -0.3664 ( 26.8%)
                   omega =  91.3%
  ----------------------------------------------------------------------------


  Excited state 5 (singlet, A2)                                    [converged]
  ----------------------------------------------------------------------------
  Term symbol:  5 (1) A2                                    R^2 =  1.77127e-09

  Total energy:                                            -78.4617801229 a.u.
  Excitation energy:                                               9.590823 eV

  Osc. strength:                                                      0.000000
  Trans. dip. moment [a.u.]:           [  -0.000000,   -0.000000,   -0.000000]
  <i|r^2|0> [a.u.]:                    [  -0.000000,   -0.000000,    0.000000]

  Dip. moment [a.u.]:                  [   0.000000,   -0.000000,   -4.534581]
  Total dipole [Debye]:                                              11.525758
  <r^2> [a.u.]:                        [  53.461263,   19.645210,   88.640686]
  Total <r^2> [a.u.]:                                               161.747159

  V1^2 = 0.9542, V2^2 = 0.0458

  Important amplitudes:
      occ i      occ j       vir a       vir b          v   
    ---------------------------------------------------------
     4 (A1) A               2 (A2) A                  0.4925
     4 (A1) A               1 (A2) A                  0.4595
    ---------------------------------------------------------

  Density matrix analysis:
  ------------------------
  NOs
    Occupation of frontier NOs:
       0.9907   1.0043
    Number of electrons: 18.000000
    Number of unpaired electrons: n_u =  2.39680, n_u,nl =  2.03815
    NO participation ratio (PR_NO):  2.897257
  
  
  Mulliken Population Analysis
  Atom      Charge (e)              h+              e-           Del q
  --------------------------------------------------------------------
   1 C       -0.535084        0.440434       -0.570480       -0.130046
   2 C       -0.535084        0.440434       -0.570480       -0.130046
   3 H        0.248798        0.070751       -0.008932        0.061819
   4 H        0.248798        0.070751       -0.008932        0.061819
   5 H        0.121311        0.073490       -0.006625        0.066865
   6 H        0.121311        0.073490       -0.006625        0.066865
   7 H       -0.670051        0.007021       -0.004298        0.002723
  --------------------------------------------------------------------
  Sum:       -1.000000        1.176371       -1.176371        0.000000
  
  Multipole moment analysis of the density matrix
    Molecular charge:                      -1.000000
    Number of electrons:                   18.000000
      Center of electronic charge [Ang]: [ -0.000000,   0.000000,   0.133311]
    Total nuclear charge:                  17.000000
      Center of nuclear charge [Ang]:    [ -0.000000,   0.000000,  -0.000000]
    Dipole moment [D]:                     11.525754
      Cartesian components [D]:          [  0.000000,  -0.000000, -11.525754]
    RMS size of the density [Ang]:         1.580681
      Cartesian components [Ang]:        [  0.911978,   0.552832,   1.166715]
  
  Exciton analysis of the difference density matrix
    <r_h> [Ang]:                  [  0.000000,   0.000000,  -0.156991]
    <r_e> [Ang]:                  [ -0.000000,   0.000000,  -0.183392]
    |<r_e - r_h>| [Ang]:            0.026401
    Hole size [Ang]:                1.457978
      Cartesian components [Ang]: [  1.118976,   0.554891,   0.752123]
    Electron size [Ang]:            1.765188
      Cartesian components [Ang]: [  1.221351,   1.069126,   0.693657]

  Transition density matrix analysis:
  -----------------------------------
  
  CT numbers (Mulliken)
    omega =     0.9221
    <Phe> =    -0.0154
  
  Exciton analysis of the transition density matrix
    Trans. dipole moment [D]:             0.000000
      Cartesian components [D]:         [ -0.000000,  -0.000000,  -0.000000]
    <r_h> [Ang]:                        [ -0.000000,   0.000000,  -0.159555]
    <r_e> [Ang]:                        [ -0.000000,   0.000000,  -0.197181]
    |<r_e - r_h>| [Ang]:                  0.037626
    Hole size [Ang]:                      1.295654
      Cartesian components [Ang]:       [  1.072953,   0.410700,   0.599014]
    Electron size [Ang]:                  1.832909
      Cartesian components [Ang]:       [  1.277764,   1.129270,   0.672031]
    RMS electron-hole separation [Ang]:   2.228631
      Cartesian components [Ang]:       [  1.646134,   1.202056,   0.901167]
    Covariance(r_h, r_e) [Ang^2]:         0.036447
    Correlation coefficient:              0.015347
    Center-of-mass size [Ang]:            1.130395
      Cartesian components [Ang]:       [  0.845290,   0.600606,   0.450056]

  Decomposition into state-averaged NTOs
    H- 2 -> L+ 0: -0.6724 ( 90.4%)
                   omega =  92.2%
  ----------------------------------------------------------------------------


  Excited state 6 (singlet, A2)                                    [converged]
  ----------------------------------------------------------------------------
  Term symbol:  6 (1) A2                                    R^2 =  6.19682e-09

  Total energy:                                            -78.4363298967 a.u.
  Excitation energy:                                              10.283359 eV

  Osc. strength:                                                      0.000000
  Trans. dip. moment [a.u.]:           [   0.000000,    0.000000,   -0.000000]
  <i|r^2|0> [a.u.]:                    [  -0.000000,    0.000000,   -0.000000]

  Dip. moment [a.u.]:                  [  -0.000000,    0.000000,   -4.460201]
  Total dipole [Debye]:                                              11.336702
  <r^2> [a.u.]:                        [  56.162304,   40.236911,   92.312758]
  Total <r^2> [a.u.]:                                               188.711974

  V1^2 = 0.9366, V2^2 = 0.0634

  Important amplitudes:
      occ i      occ j       vir a       vir b          v   
    ---------------------------------------------------------
     3 (B1) A               2 (B2) A                  0.6754
     3 (B1) A               3 (B2) A                  0.1028
    ---------------------------------------------------------

  Density matrix analysis:
  ------------------------
  NOs
    Occupation of frontier NOs:
       0.9935   1.0206
    Number of electrons: 18.000000
    Number of unpaired electrons: n_u =  2.48070, n_u,nl =  2.07581
    NO participation ratio (PR_NO):  3.129314
  
  
  Mulliken Population Analysis
  Atom      Charge (e)              h+              e-           Del q
  --------------------------------------------------------------------
   1 C       -0.710107        0.319228       -0.624297       -0.305068
   2 C       -0.710107        0.319228       -0.624297       -0.305068
   3 H        0.320799        0.153479       -0.019660        0.133819
   4 H        0.320799        0.153479       -0.019660        0.133819
   5 H        0.215991        0.171667       -0.010121        0.161546
   6 H        0.215991        0.171667       -0.010121        0.161546
   7 H       -0.653366        0.034274       -0.014867        0.019408
  --------------------------------------------------------------------
  Sum:       -1.000000        1.323023       -1.323023        0.000000
  
  Multipole moment analysis of the density matrix
    Molecular charge:                      -1.000000
    Number of electrons:                   18.000000
      Center of electronic charge [Ang]: [  0.000000,  -0.000000,   0.131124]
    Total nuclear charge:                  17.000000
      Center of nuclear charge [Ang]:    [ -0.000000,   0.000000,  -0.000000]
    Dipole moment [D]:                     11.336699
      Cartesian components [D]:          [ -0.000000,   0.000000, -11.336699]
    RMS size of the density [Ang]:         1.708398
      Cartesian components [Ang]:        [  0.934732,   0.791183,   1.191188]
  
  Exciton analysis of the difference density matrix
    <r_h> [Ang]:                  [ -0.000000,   0.000000,  -0.078717]
    <r_e> [Ang]:                  [  0.000000,  -0.000000,  -0.131941]
    |<r_e - r_h>| [Ang]:            0.053224
    Hole size [Ang]:                1.800589
      Cartesian components [Ang]: [  1.196921,   0.648038,   1.178791]
    Electron size [Ang]:            3.134749
      Cartesian components [Ang]: [  1.489077,   2.349661,   1.445126]

  Transition density matrix analysis:
  -----------------------------------
  
  CT numbers (Mulliken)
    omega =     0.9204
    <Phe> =    -0.0007
  
  Exciton analysis of the transition density matrix
    Trans. dipole moment [D]:             0.000000
      Cartesian components [D]:         [  0.000000,   0.000000,  -0.000000]
    <r_h> [Ang]:                        [ -0.000000,   0.000000,  -0.142730]
    <r_e> [Ang]:                        [  0.000000,  -0.000000,  -0.189591]
    |<r_e - r_h>| [Ang]:                  0.046862
    Hole size [Ang]:                      1.520708
      Cartesian components [Ang]:       [  1.124876,   0.417060,   0.934489]
    Electron size [Ang]:                  3.477465
      Cartesian components [Ang]:       [  1.601118,   2.673345,   1.543506]
    RMS electron-hole separation [Ang]:   3.759416
      Cartesian components [Ang]:       [  1.886451,   2.705047,   1.804780]
    Covariance(r_h, r_e) [Ang^2]:         0.137152
    Correlation coefficient:              0.025935
    Center-of-mass size [Ang]:            1.915700
      Cartesian components [Ang]:       [  1.012318,   1.353158,   0.902265]

  Decomposition into state-averaged NTOs
    H- 3 -> L+ 2:  0.6774 ( 91.8%)
                   omega =  92.0%
  ----------------------------------------------------------------------------


  Excited state 7 (singlet, A2)                                    [converged]
  ----------------------------------------------------------------------------
  Term symbol:  7 (1) A2                                    R^2 =  6.23175e-09

  Total energy:                                            -78.4197902382 a.u.
  Excitation energy:                                              10.733426 eV

  Osc. strength:                                                      0.000000
  Trans. dip. moment [a.u.]:           [   0.000000,   -0.000000,   -0.000000]
  <i|r^2|0> [a.u.]:                    [  -0.000000,    0.000000,   -0.000000]

  Dip. moment [a.u.]:                  [  -0.000000,    0.000000,   -4.702817]
  Total dipole [Debye]:                                              11.953371
  <r^2> [a.u.]:                        [  74.046787,   22.056872,   95.636347]
  Total <r^2> [a.u.]:                                               191.740007

  V1^2 = 0.9455, V2^2 = 0.0545

  Important amplitudes:
      occ i      occ j       vir a       vir b          v   
    ---------------------------------------------------------
     1 (B2) A               6 (B1) A                  0.6625
     1 (B2) A               8 (B1) A                  0.1309
    ---------------------------------------------------------

  Density matrix analysis:
  ------------------------
  NOs
    Occupation of frontier NOs:
       0.9821   0.9887
    Number of electrons: 18.000000
    Number of unpaired electrons: n_u =  2.34136, n_u,nl =  2.02852
    NO participation ratio (PR_NO):  2.811873
  
  
  Mulliken Population Analysis
  Atom      Charge (e)              h+              e-           Del q
  --------------------------------------------------------------------
   1 C       -0.569303        0.534542       -0.698807       -0.164265
   2 C       -0.569303        0.534542       -0.698807       -0.164265
   3 H        0.199487        0.070867       -0.058359        0.012508
   4 H        0.199487        0.070867       -0.058359        0.012508
   5 H        0.188834        0.097344        0.037044        0.134388
   6 H        0.188834        0.097344        0.037044        0.134388
   7 H       -0.638036        0.041768       -0.007030        0.034738
  --------------------------------------------------------------------
  Sum:       -1.000000        1.447275       -1.447275        0.000000
  
  Multipole moment analysis of the density matrix
    Molecular charge:                      -1.000000
    Number of electrons:                   18.000000
      Center of electronic charge [Ang]: [  0.000000,  -0.000000,   0.138257]
    Total nuclear charge:                  17.000000
      Center of nuclear charge [Ang]:    [ -0.000000,   0.000000,  -0.000000]
    Dipole moment [D]:                     11.953367
      Cartesian components [D]:          [ -0.000000,   0.000000, -11.953367]
    RMS size of the density [Ang]:         1.721572
      Cartesian components [Ang]:        [  1.073292,   0.585783,   1.211905]
  
  Exciton analysis of the difference density matrix
    <r_h> [Ang]:                  [  0.000000,   0.000000,  -0.115537]
    <r_e> [Ang]:                  [  0.000000,  -0.000000,  -0.075483]
    |<r_e - r_h>| [Ang]:            0.040054
    Hole size [Ang]:                1.692771
      Cartesian components [Ang]: [  1.052454,   0.878810,   0.992728]
    Electron size [Ang]:            3.080340
      Cartesian components [Ang]: [  2.299006,   1.384824,   1.511730]

  Transition density matrix analysis:
  -----------------------------------
  
  CT numbers (Mulliken)
    omega =     0.9143
    <Phe> =    -0.0026
  
  Exciton analysis of the transition density matrix
    Trans. dipole moment [D]:             0.000000
      Cartesian components [D]:         [  0.000000,  -0.000000,  -0.000000]
    <r_h> [Ang]:                        [ -0.000000,  -0.000000,  -0.196083]
    <r_e> [Ang]:                        [  0.000000,  -0.000000,  -0.086874]
    |<r_e - r_h>| [Ang]:                  0.109208
    Hole size [Ang]:                      1.275216
      Cartesian components [Ang]:       [  0.763306,   0.879415,   0.519778]
    Electron size [Ang]:                  3.566157
      Cartesian components [Ang]:       [  2.677649,   1.615832,   1.713696]
    RMS electron-hole separation [Ang]:   3.780479
      Cartesian components [Ang]:       [  2.779084,   1.831081,   1.793280]
    Covariance(r_h, r_e) [Ang^2]:         0.031777
    Correlation coefficient:              0.006988
    Center-of-mass size [Ang]:            1.897841
      Cartesian components [Ang]:       [  1.394773,   0.924082,   0.895813]

  Decomposition into state-averaged NTOs
    H- 0 -> L+ 3: -0.5002 ( 50.0%)
    H- 0 -> L+ 5: -0.3277 ( 21.5%)
    H- 0 -> L+ 4:  0.3141 ( 19.7%)
                   omega =  91.4%
  ----------------------------------------------------------------------------


  Excited state 8 (singlet, A2)                                    [converged]
  ----------------------------------------------------------------------------
  Term symbol:  8 (1) A2                                    R^2 =  3.33417e-08

  Total energy:                                            -78.3768337009 a.u.
  Excitation energy:                                              11.902332 eV

  Osc. strength:                                                      0.000000
  Trans. dip. moment [a.u.]:           [  -0.000000,   -0.000000,    0.000000]
  <i|r^2|0> [a.u.]:                    [   0.000000,    0.000000,    0.000000]

  Dip. moment [a.u.]:                  [   0.000000,   -0.000000,    0.534180]
  Total dipole [Debye]:                                               1.357752
  <r^2> [a.u.]:                        [  62.830013,   26.298894,   63.478994]
  Total <r^2> [a.u.]:                                               152.607900

  V1^2 = 0.9172, V2^2 = 0.0828

  Important amplitudes:
      occ i      occ j       vir a       vir b          v   
    ---------------------------------------------------------
     5 (A1) A               3 (A2) A                 -0.6589
     5 (A1) A               2 (A2) A                 -0.1169
    ---------------------------------------------------------

  Density matrix analysis:
  ------------------------
  NOs
    Occupation of frontier NOs:
       0.9507   1.0034
    Number of electrons: 18.000000
    Number of unpaired electrons: n_u =  2.49603, n_u,nl =  2.07619
    NO participation ratio (PR_NO):  3.247583
  
  
  Mulliken Population Analysis
  Atom      Charge (e)              h+              e-           Del q
  --------------------------------------------------------------------
   1 C       -0.685565        0.247016       -0.527542       -0.280527
   2 C       -0.685565        0.247016       -0.527542       -0.280527
   3 H        0.121364        0.009024       -0.074639       -0.065615
   4 H        0.121364        0.009024       -0.074639       -0.065615
   5 H        0.053605        0.007980       -0.008821       -0.000840
   6 H        0.053605        0.007980       -0.008821       -0.000840
   7 H        0.021191        0.720904       -0.026939        0.693965
  --------------------------------------------------------------------
  Sum:       -1.000000        1.248944       -1.248944        0.000000
  
  Multipole moment analysis of the density matrix
    Molecular charge:                      -1.000000
    Number of electrons:                   18.000000
      Center of electronic charge [Ang]: [ -0.000000,   0.000000,  -0.015704]
    Total nuclear charge:                  17.000000
      Center of nuclear charge [Ang]:    [ -0.000000,   0.000000,  -0.000000]
    Dipole moment [D]:                     1.357751
      Cartesian components [D]:          [  0.000000,  -0.000000,   1.357751]
    RMS size of the density [Ang]:         1.540745
      Cartesian components [Ang]:        [  0.988663,   0.639637,   0.993632]
  
  Exciton analysis of the difference density matrix
    <r_h> [Ang]:                  [ -0.000000,  -0.000000,   2.176514]
    <r_e> [Ang]:                  [ -0.000000,   0.000000,   0.004015]
    |<r_e - r_h>| [Ang]:            2.172500
    Hole size [Ang]:                2.034411
      Cartesian components [Ang]: [  0.946655,   0.862512,   1.580742]
    Electron size [Ang]:            2.787114
      Cartesian components [Ang]: [  1.795108,   1.738495,   1.234192]

  Transition density matrix analysis:
  -----------------------------------
  
  CT numbers (Mulliken)
    omega =     0.9048
    <Phe> =    -0.0004
  
  Exciton analysis of the transition density matrix
    Trans. dipole moment [D]:             0.000000
      Cartesian components [D]:         [ -0.000000,   0.000000,   0.000000]
    <r_h> [Ang]:                        [ -0.000000,   0.000000,   2.774698]
    <r_e> [Ang]:                        [ -0.000000,   0.000000,  -0.189448]
    |<r_e - r_h>| [Ang]:                  2.964147
    Hole size [Ang]:                      1.514855
      Cartesian components [Ang]:       [  0.778170,   0.752185,   1.059932]
    Electron size [Ang]:                  2.897537
      Cartesian components [Ang]:       [  1.907860,   1.887979,   1.091479]
    RMS electron-hole separation [Ang]:   4.412595
      Cartesian components [Ang]:       [  2.059131,   2.032430,   3.331697]
    Covariance(r_h, r_e) [Ang^2]:         0.002841
    Correlation coefficient:              0.000647
    Center-of-mass size [Ang]:            1.635251
      Cartesian components [Ang]:       [  1.030890,   1.016086,   0.760843]

  Decomposition into state-averaged NTOs
    H- 1 -> L+ 6:  0.6256 ( 78.3%)
    H- 1 -> L+ 1:  0.2287 ( 10.5%)
    H- 4 -> L+ 0: -0.0854 (  1.5%)
                   omega =  90.5%
  ----------------------------------------------------------------------------


  Excited state 9 (singlet, A2)                                    [converged]
  ----------------------------------------------------------------------------
  Term symbol:  9 (1) A2                                    R^2 =  3.49432e-07

  Total energy:                                            -78.3685626728 a.u.
  Excitation energy:                                              12.127399 eV

  Osc. strength:                                                      0.000000
  Trans. dip. moment [a.u.]:           [   0.000000,   -0.000000,    0.000000]
  <i|r^2|0> [a.u.]:                    [  -0.000000,   -0.000000,    0.000000]

  Dip. moment [a.u.]:                  [   0.000000,   -0.000000,   -4.507543]
  Total dipole [Debye]:                                              11.457035
  <r^2> [a.u.]:                        [  55.435392,   20.418882,   87.106673]
  Total <r^2> [a.u.]:                                               162.960947

  V1^2 = 0.9359, V2^2 = 0.0641

  Important amplitudes:
      occ i      occ j       vir a       vir b          v   
    ---------------------------------------------------------
     3 (A1) A               2 (A2) A                 -0.4725
     3 (A1) A               1 (A2) A                 -0.4704
    ---------------------------------------------------------

  Density matrix analysis:
  ------------------------
  NOs
    Occupation of frontier NOs:
       0.9881   1.0460
    Number of electrons: 18.000000
    Number of unpaired electrons: n_u =  2.46148, n_u,nl =  2.06404
    NO participation ratio (PR_NO):  3.181615
  
  
  Mulliken Population Analysis
  Atom      Charge (e)              h+              e-           Del q
  --------------------------------------------------------------------
   1 C       -0.592040        0.335309       -0.522311       -0.187002
   2 C       -0.592040        0.335309       -0.522311       -0.187002
   3 H        0.260832        0.082992       -0.009140        0.073852
   4 H        0.260832        0.082992       -0.009140        0.073852
   5 H        0.160234        0.116599       -0.010811        0.105788
   6 H        0.160234        0.116599       -0.010811        0.105788
   7 H       -0.658050        0.018563       -0.003840        0.014724
  --------------------------------------------------------------------
  Sum:       -1.000000        1.088363       -1.088363        0.000000
  
  Multipole moment analysis of the density matrix
    Molecular charge:                      -1.000000
    Number of electrons:                   18.000000
      Center of electronic charge [Ang]: [ -0.000000,   0.000000,   0.132516]
    Total nuclear charge:                  17.000000
      Center of nuclear charge [Ang]:    [ -0.000000,   0.000000,  -0.000000]
    Dipole moment [D]:                     11.457031
      Cartesian components [D]:          [  0.000000,  -0.000000, -11.457031]
    RMS size of the density [Ang]:         1.586709
      Cartesian components [Ang]:        [  0.928664,   0.563613,   1.156534]
  
  Exciton analysis of the difference density matrix
    <r_h> [Ang]:                  [  0.000000,   0.000000,  -0.145043]
    <r_e> [Ang]:                  [ -0.000000,   0.000000,  -0.186724]
    |<r_e - r_h>| [Ang]:            0.041682
    Hole size [Ang]:                1.534519
      Cartesian components [Ang]: [  0.995812,   0.544633,   1.032707]
    Electron size [Ang]:            1.932147
      Cartesian components [Ang]: [  1.326098,   1.182515,   0.759152]

  Transition density matrix analysis:
  -----------------------------------
  
  CT numbers (Mulliken)
    omega =     0.9073
    <Phe> =    -0.0114
  
  Exciton analysis of the transition density matrix
    Trans. dipole moment [D]:             0.000000
      Cartesian components [D]:         [  0.000000,  -0.000000,   0.000000]
    <r_h> [Ang]:                        [  0.000000,   0.000000,  -0.167041]
    <r_e> [Ang]:                        [ -0.000000,   0.000000,  -0.199429]
    |<r_e - r_h>| [Ang]:                  0.032388
    Hole size [Ang]:                      1.423429
      Cartesian components [Ang]:       [  0.940308,   0.435008,   0.976084]
    Electron size [Ang]:                  1.944165
      Cartesian components [Ang]:       [  1.343502,   1.208048,   0.717916]
    RMS electron-hole separation [Ang]:   2.410366
      Cartesian components [Ang]:       [  1.644778,   1.282408,   1.208305]
    Covariance(r_h, r_e) [Ang^2]:        -0.001443
    Correlation coefficient:             -0.000521
    Center-of-mass size [Ang]:            1.204475
      Cartesian components [Ang]:       [  0.817474,   0.642778,   0.607728]

  Decomposition into state-averaged NTOs
    H- 4 -> L+ 0: -0.6622 ( 87.7%)
    H- 1 -> L+ 6: -0.0787 (  1.2%)
                   omega =  90.7%
  ----------------------------------------------------------------------------


  Excited state 10 (singlet, A2)                                    [converged]
  ----------------------------------------------------------------------------
  Term symbol:  10 (1) A2                                   R^2 =  1.62763e-09

  Total energy:                                            -78.3575600440 a.u.
  Excitation energy:                                              12.426795 eV

  Osc. strength:                                                      0.000000
  Trans. dip. moment [a.u.]:           [   0.000000,   -0.000000,   -0.000000]
  <i|r^2|0> [a.u.]:                    [  -0.000000,    0.000000,   -0.000000]

  Dip. moment [a.u.]:                  [  -0.000000,   -0.000000,    8.649241]
  Total dipole [Debye]:                                              21.984182
  <r^2> [a.u.]:                        [  98.360595,   49.170578,   45.469386]
  Total <r^2> [a.u.]:                                               193.000559

  V1^2 = 0.0013, V2^2 = 0.9987

  Important amplitudes:
      occ i      occ j       vir a       vir b          v   
    ---------------------------------------------------------
     5 (A1) A   5 (A1) B    4 (B1) A    2 (B2) B      0.3533
     5 (A1) A               3 (A2) A                  0.0237
    ---------------------------------------------------------

  Density matrix analysis:
  ------------------------
  NOs
    Occupation of frontier NOs:
       0.9995   1.0010
    Number of electrons: 18.000000
    Number of unpaired electrons: n_u =  2.41186, n_u,nl =  2.05972
    NO participation ratio (PR_NO):  2.890796
  
  
  Mulliken Population Analysis
  Atom      Charge (e)              h+              e-           Del q
  --------------------------------------------------------------------
   1 C       -1.220020        0.133183       -0.948165       -0.814982
   2 C       -1.220020        0.133183       -0.948165       -0.814982
   3 H        0.199437        0.014928       -0.002471        0.012457
   4 H        0.199437        0.014928       -0.002471        0.012457
   5 H        0.006430        0.000791       -0.048807       -0.048016
   6 H        0.006430        0.000791       -0.048807       -0.048016
   7 H        1.028307        1.701075        0.000005        1.701081
  --------------------------------------------------------------------
  Sum:       -1.000000        1.998881       -1.998881       -0.000000
  
  Multipole moment analysis of the density matrix
    Molecular charge:                      -1.000000
    Number of electrons:                   18.000000
      Center of electronic charge [Ang]: [  0.000000,   0.000000,  -0.254277]
    Total nuclear charge:                  17.000000
      Center of nuclear charge [Ang]:    [ -0.000000,   0.000000,  -0.000000]
    Dipole moment [D]:                     21.984175
      Cartesian components [D]:          [ -0.000000,  -0.000000,  21.984175]
    RMS size of the density [Ang]:         1.714025
      Cartesian components [Ang]:        [  1.237016,   0.874616,   0.801696]
  
  Exciton analysis of the difference density matrix
    <r_h> [Ang]:                  [  0.000000,   0.000000,   2.876463]
    <r_e> [Ang]:                  [  0.000000,   0.000000,  -0.629316]
    |<r_e - r_h>| [Ang]:            3.505780
    Hole size [Ang]:                1.393159
      Cartesian components [Ang]: [  0.751827,   0.740152,   0.909847]
    Electron size [Ang]:            3.845165
      Cartesian components [Ang]: [  2.645055,   2.274994,   1.616596]

  Transition density matrix analysis:
  -----------------------------------
  
  CT numbers (Mulliken)
    omega =     0.0013
    <Phe> =     0.0052
  
  Exciton analysis of the transition density matrix
    Trans. dipole moment [D]:             0.000000
      Cartesian components [D]:         [  0.000000,  -0.000000,  -0.000000]
    <r_h> [Ang]:                        [  0.000000,   0.000000,   2.583118]
    <r_e> [Ang]:                        [ -0.000000,   0.000000,  -0.213494]
    |<r_e - r_h>| [Ang]:                  2.796612
    Hole size [Ang]:                      1.721902
      Cartesian components [Ang]:       [  0.822874,   0.818705,   1.271828]
    Electron size [Ang]:                  2.659804
      Cartesian components [Ang]:       [  1.789562,   1.689572,   1.008648]
    RMS electron-hole separation [Ang]:   4.220967
      Cartesian components [Ang]:       [  1.973685,   1.883017,   3.221083]
    Covariance(r_h, r_e) [Ang^2]:         0.021989
    Correlation coefficient:              0.004801
    Center-of-mass size [Ang]:            1.587725
      Cartesian components [Ang]:       [  0.982837,   0.935963,   0.823938]

  Decomposition into state-averaged NTOs
                   omega =   0.1%
  ----------------------------------------------------------------------------


--------------------------------------------------------------------------------
  Time of ADC calculation:  CPU 137.05 s  wall 39.68 s
================================================================================
 
 --------------------------------------------------------------
             Orbital Energies (a.u.) and Symmetries
 --------------------------------------------------------------
 
 Alpha MOs, Restricted
 -- Occupied --                  
-11.072 -11.071  -0.878  -0.620  -0.494  -0.405  -0.349  -0.215
  1 A1    1 B1    2 A1    2 B1    3 A1    4 A1    3 B1    1 B2                 
 -0.021
  5 A1                                                                         
 -- Virtual --                   
  0.188   0.198   0.227   0.227   0.235   0.255   0.313   0.335
  4 B1    6 A1    2 B2    1 A2    7 A1    5 B1    8 A1    2 A2                 
  0.352   0.434   0.472   0.481   0.503   0.506   0.526   0.550
  6 B1    9 A1    7 B1   10 A1    8 B1   11 A1    3 B2   12 A1                 
  0.561   0.610   0.697   0.773   0.985   1.009   1.058   1.092
  9 B1    3 A2   10 B1   11 B1   13 A1   14 A1   15 A1   12 B1                 
  1.165   1.188   1.254   1.278   1.289   1.303   1.317   1.361
 16 A1   13 B1   17 A1    4 B2   18 A1   14 B1    5 B2    4 A2                 
  1.449   1.456   1.466   1.641   1.787   1.881   1.904   1.908
  5 A2    6 B2   15 B1   16 B1   19 A1   17 B1   20 A1    7 B2                 
  1.943   2.018   2.041   2.106   2.133   2.186   2.247   2.271
 18 B1   21 A1    6 A2    8 B2   19 B1    9 B2   22 A1   23 A1                 
  2.345   2.496   2.577   2.659   2.723   2.755   3.016   3.041
  7 A2   20 B1    8 A2   24 A1   21 B1   22 B1   25 A1   26 A1                 
  3.440   3.514
 23 B1   24 B1                                                                 
 
 Beta MOs, Restricted
 -- Occupied --                  
-11.072 -11.071  -0.878  -0.620  -0.494  -0.405  -0.349  -0.215
  1 A1    1 B1    2 A1    2 B1    3 A1    4 A1    3 B1    1 B2                 
 -0.021
  5 A1                                                                         
 -- Virtual --                   
  0.188   0.198   0.227   0.227   0.235   0.255   0.313   0.335
  4 B1    6 A1    2 B2    1 A2    7 A1    5 B1    8 A1    2 A2                 
  0.352   0.434   0.472   0.481   0.503   0.506   0.526   0.550
  6 B1    9 A1    7 B1   10 A1    8 B1   11 A1    3 B2   12 A1                 
  0.561   0.610   0.697   0.773   0.985   1.009   1.058   1.092
  9 B1    3 A2   10 B1   11 B1   13 A1   14 A1   15 A1   12 B1                 
  1.165   1.188   1.254   1.278   1.289   1.303   1.317   1.361
 16 A1   13 B1   17 A1    4 B2   18 A1   14 B1    5 B2    4 A2                 
  1.449   1.456   1.466   1.641   1.787   1.881   1.904   1.908
  5 A2    6 B2   15 B1   16 B1   19 A1   17 B1   20 A1    7 B2                 
  1.943   2.018   2.041   2.106   2.133   2.186   2.247   2.271
 18 B1   21 A1    6 A2    8 B2   19 B1    9 B2   22 A1   23 A1                 
  2.345   2.496   2.577   2.659   2.723   2.755   3.016   3.041
  7 A2   20 B1    8 A2   24 A1   21 B1   22 B1   25 A1   26 A1                 
  3.440   3.514
 23 B1   24 B1                                                                 
 --------------------------------------------------------------
 
          Ground-State Mulliken Net Atomic Charges

     Atom                 Charge (a.u.)
  ----------------------------------------
      1 C                    -0.380645
      2 C                    -0.380645
      3 H                     0.187068
      4 H                     0.187068
      5 H                     0.046294
      6 H                     0.046294
      7 H                    -0.705432
  ----------------------------------------
  Sum of atomic charges =    -1.000000

 -----------------------------------------------------------------
                    Cartesian Multipole Moments
 -----------------------------------------------------------------
    Charge (ESU x 10^10)
                -4.8032
    Dipole Moment (Debye)
         X      -0.0000      Y       0.0000      Z     -11.9437
       Tot      11.9437
    Quadrupole Moments (Debye-Ang)
        XX     -18.8974     XY       0.0000     YY     -21.7776
        XZ      -0.0000     YZ      -0.0000     ZZ     -55.7669
    Octopole Moments (Debye-Ang^2)
       XXX      -0.0000    XXY      -0.0000    XYY      -0.0000
       YYY       0.0000    XXZ      -9.3343    XYZ       0.0000
       YYZ      -9.8201    XZZ      -0.0000    YZZ      -0.0000
       ZZZ    -135.9244
    Hexadecapole Moments (Debye-Ang^3)
      XXXX     -87.5087   XXXY      -0.0000   XXYY     -21.5225
      XYYY       0.0000   YYYY     -38.3194   XXXZ      -0.0000
      XXYZ      -0.0000   XYYZ      -0.0000   YYYZ      -0.0000
      XXZZ     -59.1319   XYZZ       0.0000   YYZZ     -53.6556
      XZZZ      -0.0000   YZZZ      -0.0000   ZZZZ    -585.3908
 -----------------------------------------------------------------
 Total job time:  119.51s(wall), 180.93s(cpu) 
 Thu Feb 17 21:06:48 2022

        *************************************************************
        *                                                           *
        *  Thank you very much for using Q-Chem.  Have a nice day.  *
        *                                                           *
        *************************************************************


