/src/tsommerfeld/qchem/exe/qcprog.exe .input1.611111.24437.qcin.1 /src/jdavis/qchem.scratch/qchem24437/

                  Welcome to Q-Chem
     A Quantum Leap Into The Future Of Chemistry


 Q-Chem 5.4 (devel), Q-Chem, Inc., Pleasanton, CA (2021)

 E. Epifanovsky,  A. T. B. Gilbert,  Xintian Feng,  Joonho Lee,  Yuezhi Mao,  
 N. Mardirossian,  P. Pokhilko,  A. White,  M. Wormit,  M. P. Coons,  
 A. L. Dempwolff,  Zhengting Gan,  D. Hait,  P. R. Horn,  L. D. Jacobson,  
 I. Kaliman,  J. Kussmann,  A. W. Lange,  Ka Un Lao,  D. S. Levine,  Jie Liu,  
 S. C. McKenzie,  A. F. Morrison,  K. Nanda,  F. Plasser,  D. R. Rehn,  
 M. L. Vidal,  Zhi-Qiang You,  Ying Zhu,  B. Alam,  B. Albrecht,  
 A. Aldossary,  E. Alguire,  J. H. Andersen,  D. Barton,  K. Begam,  A. Behn,  
 Y. A. Bernard,  E. J. Berquist,  H. Burton,  A. Carreras,  K. Carter-Fenk,  
 R. Chakraborty,  A. D. Chien,  K. D. Closser,  V. Cofer-Shabica,  
 S. Dasgupta,  Jia Deng,  M. de Wergifosse,  M. Diedenhofen,  Hainam Do,  
 S. Ehlert,  Po-Tung Fang,  S. Fatehi,  Qingguo Feng,  T. Friedhoff,  
 J. Gayvert,  Qinghui Ge,  G. Gidofalvi,  M. Goldey,  J. Gomes,  
 C. Gonzalez-Espinoza,  S. Gulania,  A. Gunina,  M. W. D. Hanson-Heine,  
 P. H. P. Harbach,  A. W. Hauser,  M. F. Herbst,  M. Hernandez Vera,  
 M. Hodecker,  Z. C. Holden,  S. Houck,  Xunkun Huang,  Kerwin Hui,  
 B. C. Huynh,  M. Ivanov,  Hyunjun Ji,  Hanjie Jiang,  B. Kaduk,  S. Kaehler,  
 K. Khistyaev,  Jaehoon Kim,  P. Klunzinger,  Z. Koczor-Benda,  
 Joong Hoon Koh,  D. Kosenkov,  L. Koulias,  T. Kowalczyk,  C. M. Krauter,  
 K. Kue,  A. Kunitsa,  T. Kus,  A. Landau,  K. V. Lawler,  D. Lefrancois,  
 S. Lehtola,  Rain Li,  Yi-Pei Li,  Jiashu Liang,  M. Liebenthal,  
 Hung-Hsuan Lin,  You-Sheng Lin,  Fenglai Liu,  Kuan-Yu Liu,  
 M. Loipersberger,  A. Luenser,  A. Manjanath,  P. Manohar,  E. Mansoor,  
 S. F. Manzer,  Shan-Ping Mao,  A. V. Marenich,  T. Markovich,  S. Mason,  
 S. A. Maurer,  P. F. McLaughlin,  M. F. S. J. Menger,  J.-M. Mewes,  
 S. A. Mewes,  P. Morgante,  J. W. Mullinax,  K. J. Oosterbaan,  G. Paran,  
 Alexander C. Paul,  Suranjan K. Paul,  F. Pavosevic,  Zheng Pei,  S. Prager,  
 E. I. Proynov,  E. Ramos,  B. Rana,  A. E. Rask,  A. Rettig,  R. M. Richard,  
 F. Rob,  E. Rossomme,  T. Scheele,  M. Scheurer,  M. Schneider,  
 N. Sergueev,  S. M. Sharada,  W. Skomorowski,  D. W. Small,  C. J. Stein,  
 Yu-Chuan Su,  E. J. Sundstrom,  Zhen Tao,  J. Thirman,  T. Tsuchimochi,  
 N. M. Tubman,  S. P. Veccham,  O. Vydrov,  J. Wenzel,  J. Witte,  A. Yamada,  
 Kun Yao,  S. Yeganeh,  S. R. Yost,  A. Zech,  Igor Ying Zhang,  Xing Zhang,  
 Yu Zhang,  D. Zuev,  A. Aspuru-Guzik,  A. T. Bell,  N. A. Besley,  
 K. B. Bravaya,  B. R. Brooks,  D. Casanova,  Jeng-Da Chai,  S. Coriani,  
 C. J. Cramer,  A. E. DePrince, III,  R. A. DiStasio Jr.,  A. Dreuw,  
 B. D. Dunietz,  T. R. Furlani,  W. A. Goddard III,  S. Grimme,  
 S. Hammes-Schiffer,  T. Head-Gordon,  W. J. Hehre,  Chao-Ping Hsu,  
 T.-C. Jagau,  Yousung Jung,  A. Klamt,  Jing Kong,  D. S. Lambrecht,  
 WanZhen Liang,  N. J. Mayhall,  C. W. McCurdy,  J. B. Neaton,  
 C. Ochsenfeld,  J. A. Parkhill,  R. Peverati,  V. A. Rassolov,  Yihan Shao,  
 L. V. Slipchenko,  T. Stauch,  R. P. Steele,  J. E. Subotnik,  
 A. J. W. Thom,  A. Tkatchenko,  D. G. Truhlar,  T. Van Voorhis,  
 T. A. Wesolowski,  K. B. Whaley,  H. L. Woodcock III,  P. M. Zimmerman,  
 S. Faraji,  P. M. W. Gill,  M. Head-Gordon,  J. M. Herbert,  A. I. Krylov

 Additional authors for Version 5.4.1: 
 S. Kotaru,  Shaozhi Li,  Xiangyuan Li,  F. Matz,  A. Molle,  Haisheng Ren,  
 Yingli Su,  Hung-Yi Tsai,  C. Utku,  Fang Wang

 Contributors to earlier versions of Q-Chem not listed above: 
 R. D. Adamson,  B. Austin,  R. Baer,  J. Baker,  G. J. O. Beran,  
 K. Brandhorst,  S. T. Brown,  E. F. C. Byrd,  A. K. Chakraborty,  
 G. K. L. Chan,  Chun-Min Chang,  Yunqing Chen,  C.-L. Cheng,  
 Siu Hung Chien,  D. M. Chipman,  D. L. Crittenden,  H. Dachsel,  
 R. J. Doerksen,  A. D. Dutoi,  R. G. Edgar,  J. Fosso-Tande,  
 L. Fusti-Molnar,  D. Ghosh,  A. Ghysels,  A. Golubeva-Zadorozhnaya,  
 J. Gonthier,  M. S. Gordon,  S. R. Gwaltney,  G. Hawkins,  J. E. Herr,  
 A. Heyden,  S. Hirata,  E. G. Hohenstein,  G. Kedziora,  F. J. Keil,  
 C. Kelley,  Jihan Kim,  R. A. King,  R. Z. Khaliullin,  P. P. Korambath,  
 W. Kurlancheek,  A. Laurent,  A. M. Lee,  M. S. Lee,  S. V. Levchenko,  
 Ching Yeh Lin,  D. Liotard,  E. Livshits,  R. C. Lochan,  I. Lotan,  
 L. A. Martinez-Martinez,  P. E. Maslen,  N. Nair,  D. P. O'Neill,  
 D. Neuhauser,  E. Neuscamman,  C. M. Oana,  R. Olivares-Amaya,  R. Olson,  
 T. M. Perrine,  B. Peters,  P. A. Pieniazek,  A. Prociuk,  Y. M. Rhee,  
 J. Ritchie,  M. A. Rohrdanz,  E. Rosta,  N. J. Russ,  H. F. Schaefer III,  
 M. W. Schmidt,  N. E. Schultz,  S. Sharma,  N. Shenvi,  C. D. Sherrill,  
 A. C. Simmonett,  A. Sodt,  T. Stein,  D. Stuck,  K. S. Thanthiriwatte,  
 V. Vanovschi,  L. Vogt,  Tao Wang,  A. Warshel,  M. A. Watson,  
 C. F. Williams,  Q. Wu,  X. Xu,  Jun Yang,  W. Zhang,  Yan Zhao

 Please cite Q-Chem as follows:
 Y. Shao et al., Mol. Phys. 113, 184-215 (2015)
 DOI: 10.1080/00268976.2014.952696

 Q-Chem 5.4.1 for Intel X86 EM64T Linux

 Parts of Q-Chem use Armadillo 9.900.5 (Nocturnal Misbehaviour).
 http://arma.sourceforge.net/

 Q-Chem begins on Thu Feb 17 21:16:44 2022  

 Host: node01
0

     Scratch files written to /src/jdavis/qchem.scratch/qchem24437//
 Processing $rem in /src/tsommerfeld/qchem/config/preferences:
 Processing $rem in /home/jdavis/.qchemrc:

 Checking the input file for inconsistencies... 	...done.

--------------------------------------------------------------
User input:
--------------------------------------------------------------
$molecule
-1 1
C        -0.6645000000    0.0000000000   -0.2082049804
C         0.6645000000    0.0000000000   -0.2082049804
H        -1.1590800000    0.0000000000    0.7541440196
H         1.1590800000    0.0000000000    0.7541440196
H        -1.1590800000    0.0000000000   -1.1705529804
H         1.1590800000    0.0000000000   -1.1705529804
H         0.0000000000    0.0000000000    3.0139349415
$end

$rem
   METHOD adc(2)
   BASIS gen
   PURECART 11
   EE_STATES [0,10,0,0]
   scf_convergence 8
   ADC_DAVIDSON_MAXITER 120
   ADC_DAVIDSON_MAXSUBSPACE 200
   adc_nguess_singles 100
   THRESH 14
   S2THRESH 14
   adc_davidson_conv 5
   adc_davidson_thresh 14
   THREADS 10
   MEM_TOTAL 95000
   STATE_ANALYSIS TRUE
$end
$basis
C 1
S   9   1.00
      6.665000D+03           6.920000D-04
      1.000000D+03           5.329000D-03
      2.280000D+02           2.707700D-02
      6.471000D+01           1.017180D-01
      2.106000D+01           2.747400D-01
      7.495000D+00           4.485640D-01
      2.797000D+00           2.850740D-01
      5.215000D-01           1.520400D-02
      1.596000D-01          -3.191000D-03
S   9   1.00
      6.665000D+03          -1.460000D-04
      1.000000D+03          -1.154000D-03
      2.280000D+02          -5.725000D-03
      6.471000D+01          -2.331200D-02
      2.106000D+01          -6.395500D-02
      7.495000D+00          -1.499810D-01
      2.797000D+00          -1.272620D-01
      5.215000D-01           5.445290D-01
      1.596000D-01           5.804960D-01
S   1   1.00
      1.596000D-01           1.000000D+00
S   1   1.00
      0.0469000              1.0000000
P   4   1.00
      9.439000D+00           3.810900D-02
      2.002000D+00           2.094800D-01
      5.456000D-01           5.085570D-01
      1.517000D-01           4.688420D-01
P   1   1.00
      1.517000D-01           1.000000D+00
P   1   1.00
      0.0977622      1.0000000
P   1   1.00
      0.0488811      1.0000000
D   1   1.00
      5.500000D-01           1.0000000
****
C 2
S   9   1.00
      6.665000D+03           6.920000D-04
      1.000000D+03           5.329000D-03
      2.280000D+02           2.707700D-02
      6.471000D+01           1.017180D-01
      2.106000D+01           2.747400D-01
      7.495000D+00           4.485640D-01
      2.797000D+00           2.850740D-01
      5.215000D-01           1.520400D-02
      1.596000D-01          -3.191000D-03
S   9   1.00
      6.665000D+03          -1.460000D-04
      1.000000D+03          -1.154000D-03
      2.280000D+02          -5.725000D-03
      6.471000D+01          -2.331200D-02
      2.106000D+01          -6.395500D-02
      7.495000D+00          -1.499810D-01
      2.797000D+00          -1.272620D-01
      5.215000D-01           5.445290D-01
      1.596000D-01           5.804960D-01
S   1   1.00
      1.596000D-01           1.000000D+00
S   1   1.00
      0.0469000              1.0000000
P   4   1.00
      9.439000D+00           3.810900D-02
      2.002000D+00           2.094800D-01
      5.456000D-01           5.085570D-01
      1.517000D-01           4.688420D-01
P   1   1.00
      1.517000D-01           1.000000D+00
P   1   1.00
      0.0977622      1.0000000
P   1   1.00
      0.0488811      1.0000000
D   1   1.00
      5.500000D-01           1.0000000
****
H 3
cc-pVDZ
****
H 4
cc-pVDZ
****
H 5
cc-pVDZ
****
H 6
cc-pVDZ
****
H 7
aug-cc-pVDZ
****
$end
--------------------------------------------------------------
 ----------------------------------------------------------------
             Standard Nuclear Orientation (Angstroms)
    I     Atom           X                Y                Z
 ----------------------------------------------------------------
    1      C      -0.6645000000    -0.0000000000    -0.1895377601
    2      C       0.6645000000     0.0000000000    -0.1895377601
    3      H      -1.1590800000    -0.0000000000     0.7728112399
    4      H       1.1590800000     0.0000000000     0.7728112399
    5      H      -1.1590800000    -0.0000000000    -1.1518857601
    6      H       1.1590800000     0.0000000000    -1.1518857601
    7      H      -0.0000000000     0.0000000000     3.0326021618
 ----------------------------------------------------------------
 Molecular Point Group                 C2v   NOp =  4
 Largest Abelian Subgroup              C2v   NOp =  4
 Nuclear Repulsion Energy =          36.17984589 hartrees
 There are        9 alpha and        9 beta electrons
 Requested basis set is non-standard
 There are 33 shells and 67 basis functions
 Total memory of 95000 MB is distributed as follows: 
   MEM_STATIC is set to 192 MB
   QALLOC/CCMAN JOB total memory use is  94808 MB
 Warning: actual memory use might exceed 95000 MB

 Total QAlloc Memory Limit  95000 MB
 Mega-Array Size       188 MB
 MEM_STATIC part       192 MB

                       Distance Matrix (Angstroms)
             C (  1)   C (  2)   H (  3)   H (  4)   H (  5)   H (  6)
   C (  2)  1.329000
   H (  3)  1.082000  2.061931
   H (  4)  2.061931  1.082000  2.318160
   H (  5)  1.082000  2.061931  1.924697  3.013026
   H (  6)  2.061931  1.082000  3.013026  1.924697  2.318160
   H (  7)  3.289946  3.289946  2.539709  2.539709  4.342051  4.342051

 
 A cutoff of  1.0D-14 yielded    561 shell pairs
 There are      2337 function pairs (      2484 Cartesian)
 Smallest overlap matrix eigenvalue = 1.72E-04

 Scale SEOQF with 1.000000e-01/1.000000e-01/1.000000e-01

 Standard Electronic Orientation quadrupole field applied
 Nucleus-field energy     =    -0.0000000011 hartrees
 ================ Generating on-the-fly SAD Guess ================
Attempting to make child job directory: /src/jdavis/qchem.scratch/qchem24437//Frg1/
Attempting to make child job directory: /src/jdavis/qchem.scratch/qchem24437//Frg2/
Creating input file /src/jdavis/qchem.scratch/qchem24437/Frg1.input
using default PutDataFrgm: nothing
calling putenv with: QCSCRATCH=/src/jdavis/qchem.scratch/qchem24437/ 
Spawning Job For Fragment 0
Done Job For Fragment 0
calling putenv with: QCSCRATCH=/src/jdavis/qchem.scratch 
calling putenv with: QCTHREADS=1 
Creating input file /src/jdavis/qchem.scratch/qchem24437/Frg2.input
using default PutDataFrgm: nothing
calling putenv with: QCSCRATCH=/src/jdavis/qchem.scratch/qchem24437/ 
Spawning Job For Fragment 1
Done Job For Fragment 1
calling putenv with: QCSCRATCH=/src/jdavis/qchem.scratch 
calling putenv with: QCTHREADS=1 
 Time for running child jobs:  CPU 1.77 s  wall 53.19 s
 ============= Method Specific SAD Guess Constructed =============
 Guess from on-the-fly superposition of atomic densities
 Warning: Energy on first SCF cycle will be non-variational
 A restricted Hartree-Fock SCF calculation will be
 performed using Pulay DIIS extrapolation
 SCF converges when DIIS error is below 1.0E-08
 using 10 threads for integral computing
 -------------------------------------------------------
 OpenMP Integral computing Module                
 Release: version 1.0, May 2013, Q-Chem Inc. Pittsburgh 
 -------------------------------------------------------
 ---------------------------------------
  Cycle       Energy         DIIS Error
 ---------------------------------------
    1     -78.8102742651      7.36E-02
    2     -78.4591628768      6.89E-03
    3     -78.5051916473      1.67E-03
    4     -78.5077974631      5.42E-04
    5     -78.5080932678      1.15E-04
    6     -78.5081173143      2.60E-05
    7     -78.5081193180      7.18E-06
    8     -78.5081194999      9.54E-07
    9     -78.5081195035      2.20E-07
   10     -78.5081195038      3.95E-08
   11     -78.5081195038      8.42E-09 Convergence criterion met
 ---------------------------------------
 SCF time:  CPU 9.72 s  wall 0.98 s
 SCF   energy in the final basis set = -78.50811950
 Total energy in the final basis set = -78.50811950
================================================================================
|                                                                              |
|                                 A D C  M A N                                 |
|                                                                              |
 ------------------------------------------------------------------------------ 
|                                                                              |
| Components:                                                                  |
|                                                                              |
| - libvmm - 1.3-trunk                                                         |
|   Authors:                                                                   |
|   Evgeny Epifanovsky, Ilya Kaliman                                           |
|                                                                              |
| - libtensor - 2.5-trunk                                                      |
|   Authors:                                                                   |
|   Evgeny Epifanovsky, Michael Wormit, Dmitry Zuev, Sam Manzer,               |
|   Ilya Kaliman                                                               |
|                                                                              |
| - libwfa - 1.1-trunk                                                         |
|   Authors:                                                                   |
|   Felix Plasser, Stefanie Mewes (Baeppler), Benjamin Thomitzni,              |
|   Michael Wormit, Feng Chen, Anna I. Krylov, Pavel Pokhilko                  |
|                                                                              |
| - libadc - 1.1-trunk                                                         |
|   Authors:                                                                   |
|   Michael Wormit, Adrian L. Dempwolff, Philipp H. P. Harbach,                |
|   Caroline Krauter, Dirk Rehn, Matthias Schneider, Jan Wenzel                |
|                                                                              |
| - adcman - 2.6-trunk                                                         |
|   Authors:                                                                   |
|   Michael Wormit, Adrian L. Dempwolff, Philipp H. P. Harbach,                |
|   Caroline Krauter, Daniel Lefrancois, Jan-Michael Mewes, Dirk Rehn,         |
|   Matthias Schneider, Jan Wenzel, Andreas Dreuw                              |
|                                                                              |
| Authors of earlier versions of ADCMAN:                                       |
| Andreas Dreuw, Jan Hendrik Starcke, Dirk Rehn, Michael Wormit                |
|                                                                              |
================================================================================

 
 Alpha MOs, Restricted
 -- Occupied --                  
-11.072 -11.070  -0.877  -0.619  -0.493  -0.405  -0.348  -0.214
  1 A1    1 B1    2 A1    2 B1    3 A1    4 A1    3 B1    1 B2                 
 -0.018
  5 A1                                                                         
 -- Virtual --                   
  0.205   0.208   0.237   0.241   0.249   0.273   0.322   0.347
  6 A1    4 B1    1 A2    2 B2    7 A1    5 B1    8 A1    6 B1                 
  0.349   0.443   0.486   0.493   0.505   0.539   0.565   0.578
  2 A2    9 A1   10 A1    7 B1    8 B1   11 A1    3 B2   12 A1                 
  0.600   0.650   0.699   0.774   0.989   1.011   1.063   1.082
  9 B1    3 A2   10 B1   11 B1   13 A1   14 A1   15 A1   12 B1                 
  1.200   1.206   1.279   1.285   1.309   1.340   1.369   1.423
 16 A1   13 B1    4 B2   17 A1   14 B1   18 A1    5 B2    4 A2                 
  1.451   1.467   1.526   1.663   1.791   1.910   1.912   1.937
  5 A2    6 B2   15 B1   16 B1   19 A1   20 A1    7 B2   17 B1                 
  1.954   2.027   2.046   2.108   2.144   2.187   2.259   2.279
 18 B1   21 A1    6 A2    8 B2   19 B1    9 B2   22 A1   23 A1                 
  2.348   2.494   2.578   2.666   2.717   2.757   3.040   3.067
  7 A2   20 B1    8 A2   24 A1   21 B1   22 B1   25 A1   26 A1                 
  3.466   3.524
 23 B1   24 B1                                                                 
 
 Beta MOs, Restricted
 -- Occupied --                  
-11.072 -11.070  -0.877  -0.619  -0.493  -0.405  -0.348  -0.214
  1 A1    1 B1    2 A1    2 B1    3 A1    4 A1    3 B1    1 B2                 
 -0.018
  5 A1                                                                         
 -- Virtual --                   
  0.205   0.208   0.237   0.241   0.249   0.273   0.322   0.347
  6 A1    4 B1    1 A2    2 B2    7 A1    5 B1    8 A1    6 B1                 
  0.349   0.443   0.486   0.493   0.505   0.539   0.565   0.578
  2 A2    9 A1   10 A1    7 B1    8 B1   11 A1    3 B2   12 A1                 
  0.600   0.650   0.699   0.774   0.989   1.011   1.063   1.082
  9 B1    3 A2   10 B1   11 B1   13 A1   14 A1   15 A1   12 B1                 
  1.200   1.206   1.279   1.285   1.309   1.340   1.369   1.423
 16 A1   13 B1    4 B2   17 A1   14 B1   18 A1    5 B2    4 A2                 
  1.451   1.467   1.526   1.663   1.791   1.910   1.912   1.937
  5 A2    6 B2   15 B1   16 B1   19 A1   20 A1    7 B2   17 B1                 
  1.954   2.027   2.046   2.108   2.144   2.187   2.259   2.279
 18 B1   21 A1    6 A2    8 B2   19 B1    9 B2   22 A1   23 A1                 
  2.348   2.494   2.578   2.666   2.717   2.757   3.040   3.067
  7 A2   20 B1    8 A2   24 A1   21 B1   22 B1   25 A1   26 A1                 
  3.466   3.524
 23 B1   24 B1                                                                 

--------------------------------------------------------------------------------
                                   HF Summary                                   
--------------------------------------------------------------------------------
  Energy:                                                  -78.5081195038 a.u.
  Dip. moment [a.u.]:                  [  -0.000000,   -0.000000,   -4.719296]
  Total dipole [Debye]:                                              11.995257
  <r^2> [a.u.]:                        [  52.021774,   16.048203,   89.282261]
  Total <r^2> [a.u.]:                                               157.352238
--------------------------------------------------------------------------------

--------------------------------------------------------------------------------
                                 MP(2) Summary                                  
--------------------------------------------------------------------------------
  MP energy contribution:                                   -0.3055130294 a.u.
  Total energy:                                            -78.8136325332 a.u.
  Dip. moment [a.u.]:                  [  -0.000000,   -0.000000,   -4.623649]
  Total dipole [Debye]:                                              11.752146
  <r^2> [a.u.]:                        [  52.286804,   15.968999,   88.636738]
  Total <r^2> [a.u.]:                                               156.892541

  Density matrix analysis:
  ------------------------
  NOs
    Occupation of frontier NOs:
       0.0448   1.9361
    Number of electrons: 18.000000
    Number of unpaired electrons: n_u =  0.45552, n_u,nl =  0.04971
    NO participation ratio (PR_NO): 16.022828
  
  
  Mulliken Population Analysis
  Atom      Charge (e)              h+              e-           Del q
  --------------------------------------------------------------------
   1 C       -0.410846        0.087328       -0.111135       -0.023808
   2 C       -0.410846        0.087328       -0.111135       -0.023808
   3 H        0.197328        0.017607       -0.017265        0.000342
   4 H        0.197328        0.017607       -0.017265        0.000342
   5 H        0.061229        0.019778       -0.011250        0.008528
   6 H        0.061229        0.019778       -0.011250        0.008528
   7 H       -0.695421        0.045791       -0.015915        0.029876
  --------------------------------------------------------------------
  Sum:       -1.000000        0.295214       -0.295214        0.000000
  
  Multipole moment analysis of the density matrix
    Molecular charge:                      -1.000000
    Number of electrons:                   18.000000
      Center of electronic charge [Ang]: [  0.000000,   0.000000,   0.135929]
    Total nuclear charge:                  17.000000
      Center of nuclear charge [Ang]:    [ -0.000000,   0.000000,  -0.000000]
    Dipole moment [D]:                     11.752143
      Cartesian components [D]:          [ -0.000000,  -0.000000, -11.752143]
    RMS size of the density [Ang]:         1.556381
      Cartesian components [Ang]:        [  0.901905,   0.498429,   1.166386]
  
  Exciton analysis of the difference density matrix
    <r_h> [Ang]:                  [  0.000000,   0.000000,   0.265100]
    <r_e> [Ang]:                  [  0.000000,   0.000000,   0.093651]
    |<r_e - r_h>| [Ang]:            0.171449
    Hole size [Ang]:                1.848068
      Cartesian components [Ang]: [  0.957535,   0.759381,   1.386298]
    Electron size [Ang]:            1.743792
      Cartesian components [Ang]: [  1.080866,   0.708187,   1.170902]
--------------------------------------------------------------------------------
Less singles guess vectors found than requested: 85 (found), 100 (requested).
Adjusting number of doubles guess vectors to 15.
  Starting Davidson for singlet states of irrep A2 ... 
--------------------------------------------------------------------------------
   It NVec Conv  Avg. Norm  Max. Norm  Conv. states           Remark
--------------------------------------------------------------------------------
       100    0  9.320e-02  4.611e-01  0.1420 n n n n n n n n Guess.
    1  110    0  1.020e-02  8.537e-02  0.0938 n n n n n n n n 
    2  120    0  5.765e-03  5.163e-02  0.0937 n n n n n n n n 
    3  130    1  2.145e-03  2.035e-02  0.0937 y n n n n n n n 
    4  140    7  9.980e-05  9.442e-04  0.0937 y y y y y y y n 
    5  150    8  3.850e-06  3.576e-05  0.0937 y y y y y y y y 
    6  160   10  7.280e-08  6.726e-07  0.0937 y y y y y y y y Converged.
--------------------------------------------------------------------------------
  Davidson Summary: 
 ------------------------------------------------------------
  State  0: excitation energy =   0.0937 a.u.   (converged)
  State  1: excitation energy =   0.1824 a.u.   (converged)
  State  2: excitation energy =   0.2604 a.u.   (converged)
  State  3: excitation energy =   0.3315 a.u.   (converged)
  State  4: excitation energy =   0.3525 a.u.   (converged)
  State  5: excitation energy =   0.3855 a.u.   (converged)
  State  6: excitation energy =   0.3983 a.u.   (converged)
  State  7: excitation energy =   0.4456 a.u.   (converged)
  State  8: excitation energy =   0.4648 a.u.   (converged)
  State  9: excitation energy =   0.4724 a.u.   (converged)
 ------------------------------------------------------------


--------------------------------------------------------------------------------
                   State-averaged natural transition orbitals
--------------------------------------------------------------------------------
--------------------------------------------------------------------------------

--------------------------------------------------------------------------------
                             Excited State Summary
--------------------------------------------------------------------------------
--------------------------------------------------------------------------------

  Excited state 1 (singlet, A2)                                    [converged]
  ----------------------------------------------------------------------------
  Term symbol:  1 (1) A2                                    R^2 =  2.66464e-11

  Total energy:                                            -78.7199628104 a.u.
  Excitation energy:                                               2.548883 eV

  Osc. strength:                                                      0.000000
  Trans. dip. moment [a.u.]:           [   0.000000,   -0.000000,   -0.000000]
  <i|r^2|0> [a.u.]:                    [  -0.000000,   -0.000000,   -0.000000]

  Dip. moment [a.u.]:                  [   0.000000,   -0.000000,    0.594848]
  Total dipole [Debye]:                                               1.511953
  <r^2> [a.u.]:                        [  61.130720,   23.781138,   62.472271]
  Total <r^2> [a.u.]:                                               147.384128

  V1^2 = 0.9326, V2^2 = 0.0674

  Important amplitudes:
      occ i      occ j       vir a       vir b          v   
    ---------------------------------------------------------
     5 (A1) A               1 (A2) A                  0.6289
     5 (A1) A               2 (A2) A                 -0.2626
    ---------------------------------------------------------

  Density matrix analysis:
  ------------------------
  NOs
    Occupation of frontier NOs:
       0.9928   0.9930
    Number of electrons: 18.000000
    Number of unpaired electrons: n_u =  2.41254, n_u,nl =  2.04319
    NO participation ratio (PR_NO):  2.935277
  
  
  Mulliken Population Analysis
  Atom      Charge (e)              h+              e-           Del q
  --------------------------------------------------------------------
   1 C       -0.700331        0.258561       -0.548046       -0.289485
   2 C       -0.700331        0.258561       -0.548046       -0.289485
   3 H        0.127405        0.013037       -0.082960       -0.069923
   4 H        0.127405        0.013037       -0.082960       -0.069923
   5 H        0.059962        0.009802       -0.011069       -0.001267
   6 H        0.059962        0.009802       -0.011069       -0.001267
   7 H        0.025928        0.747315       -0.025966        0.721349
  --------------------------------------------------------------------
  Sum:       -1.000000        1.310116       -1.310116       -0.000000
  
  Multipole moment analysis of the density matrix
    Molecular charge:                      -1.000000
    Number of electrons:                   18.000000
      Center of electronic charge [Ang]: [ -0.000000,   0.000000,  -0.017488]
    Total nuclear charge:                  17.000000
      Center of nuclear charge [Ang]:    [ -0.000000,   0.000000,  -0.000000]
    Dipole moment [D]:                     1.511952
      Cartesian components [D]:          [  0.000000,  -0.000000,   1.511952]
    RMS size of the density [Ang]:         1.514123
      Cartesian components [Ang]:        [  0.975202,   0.608249,   0.985690]
  
  Exciton analysis of the difference density matrix
    <r_h> [Ang]:                  [  0.000000,   0.000000,   2.117690]
    <r_e> [Ang]:                  [ -0.000000,   0.000000,   0.009855]
    |<r_e - r_h>| [Ang]:            2.107835
    Hole size [Ang]:                2.004441
      Cartesian components [Ang]: [  0.937595,   0.848513,   1.555225]
    Electron size [Ang]:            2.543607
      Cartesian components [Ang]: [  1.664155,   1.545887,   1.144884]

  Transition density matrix analysis:
  -----------------------------------
  
  CT numbers (Mulliken)
    omega =     0.9129
    <Phe> =     0.0003
  
  Exciton analysis of the transition density matrix
    Trans. dipole moment [D]:             0.000000
      Cartesian components [D]:         [  0.000000,  -0.000000,  -0.000000]
    <r_h> [Ang]:                        [  0.000000,   0.000000,   2.841397]
    <r_e> [Ang]:                        [ -0.000000,   0.000000,  -0.188435]
    |<r_e - r_h>| [Ang]:                  3.029832
    Hole size [Ang]:                      1.403211
      Cartesian components [Ang]:       [  0.758563,   0.739405,   0.920251]
    Electron size [Ang]:                  2.624137
      Cartesian components [Ang]:       [  1.765648,   1.677914,   0.976312]
    RMS electron-hole separation [Ang]:   4.244378
      Cartesian components [Ang]:       [  1.917082,   1.833007,   3.313552]
    Covariance(r_h, r_e) [Ang^2]:         0.010116
    Correlation coefficient:              0.002747
    Center-of-mass size [Ang]:            1.489574
      Cartesian components [Ang]:       [  0.963154,   0.917104,   0.670885]

  Decomposition into state-averaged NTOs
    H- 1 -> L+ 0:  0.6389 ( 81.6%)
    H- 1 -> L+ 1:  0.2157 (  9.3%)
                   omega =  91.3%
  ----------------------------------------------------------------------------


  Excited state 2 (singlet, A2)                                    [converged]
  ----------------------------------------------------------------------------
  Term symbol:  2 (1) A2                                    R^2 =  5.63571e-11

  Total energy:                                            -78.6311963418 a.u.
  Excitation energy:                                               4.964341 eV

  Osc. strength:                                                      0.000000
  Trans. dip. moment [a.u.]:           [   0.000000,    0.000000,   -0.000000]
  <i|r^2|0> [a.u.]:                    [   0.000000,    0.000000,    0.000000]

  Dip. moment [a.u.]:                  [   0.000000,    0.000000,    0.603665]
  Total dipole [Debye]:                                               1.534365
  <r^2> [a.u.]:                        [  66.591543,   29.489819,   64.173530]
  Total <r^2> [a.u.]:                                               160.254893

  V1^2 = 0.9309, V2^2 = 0.0691

  Important amplitudes:
      occ i      occ j       vir a       vir b          v   
    ---------------------------------------------------------
     5 (A1) A               2 (A2) A                 -0.6178
     5 (A1) A               1 (A2) A                 -0.2753
    ---------------------------------------------------------

  Density matrix analysis:
  ------------------------
  NOs
    Occupation of frontier NOs:
       0.9873   0.9925
    Number of electrons: 18.000000
    Number of unpaired electrons: n_u =  2.42998, n_u,nl =  2.04931
    NO participation ratio (PR_NO):  2.993329
  
  
  Mulliken Population Analysis
  Atom      Charge (e)              h+              e-           Del q
  --------------------------------------------------------------------
   1 C       -0.690901        0.245977       -0.526032       -0.280055
   2 C       -0.690901        0.245977       -0.526032       -0.280055
   3 H        0.121349        0.009044       -0.085023       -0.075978
   4 H        0.121349        0.009044       -0.085023       -0.075978
   5 H        0.056088        0.007826       -0.012967       -0.005140
   6 H        0.056088        0.007826       -0.012967       -0.005140
   7 H        0.026927        0.749036       -0.026689        0.722348
  --------------------------------------------------------------------
  Sum:       -1.000000        1.274731       -1.274731       -0.000000
  
  Multipole moment analysis of the density matrix
    Molecular charge:                      -1.000000
    Number of electrons:                   18.000000
      Center of electronic charge [Ang]: [ -0.000000,  -0.000000,  -0.017747]
    Total nuclear charge:                  17.000000
      Center of nuclear charge [Ang]:    [ -0.000000,   0.000000,  -0.000000]
    Dipole moment [D]:                     1.534364
      Cartesian components [D]:          [  0.000000,   0.000000,   1.534364]
    RMS size of the density [Ang]:         1.578858
      Cartesian components [Ang]:        [  1.017828,   0.677331,   0.999020]
  
  Exciton analysis of the difference density matrix
    <r_h> [Ang]:                  [  0.000000,   0.000000,   2.190886]
    <r_e> [Ang]:                  [ -0.000000,  -0.000000,   0.020879]
    |<r_e - r_h>| [Ang]:            2.170007
    Hole size [Ang]:                1.966129
      Cartesian components [Ang]: [  0.931000,   0.836023,   1.516564]
    Electron size [Ang]:            3.066568
      Cartesian components [Ang]: [  2.002293,   1.915500,   1.313592]

  Transition density matrix analysis:
  -----------------------------------
  
  CT numbers (Mulliken)
    omega =     0.9144
    <Phe> =     0.0001
  
  Exciton analysis of the transition density matrix
    Trans. dipole moment [D]:             0.000000
      Cartesian components [D]:         [  0.000000,   0.000000,  -0.000000]
    <r_h> [Ang]:                        [  0.000000,   0.000000,   2.843990]
    <r_e> [Ang]:                        [ -0.000000,  -0.000000,  -0.188822]
    |<r_e - r_h>| [Ang]:                  3.032812
    Hole size [Ang]:                      1.400848
      Cartesian components [Ang]:       [  0.758513,   0.739787,   0.916378]
    Electron size [Ang]:                  3.279847
      Cartesian components [Ang]:       [  2.174287,   2.124946,   1.230643]
    RMS electron-hole separation [Ang]:   4.680346
      Cartesian components [Ang]:       [  2.301040,   2.249247,   3.398786]
    Covariance(r_h, r_e) [Ang^2]:         0.006041
    Correlation coefficient:              0.001315
    Center-of-mass size [Ang]:            1.784086
      Cartesian components [Ang]:       [  1.152274,   1.125416,   0.767246]

  Decomposition into state-averaged NTOs
    H- 1 -> L+ 1: -0.6455 ( 83.3%)
    H- 1 -> L+ 0:  0.2006 (  8.0%)
                   omega =  91.4%
  ----------------------------------------------------------------------------


  Excited state 3 (singlet, A2)                                    [converged]
  ----------------------------------------------------------------------------
  Term symbol:  3 (1) A2                                    R^2 =  1.15734e-10

  Total energy:                                            -78.5532090920 a.u.
  Excitation energy:                                               7.086482 eV

  Osc. strength:                                                      0.000000
  Trans. dip. moment [a.u.]:           [  -0.000000,   -0.000000,   -0.000000]
  <i|r^2|0> [a.u.]:                    [  -0.000000,    0.000000,    0.000000]

  Dip. moment [a.u.]:                  [   0.000000,   -0.000000,   -2.970604]
  Total dipole [Debye]:                                               7.550524
  <r^2> [a.u.]:                        [  76.399651,   20.041485,   95.612524]
  Total <r^2> [a.u.]:                                               192.053660

  V1^2 = 0.9447, V2^2 = 0.0553

  Important amplitudes:
      occ i      occ j       vir a       vir b          v   
    ---------------------------------------------------------
     1 (B2) A               4 (B1) A                 -0.6773
     1 (B2) A               8 (B1) A                 -0.0871
    ---------------------------------------------------------

  Density matrix analysis:
  ------------------------
  NOs
    Occupation of frontier NOs:
       0.9819   0.9918
    Number of electrons: 18.000000
    Number of unpaired electrons: n_u =  2.33900, n_u,nl =  2.02804
    NO participation ratio (PR_NO):  2.798163
  
  
  Mulliken Population Analysis
  Atom      Charge (e)              h+              e-           Del q
  --------------------------------------------------------------------
   1 C       -0.544072        0.539743       -0.672970       -0.133226
   2 C       -0.544072        0.539743       -0.672970       -0.133226
   3 H        0.247278        0.064023       -0.014073        0.049950
   4 H        0.247278        0.064023       -0.014073        0.049950
   5 H        0.134779        0.113450       -0.039900        0.073550
   6 H        0.134779        0.113450       -0.039900        0.073550
   7 H       -0.675969        0.034498       -0.015046        0.019452
  --------------------------------------------------------------------
  Sum:       -1.000000        1.468931       -1.468931       -0.000000
  
  Multipole moment analysis of the density matrix
    Molecular charge:                      -1.000000
    Number of electrons:                   18.000000
      Center of electronic charge [Ang]: [ -0.000000,   0.000000,   0.087332]
    Total nuclear charge:                  17.000000
      Center of nuclear charge [Ang]:    [ -0.000000,   0.000000,  -0.000000]
    Dipole moment [D]:                     7.550521
      Cartesian components [D]:          [  0.000000,  -0.000000,  -7.550521]
    RMS size of the density [Ang]:         1.726319
      Cartesian components [Ang]:        [  1.090211,   0.558380,   1.216483]
  
  Exciton analysis of the difference density matrix
    <r_h> [Ang]:                  [  0.000000,  -0.000000,  -0.154295]
    <r_e> [Ang]:                  [ -0.000000,   0.000000,  -0.749799]
    |<r_e - r_h>| [Ang]:            0.595504
    Hole size [Ang]:                1.701101
      Cartesian components [Ang]: [  1.057551,   0.883023,   0.997797]
    Electron size [Ang]:            3.009695
      Cartesian components [Ang]: [  2.390638,   1.247432,   1.336799]

  Transition density matrix analysis:
  -----------------------------------
  
  CT numbers (Mulliken)
    omega =     0.9137
    <Phe> =    -0.0035
  
  Exciton analysis of the transition density matrix
    Trans. dipole moment [D]:             0.000000
      Cartesian components [D]:         [ -0.000000,  -0.000000,  -0.000000]
    <r_h> [Ang]:                        [  0.000000,  -0.000000,  -0.196802]
    <r_e> [Ang]:                        [ -0.000000,   0.000000,  -1.085647]
    |<r_e - r_h>| [Ang]:                  0.888845
    Hole size [Ang]:                      1.275899
      Cartesian components [Ang]:       [  0.763990,   0.879956,   0.519532]
    Electron size [Ang]:                  3.447822
      Cartesian components [Ang]:       [  2.815903,   1.454795,   1.357106]
    RMS electron-hole separation [Ang]:   3.772563
      Cartesian components [Ang]:       [  2.909928,   1.692554,   1.702883]
    Covariance(r_h, r_e) [Ang^2]:         0.036603
    Correlation coefficient:              0.008321
    Center-of-mass size [Ang]:            1.843136
      Cartesian components [Ang]:       [  1.462729,   0.853927,   0.726900]

  Decomposition into state-averaged NTOs
    H- 0 -> L+ 4: -0.5929 ( 70.3%)
    H- 0 -> L+ 5:  0.2952 ( 17.4%)
    H- 0 -> L+ 3:  0.1326 (  3.5%)
                   omega =  91.4%
  ----------------------------------------------------------------------------


  Excited state 4 (singlet, A2)                                    [converged]
  ----------------------------------------------------------------------------
  Term symbol:  4 (1) A2                                    R^2 =  1.75478e-10

  Total energy:                                            -78.4821097642 a.u.
  Excitation energy:                                               9.021193 eV

  Osc. strength:                                                      0.000000
  Trans. dip. moment [a.u.]:           [   0.000000,    0.000000,   -0.000000]
  <i|r^2|0> [a.u.]:                    [  -0.000000,   -0.000000,    0.000000]

  Dip. moment [a.u.]:                  [  -0.000000,   -0.000000,   -4.825075]
  Total dipole [Debye]:                                              12.264119
  <r^2> [a.u.]:                        [  72.659958,   18.834566,  101.885317]
  Total <r^2> [a.u.]:                                               193.379841

  V1^2 = 0.9449, V2^2 = 0.0551

  Important amplitudes:
      occ i      occ j       vir a       vir b          v   
    ---------------------------------------------------------
     1 (B2) A               5 (B1) A                 -0.6793
     1 (B2) A               9 (B1) A                 -0.0857
    ---------------------------------------------------------

  Density matrix analysis:
  ------------------------
  NOs
    Occupation of frontier NOs:
       0.9834   0.9938
    Number of electrons: 18.000000
    Number of unpaired electrons: n_u =  2.33802, n_u,nl =  2.02755
    NO participation ratio (PR_NO):  2.785990
  
  
  Mulliken Population Analysis
  Atom      Charge (e)              h+              e-           Del q
  --------------------------------------------------------------------
   1 C       -0.588115        0.528739       -0.706008       -0.177269
   2 C       -0.588115        0.528739       -0.706008       -0.177269
   3 H        0.275034        0.084224       -0.006517        0.077707
   4 H        0.275034        0.084224       -0.006517        0.077707
   5 H        0.140880        0.101893       -0.022242        0.079651
   6 H        0.140880        0.101893       -0.022242        0.079651
   7 H       -0.655599        0.047189       -0.007366        0.039822
  --------------------------------------------------------------------
  Sum:       -1.000000        1.476902       -1.476902       -0.000000
  
  Multipole moment analysis of the density matrix
    Molecular charge:                      -1.000000
    Number of electrons:                   18.000000
      Center of electronic charge [Ang]: [  0.000000,   0.000000,   0.141851]
    Total nuclear charge:                  17.000000
      Center of nuclear charge [Ang]:    [ -0.000000,   0.000000,  -0.000000]
    Dipole moment [D]:                     12.264115
      Cartesian components [D]:          [ -0.000000,  -0.000000, -12.264115]
    RMS size of the density [Ang]:         1.728674
      Cartesian components [Ang]:        [  1.063194,   0.541306,   1.250969]
  
  Exciton analysis of the difference density matrix
    <r_h> [Ang]:                  [  0.000000,  -0.000000,  -0.101375]
    <r_e> [Ang]:                  [  0.000000,   0.000000,  -0.029204]
    |<r_e - r_h>| [Ang]:            0.072171
    Hole size [Ang]:                1.703005
      Cartesian components [Ang]: [  1.048676,   0.875272,   1.017055]
    Electron size [Ang]:            3.134938
      Cartesian components [Ang]: [  2.227685,   1.144303,   1.885690]

  Transition density matrix analysis:
  -----------------------------------
  
  CT numbers (Mulliken)
    omega =     0.9137
    <Phe> =    -0.0009
  
  Exciton analysis of the transition density matrix
    Trans. dipole moment [D]:             0.000000
      Cartesian components [D]:         [  0.000000,   0.000000,  -0.000000]
    <r_h> [Ang]:                        [  0.000000,  -0.000000,  -0.196080]
    <r_e> [Ang]:                        [  0.000000,   0.000000,  -0.026539]
    |<r_e - r_h>| [Ang]:                  0.169541
    Hole size [Ang]:                      1.275775
      Cartesian components [Ang]:       [  0.763887,   0.880077,   0.519175]
    Electron size [Ang]:                  3.666864
      Cartesian components [Ang]:       [  2.617184,   1.324074,   2.200698]
    RMS electron-hole separation [Ang]:   3.881262
      Cartesian components [Ang]:       [  2.719966,   1.589628,   2.266951]
    Covariance(r_h, r_e) [Ang^2]:         0.019021
    Correlation coefficient:              0.004066
    Center-of-mass size [Ang]:            1.943678
      Cartesian components [Ang]:       [  1.366394,   0.795063,   1.130808]

  Decomposition into state-averaged NTOs
    H- 0 -> L+ 5:  0.5123 ( 52.5%)
    H- 0 -> L+ 3: -0.4084 ( 33.4%)
    H- 0 -> L+ 4:  0.1648 (  5.4%)
                   omega =  91.4%
  ----------------------------------------------------------------------------


  Excited state 5 (singlet, A2)                                    [converged]
  ----------------------------------------------------------------------------
  Term symbol:  5 (1) A2                                    R^2 =  7.78730e-10

  Total energy:                                            -78.4611355873 a.u.
  Excitation energy:                                               9.591930 eV

  Osc. strength:                                                      0.000000
  Trans. dip. moment [a.u.]:           [  -0.000000,   -0.000000,    0.000000]
  <i|r^2|0> [a.u.]:                    [  -0.000000,    0.000000,    0.000000]

  Dip. moment [a.u.]:                  [   0.000000,   -0.000000,   -4.566260]
  Total dipole [Debye]:                                              11.606277
  <r^2> [a.u.]:                        [  53.123194,   19.334559,   88.281849]
  Total <r^2> [a.u.]:                                               160.739602

  V1^2 = 0.9545, V2^2 = 0.0455

  Important amplitudes:
      occ i      occ j       vir a       vir b          v   
    ---------------------------------------------------------
     4 (A1) A               1 (A2) A                 -0.4963
     4 (A1) A               2 (A2) A                  0.4591
    ---------------------------------------------------------

  Density matrix analysis:
  ------------------------
  NOs
    Occupation of frontier NOs:
       0.9905   1.0046
    Number of electrons: 18.000000
    Number of unpaired electrons: n_u =  2.39470, n_u,nl =  2.03789
    NO participation ratio (PR_NO):  2.893637
  
  
  Mulliken Population Analysis
  Atom      Charge (e)              h+              e-           Del q
  --------------------------------------------------------------------
   1 C       -0.541066        0.439842       -0.570062       -0.130220
   2 C       -0.541066        0.439842       -0.570062       -0.130220
   3 H        0.259412        0.070695       -0.008610        0.062085
   4 H        0.259412        0.070695       -0.008610        0.062085
   5 H        0.127767        0.072812       -0.006274        0.066539
   6 H        0.127767        0.072812       -0.006274        0.066539
   7 H       -0.692227        0.007082       -0.003888        0.003194
  --------------------------------------------------------------------
  Sum:       -1.000000        1.173780       -1.173780       -0.000000
  
  Multipole moment analysis of the density matrix
    Molecular charge:                      -1.000000
    Number of electrons:                   18.000000
      Center of electronic charge [Ang]: [ -0.000000,   0.000000,   0.134242]
    Total nuclear charge:                  17.000000
      Center of nuclear charge [Ang]:    [ -0.000000,   0.000000,  -0.000000]
    Dipole moment [D]:                     11.606274
      Cartesian components [D]:          [  0.000000,  -0.000000, -11.606274]
    RMS size of the density [Ang]:         1.575636
      Cartesian components [Ang]:        [  0.909090,   0.548444,   1.164213]
  
  Exciton analysis of the difference density matrix
    <r_h> [Ang]:                  [  0.000000,   0.000000,  -0.157160]
    <r_e> [Ang]:                  [ -0.000000,   0.000000,  -0.183033]
    |<r_e - r_h>| [Ang]:            0.025873
    Hole size [Ang]:                1.452339
      Cartesian components [Ang]: [  1.117350,   0.551685,   0.745963]
    Electron size [Ang]:            1.737319
      Cartesian components [Ang]: [  1.203332,   1.052273,   0.680436]

  Transition density matrix analysis:
  -----------------------------------
  
  CT numbers (Mulliken)
    omega =     0.9222
    <Phe> =    -0.0151
  
  Exciton analysis of the transition density matrix
    Trans. dipole moment [D]:             0.000000
      Cartesian components [D]:         [ -0.000000,  -0.000000,   0.000000]
    <r_h> [Ang]:                        [  0.000000,  -0.000000,  -0.159538]
    <r_e> [Ang]:                        [ -0.000000,   0.000000,  -0.196285]
    |<r_e - r_h>| [Ang]:                  0.036747
    Hole size [Ang]:                      1.295541
      Cartesian components [Ang]:       [  1.072617,   0.411067,   0.599119]
    Electron size [Ang]:                  1.803150
      Cartesian components [Ang]:       [  1.257998,   1.110485,   0.660009]
    RMS electron-hole separation [Ang]:   2.205158
      Cartesian components [Ang]:       [  1.631043,   1.185848,   0.892293]
    Covariance(r_h, r_e) [Ang^2]:         0.034201
    Correlation coefficient:              0.014641
    Center-of-mass size [Ang]:            1.117830
      Cartesian components [Ang]:       [  0.837531,   0.591201,   0.445610]

  Decomposition into state-averaged NTOs
    H- 2 -> L+ 0: -0.6756 ( 91.3%)
                   omega =  92.2%
  ----------------------------------------------------------------------------


  Excited state 6 (singlet, A2)                                    [converged]
  ----------------------------------------------------------------------------
  Term symbol:  6 (1) A2                                    R^2 =  1.77866e-09

  Total energy:                                            -78.4281282398 a.u.
  Excitation energy:                                              10.490105 eV

  Osc. strength:                                                      0.000000
  Trans. dip. moment [a.u.]:           [  -0.000000,    0.000000,    0.000000]
  <i|r^2|0> [a.u.]:                    [   0.000000,   -0.000000,    0.000000]

  Dip. moment [a.u.]:                  [  -0.000000,   -0.000000,   -4.486409]
  Total dipole [Debye]:                                              11.403317
  <r^2> [a.u.]:                        [  55.374995,   38.090783,   91.421594]
  Total <r^2> [a.u.]:                                               184.887372

  V1^2 = 0.9374, V2^2 = 0.0626

  Important amplitudes:
      occ i      occ j       vir a       vir b          v   
    ---------------------------------------------------------
     3 (B1) A               2 (B2) A                 -0.6762
     3 (B1) A               3 (B2) A                 -0.0978
    ---------------------------------------------------------

  Density matrix analysis:
  ------------------------
  NOs
    Occupation of frontier NOs:
       0.9925   1.0207
    Number of electrons: 18.000000
    Number of unpaired electrons: n_u =  2.47858, n_u,nl =  2.07562
    NO participation ratio (PR_NO):  3.127351
  
  
  Mulliken Population Analysis
  Atom      Charge (e)              h+              e-           Del q
  --------------------------------------------------------------------
   1 C       -0.706439        0.323589       -0.619182       -0.295593
   2 C       -0.706439        0.323589       -0.619182       -0.295593
   3 H        0.325920        0.148100       -0.019509        0.128592
   4 H        0.325920        0.148100       -0.019509        0.128592
   5 H        0.217539        0.166428       -0.010118        0.156310
   6 H        0.217539        0.166428       -0.010118        0.156310
   7 H       -0.674039        0.034165       -0.012783        0.021382
  --------------------------------------------------------------------
  Sum:       -1.000000        1.310401       -1.310401       -0.000000
  
  Multipole moment analysis of the density matrix
    Molecular charge:                      -1.000000
    Number of electrons:                   18.000000
      Center of electronic charge [Ang]: [  0.000000,   0.000000,   0.131895]
    Total nuclear charge:                  17.000000
      Center of nuclear charge [Ang]:    [ -0.000000,   0.000000,  -0.000000]
    Dipole moment [D]:                     11.403313
      Cartesian components [D]:          [ -0.000000,  -0.000000, -11.403313]
    RMS size of the density [Ang]:         1.690835
      Cartesian components [Ang]:        [  0.928158,   0.769795,   1.185269]
  
  Exciton analysis of the difference density matrix
    <r_h> [Ang]:                  [  0.000000,  -0.000000,  -0.080553]
    <r_e> [Ang]:                  [  0.000000,   0.000000,  -0.135974]
    |<r_e - r_h>| [Ang]:            0.055421
    Hole size [Ang]:                1.781940
      Cartesian components [Ang]: [  1.191426,   0.632606,   1.164313]
    Electron size [Ang]:            3.024189
      Cartesian components [Ang]: [  1.442024,   2.264409,   1.392386]

  Transition density matrix analysis:
  -----------------------------------
  
  CT numbers (Mulliken)
    omega =     0.9210
    <Phe> =    -0.0007
  
  Exciton analysis of the transition density matrix
    Trans. dipole moment [D]:             0.000000
      Cartesian components [D]:         [ -0.000000,   0.000000,   0.000000]
    <r_h> [Ang]:                        [  0.000000,  -0.000000,  -0.142348]
    <r_e> [Ang]:                        [  0.000000,   0.000000,  -0.189514]
    |<r_e - r_h>| [Ang]:                  0.047167
    Hole size [Ang]:                      1.520191
      Cartesian components [Ang]:       [  1.124307,   0.417959,   0.933931]
    Electron size [Ang]:                  3.339209
      Cartesian components [Ang]:       [  1.540645,   2.565588,   1.481380]
    RMS electron-hole separation [Ang]:   3.630532
      Cartesian components [Ang]:       [  1.832850,   2.598691,   1.751635]
    Covariance(r_h, r_e) [Ang^2]:         0.141381
    Correlation coefficient:              0.027851
    Center-of-mass size [Ang]:            1.853649
      Cartesian components [Ang]:       [  0.989440,   1.300064,   0.875703]

  Decomposition into state-averaged NTOs
    H- 3 -> L+ 2: -0.6775 ( 91.8%)
                   omega =  92.1%
  ----------------------------------------------------------------------------


  Excited state 7 (singlet, A2)                                    [converged]
  ----------------------------------------------------------------------------
  Term symbol:  7 (1) A2                                    R^2 =  2.90349e-09

  Total energy:                                            -78.4153168120 a.u.
  Excitation energy:                                              10.838722 eV

  Osc. strength:                                                      0.000000
  Trans. dip. moment [a.u.]:           [  -0.000000,    0.000000,   -0.000000]
  <i|r^2|0> [a.u.]:                    [   0.000000,    0.000000,    0.000000]

  Dip. moment [a.u.]:                  [  -0.000000,   -0.000000,   -5.568984]
  Total dipole [Debye]:                                              14.154949
  <r^2> [a.u.]:                        [  69.424848,   23.626516,   95.705522]
  Total <r^2> [a.u.]:                                               188.756886

  V1^2 = 0.9458, V2^2 = 0.0542

  Important amplitudes:
      occ i      occ j       vir a       vir b          v   
    ---------------------------------------------------------
     1 (B2) A               6 (B1) A                  0.6769
     1 (B2) A               7 (B1) A                 -0.0853
    ---------------------------------------------------------

  Density matrix analysis:
  ------------------------
  NOs
    Occupation of frontier NOs:
       0.9826   0.9933
    Number of electrons: 18.000000
    Number of unpaired electrons: n_u =  2.33592, n_u,nl =  2.02719
    NO participation ratio (PR_NO):  2.784778
  
  
  Mulliken Population Analysis
  Atom      Charge (e)              h+              e-           Del q
  --------------------------------------------------------------------
   1 C       -0.588778        0.538675       -0.716607       -0.177932
   2 C       -0.588778        0.538675       -0.716607       -0.177932
   3 H        0.253623        0.081039       -0.024744        0.056296
   4 H        0.253623        0.081039       -0.024744        0.056296
   5 H        0.160919        0.094514        0.005176        0.099690
   6 H        0.160919        0.094514        0.005176        0.099690
   7 H       -0.651529        0.049522       -0.005629        0.043893
  --------------------------------------------------------------------
  Sum:       -1.000000        1.477979       -1.477979       -0.000000
  
  Multipole moment analysis of the density matrix
    Molecular charge:                      -1.000000
    Number of electrons:                   18.000000
      Center of electronic charge [Ang]: [  0.000000,   0.000000,   0.163721]
    Total nuclear charge:                  17.000000
      Center of nuclear charge [Ang]:    [ -0.000000,   0.000000,  -0.000000]
    Dipole moment [D]:                     14.154945
      Cartesian components [D]:          [ -0.000000,  -0.000000, -14.154945]
    RMS size of the density [Ang]:         1.705788
      Cartesian components [Ang]:        [  1.039256,   0.606268,   1.209173]
  
  Exciton analysis of the difference density matrix
    <r_h> [Ang]:                  [ -0.000000,   0.000000,  -0.095523]
    <r_e> [Ang]:                  [  0.000000,   0.000000,   0.242946]
    |<r_e - r_h>| [Ang]:            0.338469
    Hole size [Ang]:                1.699958
      Cartesian components [Ang]: [  1.048145,   0.876911,   1.011077]
    Electron size [Ang]:            2.979464
      Cartesian components [Ang]: [  2.084636,   1.489907,   1.520421]

  Transition density matrix analysis:
  -----------------------------------
  
  CT numbers (Mulliken)
    omega =     0.9149
    <Phe> =    -0.0014
  
  Exciton analysis of the transition density matrix
    Trans. dipole moment [D]:             0.000000
      Cartesian components [D]:         [ -0.000000,   0.000000,  -0.000000]
    <r_h> [Ang]:                        [  0.000000,  -0.000000,  -0.196363]
    <r_e> [Ang]:                        [  0.000000,   0.000000,   0.384752]
    |<r_e - r_h>| [Ang]:                  0.581116
    Hole size [Ang]:                      1.275883
      Cartesian components [Ang]:       [  0.763844,   0.880247,   0.519215]
    Electron size [Ang]:                  3.463346
      Cartesian components [Ang]:       [  2.438044,   1.760457,   1.717993]
    RMS electron-hole separation [Ang]:   3.729199
      Cartesian components [Ang]:       [  2.550149,   1.961244,   1.886050]
    Covariance(r_h, r_e) [Ang^2]:         0.026709
    Correlation coefficient:              0.006044
    Center-of-mass size [Ang]:            1.849058
      Cartesian components [Ang]:       [  1.279822,   0.987624,   0.897591]

  Decomposition into state-averaged NTOs
    H- 0 -> L+ 3:  0.5224 ( 54.6%)
    H- 0 -> L+ 5:  0.3252 ( 21.2%)
    H- 0 -> L+ 4:  0.2791 ( 15.6%)
                   omega =  91.5%
  ----------------------------------------------------------------------------


  Excited state 8 (singlet, A2)                                    [converged]
  ----------------------------------------------------------------------------
  Term symbol:  8 (1) A2                                    R^2 =  2.41132e-08

  Total energy:                                            -78.3680769268 a.u.
  Excitation energy:                                              12.124185 eV

  Osc. strength:                                                      0.000000
  Trans. dip. moment [a.u.]:           [  -0.000000,    0.000000,    0.000000]
  <i|r^2|0> [a.u.]:                    [   0.000000,    0.000000,    0.000000]

  Dip. moment [a.u.]:                  [   0.000000,   -0.000000,   -4.620550]
  Total dipole [Debye]:                                              11.744269
  <r^2> [a.u.]:                        [  54.906685,   19.899610,   87.103677]
  Total <r^2> [a.u.]:                                               161.909973

  V1^2 = 0.9379, V2^2 = 0.0621

  Important amplitudes:
      occ i      occ j       vir a       vir b          v   
    ---------------------------------------------------------
     3 (A1) A               1 (A2) A                 -0.5079
     3 (A1) A               2 (A2) A                  0.4435
    ---------------------------------------------------------

  Density matrix analysis:
  ------------------------
  NOs
    Occupation of frontier NOs:
       1.0024   1.0310
    Number of electrons: 18.000000
    Number of unpaired electrons: n_u =  2.44907, n_u,nl =  2.05924
    NO participation ratio (PR_NO):  3.075688
  
  
  Mulliken Population Analysis
  Atom      Charge (e)              h+              e-           Del q
  --------------------------------------------------------------------
   1 C       -0.594459        0.336591       -0.520204       -0.183613
   2 C       -0.594459        0.336591       -0.520204       -0.183613
   3 H        0.272173        0.085056       -0.010210        0.074846
   4 H        0.272173        0.085056       -0.010210        0.074846
   5 H        0.167843        0.118193       -0.011579        0.106614
   6 H        0.167843        0.118193       -0.011579        0.106614
   7 H       -0.691114        0.009630       -0.005323        0.004307
  --------------------------------------------------------------------
  Sum:       -1.000000        1.089308       -1.089308       -0.000000
  
  Multipole moment analysis of the density matrix
    Molecular charge:                      -1.000000
    Number of electrons:                   18.000000
      Center of electronic charge [Ang]: [ -0.000000,   0.000000,   0.135838]
    Total nuclear charge:                  17.000000
      Center of nuclear charge [Ang]:    [ -0.000000,   0.000000,  -0.000000]
    Dipole moment [D]:                     11.744266
      Cartesian components [D]:          [  0.000000,  -0.000000, -11.744266]
    RMS size of the density [Ang]:         1.581267
      Cartesian components [Ang]:        [  0.924225,   0.556400,   1.156128]
  
  Exciton analysis of the difference density matrix
    <r_h> [Ang]:                  [  0.000000,   0.000000,  -0.180530]
    <r_e> [Ang]:                  [ -0.000000,   0.000000,  -0.182036]
    |<r_e - r_h>| [Ang]:            0.001506
    Hole size [Ang]:                1.486359
      Cartesian components [Ang]: [  0.992088,   0.531506,   0.970838]
    Electron size [Ang]:            1.870441
      Cartesian components [Ang]: [  1.287530,   1.137076,   0.740187]

  Transition density matrix analysis:
  -----------------------------------
  
  CT numbers (Mulliken)
    omega =     0.9089
    <Phe> =    -0.0121
  
  Exciton analysis of the transition density matrix
    Trans. dipole moment [D]:             0.000000
      Cartesian components [D]:         [ -0.000000,   0.000000,   0.000000]
    <r_h> [Ang]:                        [ -0.000000,   0.000000,  -0.213370]
    <r_e> [Ang]:                        [ -0.000000,   0.000000,  -0.202315]
    |<r_e - r_h>| [Ang]:                  0.011055
    Hole size [Ang]:                      1.375710
      Cartesian components [Ang]:       [  0.941651,   0.428974,   0.906561]
    Electron size [Ang]:                  1.882317
      Cartesian components [Ang]:       [  1.305736,   1.163770,   0.695565]
    RMS electron-hole separation [Ang]:   2.332866
      Cartesian components [Ang]:       [  1.615535,   1.238773,   1.139189]
    Covariance(r_h, r_e) [Ang^2]:        -0.003223
    Correlation coefficient:             -0.001245
    Center-of-mass size [Ang]:            1.165038
      Cartesian components [Ang]:       [  0.802084,   0.620927,   0.573084]

  Decomposition into state-averaged NTOs
    H- 4 -> L+ 0: -0.6712 ( 90.1%)
                   omega =  90.9%
  ----------------------------------------------------------------------------


  Excited state 9 (singlet, A2)                                    [converged]
  ----------------------------------------------------------------------------
  Term symbol:  9 (1) A2                                    R^2 =  6.72589e-07

  Total energy:                                            -78.3488439361 a.u.
  Excitation energy:                                              12.647541 eV

  Osc. strength:                                                      0.000000
  Trans. dip. moment [a.u.]:           [   0.000000,    0.000000,   -0.000000]
  <i|r^2|0> [a.u.]:                    [   0.000000,    0.000000,    0.000000]

  Dip. moment [a.u.]:                  [   0.000000,    0.000000,   -3.781928]
  Total dipole [Debye]:                                               9.612705
  <r^2> [a.u.]:                        [  58.507435,   20.535675,   93.592597]
  Total <r^2> [a.u.]:                                               172.635707

  V1^2 = 0.9432, V2^2 = 0.0568

  Important amplitudes:
      occ i      occ j       vir a       vir b          v   
    ---------------------------------------------------------
     1 (B2) A               7 (B1) A                 -0.6371
     4 (A1) A               1 (A2) A                  0.1602
    ---------------------------------------------------------

  Density matrix analysis:
  ------------------------
  NOs
    Occupation of frontier NOs:
       0.8778   1.0714
    Number of electrons: 18.000000
    Number of unpaired electrons: n_u =  2.40427, n_u,nl =  2.06954
    NO participation ratio (PR_NO):  3.476704
  
  
  Mulliken Population Analysis
  Atom      Charge (e)              h+              e-           Del q
  --------------------------------------------------------------------
   1 C       -0.133361        0.547676       -0.270191        0.277485
   2 C       -0.133361        0.547676       -0.270191        0.277485
   3 H        0.130198        0.036257       -0.103386       -0.067129
   4 H        0.130198        0.036257       -0.103386       -0.067129
   5 H       -0.161508        0.043907       -0.266644       -0.222737
   6 H       -0.161508        0.043907       -0.266644       -0.222737
   7 H       -0.670659        0.028351       -0.003589        0.024763
  --------------------------------------------------------------------
  Sum:       -1.000000        1.284031       -1.284031       -0.000000
  
  Multipole moment analysis of the density matrix
    Molecular charge:                      -1.000000
    Number of electrons:                   18.000000
      Center of electronic charge [Ang]: [  0.000000,  -0.000000,   0.111184]
    Total nuclear charge:                  17.000000
      Center of nuclear charge [Ang]:    [ -0.000000,   0.000000,  -0.000000]
    Dipole moment [D]:                     9.612702
      Cartesian components [D]:          [ -0.000000,   0.000000,  -9.612702]
    RMS size of the density [Ang]:         1.635040
      Cartesian components [Ang]:        [  0.954048,   0.565222,   1.201529]
  
  Exciton analysis of the difference density matrix
    <r_h> [Ang]:                  [ -0.000000,   0.000000,  -0.151854]
    <r_e> [Ang]:                  [ -0.000000,  -0.000000,  -0.498746]
    |<r_e - r_h>| [Ang]:            0.346892
    Hole size [Ang]:                1.630003
      Cartesian components [Ang]: [  1.018557,   0.875514,   0.923540]
    Electron size [Ang]:            2.421690
      Cartesian components [Ang]: [  1.547284,   1.327573,   1.306920]

  Transition density matrix analysis:
  -----------------------------------
  
  CT numbers (Mulliken)
    omega =     0.9122
    <Phe> =    -0.0076
  
  Exciton analysis of the transition density matrix
    Trans. dipole moment [D]:             0.000000
      Cartesian components [D]:         [  0.000000,   0.000000,  -0.000000]
    <r_h> [Ang]:                        [  0.000000,  -0.000000,  -0.151029]
    <r_e> [Ang]:                        [ -0.000000,  -0.000000,  -0.620651]
    |<r_e - r_h>| [Ang]:                  0.469622
    Hole size [Ang]:                      1.330916
      Cartesian components [Ang]:       [  0.799822,   0.844313,   0.647116]
    Electron size [Ang]:                  2.626742
      Cartesian components [Ang]:       [  1.676031,   1.461389,   1.398225]
    RMS electron-hole separation [Ang]:   2.948236
      Cartesian components [Ang]:       [  1.833028,   1.669887,   1.594860]
    Covariance(r_h, r_e) [Ang^2]:         0.099780
    Correlation coefficient:              0.028541
    Center-of-mass size [Ang]:            1.489183
      Cartesian components [Ang]:       [  0.940425,   0.852719,   0.778548]

  Decomposition into state-averaged NTOs
    H- 0 -> L+ 7:  0.6390 ( 81.7%)
    H- 2 -> L+ 1:  0.1853 (  6.9%)
    H- 1 -> L+ 6: -0.0818 (  1.3%)
                   omega =  91.2%
  ----------------------------------------------------------------------------


  Excited state 10 (singlet, A2)                                    [converged]
  ----------------------------------------------------------------------------
  Term symbol:  10 (1) A2                                   R^2 =  2.77429e-07

  Total energy:                                            -78.3411862108 a.u.
  Excitation energy:                                              12.855918 eV

  Osc. strength:                                                      0.000000
  Trans. dip. moment [a.u.]:           [  -0.000000,    0.000000,    0.000000]
  <i|r^2|0> [a.u.]:                    [   0.000000,    0.000000,   -0.000000]

  Dip. moment [a.u.]:                  [   0.000000,   -0.000000,    0.529352]
  Total dipole [Debye]:                                               1.345478
  <r^2> [a.u.]:                        [  62.315234,   25.735430,   63.743572]
  Total <r^2> [a.u.]:                                               151.794236

  V1^2 = 0.9082, V2^2 = 0.0918

  Important amplitudes:
      occ i      occ j       vir a       vir b          v   
    ---------------------------------------------------------
     5 (A1) A               3 (A2) A                 -0.6499
     5 (A1) A               2 (A2) A                  0.1083
    ---------------------------------------------------------

  Density matrix analysis:
  ------------------------
  NOs
    Occupation of frontier NOs:
       0.9185   1.0135
    Number of electrons: 18.000000
    Number of unpaired electrons: n_u =  2.52423, n_u,nl =  2.08557
    NO participation ratio (PR_NO):  3.456694
  
  
  Mulliken Population Analysis
  Atom      Charge (e)              h+              e-           Del q
  --------------------------------------------------------------------
   1 C       -0.690691        0.238115       -0.517960       -0.279845
   2 C       -0.690691        0.238115       -0.517960       -0.279845
   3 H        0.129834        0.005315       -0.072809       -0.067494
   4 H        0.129834        0.005315       -0.072809       -0.067494
   5 H        0.053731        0.007105       -0.014602       -0.007497
   6 H        0.053731        0.007105       -0.014602       -0.007497
   7 H        0.014252        0.733008       -0.023335        0.709673
  --------------------------------------------------------------------
  Sum:       -1.000000        1.234076       -1.234076        0.000000
  
  Multipole moment analysis of the density matrix
    Molecular charge:                      -1.000000
    Number of electrons:                   18.000000
      Center of electronic charge [Ang]: [ -0.000000,   0.000000,  -0.015562]
    Total nuclear charge:                  17.000000
      Center of nuclear charge [Ang]:    [ -0.000000,   0.000000,  -0.000000]
    Dipole moment [D]:                     1.345478
      Cartesian components [D]:          [  0.000000,  -0.000000,   1.345478]
    RMS size of the density [Ang]:         1.536633
      Cartesian components [Ang]:        [  0.984605,   0.632748,   0.995704]
  
  Exciton analysis of the difference density matrix
    <r_h> [Ang]:                  [ -0.000000,   0.000000,   2.193498]
    <r_e> [Ang]:                  [ -0.000000,   0.000000,  -0.016131]
    |<r_e - r_h>| [Ang]:            2.209629
    Hole size [Ang]:                1.959913
      Cartesian components [Ang]: [  0.917775,   0.833734,   1.517840]
    Electron size [Ang]:            2.737802
      Cartesian components [Ang]: [  1.765757,   1.706238,   1.210956]

  Transition density matrix analysis:
  -----------------------------------
  
  CT numbers (Mulliken)
    omega =     0.8962
    <Phe> =    -0.0002
  
  Exciton analysis of the transition density matrix
    Trans. dipole moment [D]:             0.000000
      Cartesian components [D]:         [ -0.000000,   0.000000,   0.000000]
    <r_h> [Ang]:                        [  0.000000,   0.000000,   2.726977]
    <r_e> [Ang]:                        [ -0.000000,   0.000000,  -0.201593]
    |<r_e - r_h>| [Ang]:                  2.928570
    Hole size [Ang]:                      1.511836
      Cartesian components [Ang]:       [  0.763358,   0.739094,   1.075488]
    Electron size [Ang]:                  2.827966
      Cartesian components [Ang]:       [  1.859108,   1.836767,   1.080460]
    RMS electron-hole separation [Ang]:   4.334397
      Cartesian components [Ang]:       [  2.008137,   1.981485,   3.290608]
    Covariance(r_h, r_e) [Ang^2]:         0.036284
    Correlation coefficient:              0.008487
    Center-of-mass size [Ang]:            1.609006
      Cartesian components [Ang]:       [  1.005656,   0.989150,   0.774041]

  Decomposition into state-averaged NTOs
    H- 1 -> L+ 6:  0.6553 ( 85.9%)
    H- 0 -> L+ 7:  0.1038 (  2.2%)
    H- 2 -> L+ 1: -0.0735 (  1.1%)
                   omega =  89.6%
  ----------------------------------------------------------------------------


--------------------------------------------------------------------------------
  Time of ADC calculation:  CPU 135.89 s  wall 39.70 s
================================================================================
 
 --------------------------------------------------------------
             Orbital Energies (a.u.) and Symmetries
 --------------------------------------------------------------
 
 Alpha MOs, Restricted
 -- Occupied --                  
-11.072 -11.070  -0.877  -0.619  -0.493  -0.405  -0.348  -0.214
  1 A1    1 B1    2 A1    2 B1    3 A1    4 A1    3 B1    1 B2                 
 -0.018
  5 A1                                                                         
 -- Virtual --                   
  0.205   0.208   0.237   0.241   0.249   0.273   0.322   0.347
  6 A1    4 B1    1 A2    2 B2    7 A1    5 B1    8 A1    6 B1                 
  0.349   0.443   0.486   0.493   0.505   0.539   0.565   0.578
  2 A2    9 A1   10 A1    7 B1    8 B1   11 A1    3 B2   12 A1                 
  0.600   0.650   0.699   0.774   0.989   1.011   1.063   1.082
  9 B1    3 A2   10 B1   11 B1   13 A1   14 A1   15 A1   12 B1                 
  1.200   1.206   1.279   1.285   1.309   1.340   1.369   1.423
 16 A1   13 B1    4 B2   17 A1   14 B1   18 A1    5 B2    4 A2                 
  1.451   1.467   1.526   1.663   1.791   1.910   1.912   1.937
  5 A2    6 B2   15 B1   16 B1   19 A1   20 A1    7 B2   17 B1                 
  1.954   2.027   2.046   2.108   2.144   2.187   2.259   2.279
 18 B1   21 A1    6 A2    8 B2   19 B1    9 B2   22 A1   23 A1                 
  2.348   2.494   2.578   2.666   2.717   2.757   3.040   3.067
  7 A2   20 B1    8 A2   24 A1   21 B1   22 B1   25 A1   26 A1                 
  3.466   3.524
 23 B1   24 B1                                                                 
 
 Beta MOs, Restricted
 -- Occupied --                  
-11.072 -11.070  -0.877  -0.619  -0.493  -0.405  -0.348  -0.214
  1 A1    1 B1    2 A1    2 B1    3 A1    4 A1    3 B1    1 B2                 
 -0.018
  5 A1                                                                         
 -- Virtual --                   
  0.205   0.208   0.237   0.241   0.249   0.273   0.322   0.347
  6 A1    4 B1    1 A2    2 B2    7 A1    5 B1    8 A1    6 B1                 
  0.349   0.443   0.486   0.493   0.505   0.539   0.565   0.578
  2 A2    9 A1   10 A1    7 B1    8 B1   11 A1    3 B2   12 A1                 
  0.600   0.650   0.699   0.774   0.989   1.011   1.063   1.082
  9 B1    3 A2   10 B1   11 B1   13 A1   14 A1   15 A1   12 B1                 
  1.200   1.206   1.279   1.285   1.309   1.340   1.369   1.423
 16 A1   13 B1    4 B2   17 A1   14 B1   18 A1    5 B2    4 A2                 
  1.451   1.467   1.526   1.663   1.791   1.910   1.912   1.937
  5 A2    6 B2   15 B1   16 B1   19 A1   20 A1    7 B2   17 B1                 
  1.954   2.027   2.046   2.108   2.144   2.187   2.259   2.279
 18 B1   21 A1    6 A2    8 B2   19 B1    9 B2   22 A1   23 A1                 
  2.348   2.494   2.578   2.666   2.717   2.757   3.040   3.067
  7 A2   20 B1    8 A2   24 A1   21 B1   22 B1   25 A1   26 A1                 
  3.466   3.524
 23 B1   24 B1                                                                 
 --------------------------------------------------------------
 
          Ground-State Mulliken Net Atomic Charges

     Atom                 Charge (a.u.)
  ----------------------------------------
      1 C                    -0.387038
      2 C                    -0.387038
      3 H                     0.196986
      4 H                     0.196986
      5 H                     0.052701
      6 H                     0.052701
      7 H                    -0.725297
  ----------------------------------------
  Sum of atomic charges =    -1.000000

 -----------------------------------------------------------------
                    Cartesian Multipole Moments
 -----------------------------------------------------------------
    Charge (ESU x 10^10)
                -4.8032
    Dipole Moment (Debye)
         X      -0.0000      Y      -0.0000      Z     -11.9953
       Tot      11.9953
    Quadrupole Moments (Debye-Ang)
        XX     -18.7084     XY       0.0000     YY     -21.5854
        XZ      -0.0000     YZ       0.0000     ZZ     -55.3601
    Octopole Moments (Debye-Ang^2)
       XXX      -0.0000    XXY      -0.0000    XYY      -0.0000
       YYY      -0.0000    XXZ      -9.1290    XYZ      -0.0000
       YYZ      -9.6108    XZZ      -0.0000    YZZ      -0.0000
       ZZZ    -135.7897
    Hexadecapole Moments (Debye-Ang^3)
      XXXX     -85.8904   XXXY      -0.0000   XXYY     -20.9689
      XYYY       0.0000   YYYY     -36.5475   XXXZ      -0.0000
      XXYZ      -0.0000   XYYZ      -0.0000   YYYZ       0.0000
      XXZZ     -57.0168   XYZZ       0.0000   YYZZ     -51.6432
      XZZZ      -0.0000   YZZZ       0.0000   ZZZZ    -575.7332
 -----------------------------------------------------------------
 Total job time:  120.53s(wall), 179.13s(cpu) 
 Thu Feb 17 21:18:45 2022

        *************************************************************
        *                                                           *
        *  Thank you very much for using Q-Chem.  Have a nice day.  *
        *                                                           *
        *************************************************************


