/src/tsommerfeld/qchem/exe/qcprog.exe .input2.138889.18071.qcin.1 /src/jdavis/qchem.scratch/qchem18071/

                  Welcome to Q-Chem
     A Quantum Leap Into The Future Of Chemistry


 Q-Chem 5.4 (devel), Q-Chem, Inc., Pleasanton, CA (2021)

 E. Epifanovsky,  A. T. B. Gilbert,  Xintian Feng,  Joonho Lee,  Yuezhi Mao,  
 N. Mardirossian,  P. Pokhilko,  A. White,  M. Wormit,  M. P. Coons,  
 A. L. Dempwolff,  Zhengting Gan,  D. Hait,  P. R. Horn,  L. D. Jacobson,  
 I. Kaliman,  J. Kussmann,  A. W. Lange,  Ka Un Lao,  D. S. Levine,  Jie Liu,  
 S. C. McKenzie,  A. F. Morrison,  K. Nanda,  F. Plasser,  D. R. Rehn,  
 M. L. Vidal,  Zhi-Qiang You,  Ying Zhu,  B. Alam,  B. Albrecht,  
 A. Aldossary,  E. Alguire,  J. H. Andersen,  D. Barton,  K. Begam,  A. Behn,  
 Y. A. Bernard,  E. J. Berquist,  H. Burton,  A. Carreras,  K. Carter-Fenk,  
 R. Chakraborty,  A. D. Chien,  K. D. Closser,  V. Cofer-Shabica,  
 S. Dasgupta,  Jia Deng,  M. de Wergifosse,  M. Diedenhofen,  Hainam Do,  
 S. Ehlert,  Po-Tung Fang,  S. Fatehi,  Qingguo Feng,  T. Friedhoff,  
 J. Gayvert,  Qinghui Ge,  G. Gidofalvi,  M. Goldey,  J. Gomes,  
 C. Gonzalez-Espinoza,  S. Gulania,  A. Gunina,  M. W. D. Hanson-Heine,  
 P. H. P. Harbach,  A. W. Hauser,  M. F. Herbst,  M. Hernandez Vera,  
 M. Hodecker,  Z. C. Holden,  S. Houck,  Xunkun Huang,  Kerwin Hui,  
 B. C. Huynh,  M. Ivanov,  Hyunjun Ji,  Hanjie Jiang,  B. Kaduk,  S. Kaehler,  
 K. Khistyaev,  Jaehoon Kim,  P. Klunzinger,  Z. Koczor-Benda,  
 Joong Hoon Koh,  D. Kosenkov,  L. Koulias,  T. Kowalczyk,  C. M. Krauter,  
 K. Kue,  A. Kunitsa,  T. Kus,  A. Landau,  K. V. Lawler,  D. Lefrancois,  
 S. Lehtola,  Rain Li,  Yi-Pei Li,  Jiashu Liang,  M. Liebenthal,  
 Hung-Hsuan Lin,  You-Sheng Lin,  Fenglai Liu,  Kuan-Yu Liu,  
 M. Loipersberger,  A. Luenser,  A. Manjanath,  P. Manohar,  E. Mansoor,  
 S. F. Manzer,  Shan-Ping Mao,  A. V. Marenich,  T. Markovich,  S. Mason,  
 S. A. Maurer,  P. F. McLaughlin,  M. F. S. J. Menger,  J.-M. Mewes,  
 S. A. Mewes,  P. Morgante,  J. W. Mullinax,  K. J. Oosterbaan,  G. Paran,  
 Alexander C. Paul,  Suranjan K. Paul,  F. Pavosevic,  Zheng Pei,  S. Prager,  
 E. I. Proynov,  E. Ramos,  B. Rana,  A. E. Rask,  A. Rettig,  R. M. Richard,  
 F. Rob,  E. Rossomme,  T. Scheele,  M. Scheurer,  M. Schneider,  
 N. Sergueev,  S. M. Sharada,  W. Skomorowski,  D. W. Small,  C. J. Stein,  
 Yu-Chuan Su,  E. J. Sundstrom,  Zhen Tao,  J. Thirman,  T. Tsuchimochi,  
 N. M. Tubman,  S. P. Veccham,  O. Vydrov,  J. Wenzel,  J. Witte,  A. Yamada,  
 Kun Yao,  S. Yeganeh,  S. R. Yost,  A. Zech,  Igor Ying Zhang,  Xing Zhang,  
 Yu Zhang,  D. Zuev,  A. Aspuru-Guzik,  A. T. Bell,  N. A. Besley,  
 K. B. Bravaya,  B. R. Brooks,  D. Casanova,  Jeng-Da Chai,  S. Coriani,  
 C. J. Cramer,  A. E. DePrince, III,  R. A. DiStasio Jr.,  A. Dreuw,  
 B. D. Dunietz,  T. R. Furlani,  W. A. Goddard III,  S. Grimme,  
 S. Hammes-Schiffer,  T. Head-Gordon,  W. J. Hehre,  Chao-Ping Hsu,  
 T.-C. Jagau,  Yousung Jung,  A. Klamt,  Jing Kong,  D. S. Lambrecht,  
 WanZhen Liang,  N. J. Mayhall,  C. W. McCurdy,  J. B. Neaton,  
 C. Ochsenfeld,  J. A. Parkhill,  R. Peverati,  V. A. Rassolov,  Yihan Shao,  
 L. V. Slipchenko,  T. Stauch,  R. P. Steele,  J. E. Subotnik,  
 A. J. W. Thom,  A. Tkatchenko,  D. G. Truhlar,  T. Van Voorhis,  
 T. A. Wesolowski,  K. B. Whaley,  H. L. Woodcock III,  P. M. Zimmerman,  
 S. Faraji,  P. M. W. Gill,  M. Head-Gordon,  J. M. Herbert,  A. I. Krylov

 Additional authors for Version 5.4.1: 
 S. Kotaru,  Shaozhi Li,  Xiangyuan Li,  F. Matz,  A. Molle,  Haisheng Ren,  
 Yingli Su,  Hung-Yi Tsai,  C. Utku,  Fang Wang

 Contributors to earlier versions of Q-Chem not listed above: 
 R. D. Adamson,  B. Austin,  R. Baer,  J. Baker,  G. J. O. Beran,  
 K. Brandhorst,  S. T. Brown,  E. F. C. Byrd,  A. K. Chakraborty,  
 G. K. L. Chan,  Chun-Min Chang,  Yunqing Chen,  C.-L. Cheng,  
 Siu Hung Chien,  D. M. Chipman,  D. L. Crittenden,  H. Dachsel,  
 R. J. Doerksen,  A. D. Dutoi,  R. G. Edgar,  J. Fosso-Tande,  
 L. Fusti-Molnar,  D. Ghosh,  A. Ghysels,  A. Golubeva-Zadorozhnaya,  
 J. Gonthier,  M. S. Gordon,  S. R. Gwaltney,  G. Hawkins,  J. E. Herr,  
 A. Heyden,  S. Hirata,  E. G. Hohenstein,  G. Kedziora,  F. J. Keil,  
 C. Kelley,  Jihan Kim,  R. A. King,  R. Z. Khaliullin,  P. P. Korambath,  
 W. Kurlancheek,  A. Laurent,  A. M. Lee,  M. S. Lee,  S. V. Levchenko,  
 Ching Yeh Lin,  D. Liotard,  E. Livshits,  R. C. Lochan,  I. Lotan,  
 L. A. Martinez-Martinez,  P. E. Maslen,  N. Nair,  D. P. O'Neill,  
 D. Neuhauser,  E. Neuscamman,  C. M. Oana,  R. Olivares-Amaya,  R. Olson,  
 T. M. Perrine,  B. Peters,  P. A. Pieniazek,  A. Prociuk,  Y. M. Rhee,  
 J. Ritchie,  M. A. Rohrdanz,  E. Rosta,  N. J. Russ,  H. F. Schaefer III,  
 M. W. Schmidt,  N. E. Schultz,  S. Sharma,  N. Shenvi,  C. D. Sherrill,  
 A. C. Simmonett,  A. Sodt,  T. Stein,  D. Stuck,  K. S. Thanthiriwatte,  
 V. Vanovschi,  L. Vogt,  Tao Wang,  A. Warshel,  M. A. Watson,  
 C. F. Williams,  Q. Wu,  X. Xu,  Jun Yang,  W. Zhang,  Yan Zhao

 Please cite Q-Chem as follows:
 Y. Shao et al., Mol. Phys. 113, 184-215 (2015)
 DOI: 10.1080/00268976.2014.952696

 Q-Chem 5.4.1 for Intel X86 EM64T Linux

 Parts of Q-Chem use Armadillo 9.900.5 (Nocturnal Misbehaviour).
 http://arma.sourceforge.net/

 Q-Chem begins on Thu Feb 17 16:13:41 2022  

 Host: node01
0

     Scratch files written to /src/jdavis/qchem.scratch/qchem18071//
 Processing $rem in /src/tsommerfeld/qchem/config/preferences:
 Processing $rem in /home/jdavis/.qchemrc:

 Checking the input file for inconsistencies... 	...done.

--------------------------------------------------------------
User input:
--------------------------------------------------------------
$molecule
-1 1
C        -0.6645000000    0.0000000000   -0.2082049804
C         0.6645000000    0.0000000000   -0.2082049804
H        -1.1590800000    0.0000000000    0.7541440196
H         1.1590800000    0.0000000000    0.7541440196
H        -1.1590800000    0.0000000000   -1.1705529804
H         1.1590800000    0.0000000000   -1.1705529804
H         0.0000000000    0.0000000000    9.792
$end

$rem
   METHOD adc(2)
   BASIS gen
   PURECART 11
   EE_STATES [0,10,0,0]
   scf_convergence 8
   ADC_DAVIDSON_MAXITER 120
   ADC_DAVIDSON_MAXSUBSPACE 200
   adc_nguess_singles 100
   THRESH 14
   S2THRESH 14
   adc_davidson_conv 5
   adc_davidson_thresh 14
   THREADS 10
   MEM_TOTAL 95000
   STATE_ANALYSIS TRUE
$end
$basis
C 1
S   9   1.00
      6.665000D+03           6.920000D-04
      1.000000D+03           5.329000D-03
      2.280000D+02           2.707700D-02
      6.471000D+01           1.017180D-01
      2.106000D+01           2.747400D-01
      7.495000D+00           4.485640D-01
      2.797000D+00           2.850740D-01
      5.215000D-01           1.520400D-02
      1.596000D-01          -3.191000D-03
S   9   1.00
      6.665000D+03          -1.460000D-04
      1.000000D+03          -1.154000D-03
      2.280000D+02          -5.725000D-03
      6.471000D+01          -2.331200D-02
      2.106000D+01          -6.395500D-02
      7.495000D+00          -1.499810D-01
      2.797000D+00          -1.272620D-01
      5.215000D-01           5.445290D-01
      1.596000D-01           5.804960D-01
S   1   1.00
      1.596000D-01           1.000000D+00
S   1   1.00
      0.0469000              1.0000000
P   4   1.00
      9.439000D+00           3.810900D-02
      2.002000D+00           2.094800D-01
      5.456000D-01           5.085570D-01
      1.517000D-01           4.688420D-01
P   1   1.00
      1.517000D-01           1.000000D+00
P   1   1.00
      0.0927056      1.0000000
P   1   1.00
      0.0463528      1.0000000
D   1   1.00
      5.500000D-01           1.0000000
****
C 2
S   9   1.00
      6.665000D+03           6.920000D-04
      1.000000D+03           5.329000D-03
      2.280000D+02           2.707700D-02
      6.471000D+01           1.017180D-01
      2.106000D+01           2.747400D-01
      7.495000D+00           4.485640D-01
      2.797000D+00           2.850740D-01
      5.215000D-01           1.520400D-02
      1.596000D-01          -3.191000D-03
S   9   1.00
      6.665000D+03          -1.460000D-04
      1.000000D+03          -1.154000D-03
      2.280000D+02          -5.725000D-03
      6.471000D+01          -2.331200D-02
      2.106000D+01          -6.395500D-02
      7.495000D+00          -1.499810D-01
      2.797000D+00          -1.272620D-01
      5.215000D-01           5.445290D-01
      1.596000D-01           5.804960D-01
S   1   1.00
      1.596000D-01           1.000000D+00
S   1   1.00
      0.0469000              1.0000000
P   4   1.00
      9.439000D+00           3.810900D-02
      2.002000D+00           2.094800D-01
      5.456000D-01           5.085570D-01
      1.517000D-01           4.688420D-01
P   1   1.00
      1.517000D-01           1.000000D+00
P   1   1.00
      0.0927056      1.0000000
P   1   1.00
      0.0463528      1.0000000
D   1   1.00
      5.500000D-01           1.0000000
****
H 3
cc-pVDZ
****
H 4
cc-pVDZ
****
H 5
cc-pVDZ
****
H 6
cc-pVDZ
****
H 7
aug-cc-pVDZ
****
$end
--------------------------------------------------------------
 ----------------------------------------------------------------
             Standard Nuclear Orientation (Angstroms)
    I     Atom           X                Y                Z
 ----------------------------------------------------------------
    1      C      -0.6645000000    -0.0000000000    -0.5882474694
    2      C       0.6645000000     0.0000000000    -0.5882474694
    3      H      -1.1590800000    -0.0000000000     0.3741015306
    4      H       1.1590800000     0.0000000000     0.3741015306
    5      H      -1.1590800000    -0.0000000000    -1.5505954694
    6      H       1.1590800000     0.0000000000    -1.5505954694
    7      H       0.0000000000     0.0000000000     9.4119575110
 ----------------------------------------------------------------
 Molecular Point Group                 C2v   NOp =  4
 Largest Abelian Subgroup              C2v   NOp =  4
 Nuclear Repulsion Energy =          34.43497767 hartrees
 There are        9 alpha and        9 beta electrons
 Requested basis set is non-standard
 There are 33 shells and 67 basis functions
 Total memory of 95000 MB is distributed as follows: 
   MEM_STATIC is set to 192 MB
   QALLOC/CCMAN JOB total memory use is  94808 MB
 Warning: actual memory use might exceed 95000 MB

 Total QAlloc Memory Limit  95000 MB
 Mega-Array Size       188 MB
 MEM_STATIC part       192 MB

                       Distance Matrix (Angstroms)
             C (  1)   C (  2)   H (  3)   H (  4)   H (  5)   H (  6)
   C (  2)  1.329000
   H (  3)  1.082000  2.061931
   H (  4)  2.061931  1.082000  2.318160
   H (  5)  1.082000  2.061931  1.924697  3.013026
   H (  6)  2.061931  1.082000  3.013026  1.924697  2.318160
   H (  7) 10.022258 10.022258  9.111877  9.111877 11.023658 11.023658

 
 A cutoff of  1.0D-14 yielded    505 shell pairs
 There are      2121 function pairs (      2258 Cartesian)
 Smallest overlap matrix eigenvalue = 1.87E-04

 Scale SEOQF with 1.000000e-01/1.000000e-01/1.000000e-02

 Standard Electronic Orientation quadrupole field applied
 Nucleus-field energy     =    -0.0000000007 hartrees
 ================ Generating on-the-fly SAD Guess ================
Attempting to make child job directory: /src/jdavis/qchem.scratch/qchem18071//Frg1/
Attempting to make child job directory: /src/jdavis/qchem.scratch/qchem18071//Frg2/
Creating input file /src/jdavis/qchem.scratch/qchem18071/Frg1.input
using default PutDataFrgm: nothing
calling putenv with: QCSCRATCH=/src/jdavis/qchem.scratch/qchem18071/ 
Spawning Job For Fragment 0
Done Job For Fragment 0
calling putenv with: QCSCRATCH=/src/jdavis/qchem.scratch 
calling putenv with: QCTHREADS=1 
Creating input file /src/jdavis/qchem.scratch/qchem18071/Frg2.input
using default PutDataFrgm: nothing
calling putenv with: QCSCRATCH=/src/jdavis/qchem.scratch/qchem18071/ 
Spawning Job For Fragment 1
Done Job For Fragment 1
calling putenv with: QCSCRATCH=/src/jdavis/qchem.scratch 
calling putenv with: QCTHREADS=1 
 Time for running child jobs:  CPU 1.77 s  wall 53.18 s
 ============= Method Specific SAD Guess Constructed =============
 Guess from on-the-fly superposition of atomic densities
 Warning: Energy on first SCF cycle will be non-variational
 A restricted Hartree-Fock SCF calculation will be
 performed using Pulay DIIS extrapolation
 SCF converges when DIIS error is below 1.0E-08
 using 10 threads for integral computing
 -------------------------------------------------------
 OpenMP Integral computing Module                
 Release: version 1.0, May 2013, Q-Chem Inc. Pittsburgh 
 -------------------------------------------------------
 ---------------------------------------
  Cycle       Energy         DIIS Error
 ---------------------------------------
    1     -78.8022154796      7.36E-02
    2     -78.4470515528      6.49E-03
    3     -78.4850084761      1.48E-03
    4     -78.4869410217      4.78E-04
    5     -78.4871146234      7.26E-05
    6     -78.4871223950      1.23E-05
    7     -78.4871227127      3.41E-06
    8     -78.4871227371      3.03E-07
    9     -78.4871227372      6.48E-08
   10     -78.4871227372      1.01E-08
   11     -78.4871227372      1.07E-09 Convergence criterion met
 ---------------------------------------
 SCF time:  CPU 10.16 s  wall 1.02 s
 SCF   energy in the final basis set = -78.48712274
 Total energy in the final basis set = -78.48712274
================================================================================
|                                                                              |
|                                 A D C  M A N                                 |
|                                                                              |
 ------------------------------------------------------------------------------ 
|                                                                              |
| Components:                                                                  |
|                                                                              |
| - libvmm - 1.3-trunk                                                         |
|   Authors:                                                                   |
|   Evgeny Epifanovsky, Ilya Kaliman                                           |
|                                                                              |
| - libtensor - 2.5-trunk                                                      |
|   Authors:                                                                   |
|   Evgeny Epifanovsky, Michael Wormit, Dmitry Zuev, Sam Manzer,               |
|   Ilya Kaliman                                                               |
|                                                                              |
| - libwfa - 1.1-trunk                                                         |
|   Authors:                                                                   |
|   Felix Plasser, Stefanie Mewes (Baeppler), Benjamin Thomitzni,              |
|   Michael Wormit, Feng Chen, Anna I. Krylov, Pavel Pokhilko                  |
|                                                                              |
| - libadc - 1.1-trunk                                                         |
|   Authors:                                                                   |
|   Michael Wormit, Adrian L. Dempwolff, Philipp H. P. Harbach,                |
|   Caroline Krauter, Dirk Rehn, Matthias Schneider, Jan Wenzel                |
|                                                                              |
| - adcman - 2.6-trunk                                                         |
|   Authors:                                                                   |
|   Michael Wormit, Adrian L. Dempwolff, Philipp H. P. Harbach,                |
|   Caroline Krauter, Daniel Lefrancois, Jan-Michael Mewes, Dirk Rehn,         |
|   Matthias Schneider, Jan Wenzel, Andreas Dreuw                              |
|                                                                              |
| Authors of earlier versions of ADCMAN:                                       |
| Andreas Dreuw, Jan Hendrik Starcke, Dirk Rehn, Michael Wormit                |
|                                                                              |
================================================================================

 
 Alpha MOs, Restricted
 -- Occupied --                  
-11.184 -11.182  -0.989  -0.729  -0.607  -0.514  -0.462  -0.324
  1 A1    1 B1    2 A1    2 B1    3 A1    4 A1    3 B1    1 B2                 
  0.022
  5 A1                                                                         
 -- Virtual --                   
  0.137   0.141   0.153   0.156   0.160   0.186   0.202   0.251
  4 B1    6 A1    7 A1    1 A2    2 B2    5 B1    8 A1    2 A2                 
  0.269   0.315   0.379   0.393   0.410   0.436   0.439   0.454
  6 B1    9 A1   10 A1    7 B1    8 B1   11 A1   12 A1    3 B2                 
  0.475   0.540   0.599   0.672   0.892   0.902   0.981   1.044
  9 B1    3 A2   10 B1   11 B1   13 A1   14 A1   12 B1   15 A1                 
  1.058   1.085   1.150   1.167   1.176   1.202   1.240   1.291
 16 A1   13 B1   17 A1    4 B2   18 A1   14 B1    5 B2    4 A2                 
  1.337   1.352   1.390   1.538   1.679   1.793   1.805   1.933
  5 A2    6 B2   15 B1   16 B1   19 A1   20 A1   17 B1    6 A2                 
  1.967   1.967   1.967   1.998   2.024   2.070   2.142   2.157
 21 A1   18 B1    7 B2    8 B2   19 B1    9 B2   22 A1   23 A1                 
  2.237   2.387   2.465   2.533   2.610   2.635   2.918   2.922
  7 A2   20 B1    8 A2   24 A1   21 B1   22 B1   25 A1   26 A1                 
  3.339   3.404
 23 B1   24 B1                                                                 
 
 Beta MOs, Restricted
 -- Occupied --                  
-11.184 -11.182  -0.989  -0.729  -0.607  -0.514  -0.462  -0.324
  1 A1    1 B1    2 A1    2 B1    3 A1    4 A1    3 B1    1 B2                 
  0.022
  5 A1                                                                         
 -- Virtual --                   
  0.137   0.141   0.153   0.156   0.160   0.186   0.202   0.251
  4 B1    6 A1    7 A1    1 A2    2 B2    5 B1    8 A1    2 A2                 
  0.269   0.315   0.379   0.393   0.410   0.436   0.439   0.454
  6 B1    9 A1   10 A1    7 B1    8 B1   11 A1   12 A1    3 B2                 
  0.475   0.540   0.599   0.672   0.892   0.902   0.981   1.044
  9 B1    3 A2   10 B1   11 B1   13 A1   14 A1   12 B1   15 A1                 
  1.058   1.085   1.150   1.167   1.176   1.202   1.240   1.291
 16 A1   13 B1   17 A1    4 B2   18 A1   14 B1    5 B2    4 A2                 
  1.337   1.352   1.390   1.538   1.679   1.793   1.805   1.933
  5 A2    6 B2   15 B1   16 B1   19 A1   20 A1   17 B1    6 A2                 
  1.967   1.967   1.967   1.998   2.024   2.070   2.142   2.157
 21 A1   18 B1    7 B2    8 B2   19 B1    9 B2   22 A1   23 A1                 
  2.237   2.387   2.465   2.533   2.610   2.635   2.918   2.922
  7 A2   20 B1    8 A2   24 A1   21 B1   22 B1   25 A1   26 A1                 
  3.339   3.404
 23 B1   24 B1                                                                 

--------------------------------------------------------------------------------
                                   HF Summary                                   
--------------------------------------------------------------------------------
  Energy:                                                  -78.4871227372 a.u.
  Dip. moment [a.u.]:                  [   0.000000,   -0.000000,  -17.727129]
  Total dipole [Debye]:                                              45.057876
  <r^2> [a.u.]:                        [  50.654470,   14.956148,  677.628669]
  Total <r^2> [a.u.]:                                               743.239287
--------------------------------------------------------------------------------

--------------------------------------------------------------------------------
                                 MP(2) Summary                                  
--------------------------------------------------------------------------------
  MP energy contribution:                                   -0.2998461932 a.u.
  Total energy:                                            -78.7869689304 a.u.
  Dip. moment [a.u.]:                  [  -0.000000,   -0.000000,  -17.726447]
  Total dipole [Debye]:                                              45.056144
  <r^2> [a.u.]:                        [  50.717387,   14.763329,  677.615711]
  Total <r^2> [a.u.]:                                               743.096428

  Density matrix analysis:
  ------------------------
  NOs
    Occupation of frontier NOs:
       0.0447   1.9370
    Number of electrons: 18.000000
    Number of unpaired electrons: n_u =  0.43266, n_u,nl =  0.04685
    NO participation ratio (PR_NO): 15.335820
  
  
  Mulliken Population Analysis
  Atom      Charge (e)              h+              e-           Del q
  --------------------------------------------------------------------
   1 C       -0.241972        0.086885       -0.102779       -0.015894
   2 C       -0.241972        0.086885       -0.102779       -0.015894
   3 H        0.131809        0.018240       -0.010307        0.007933
   4 H        0.131809        0.018240       -0.010307        0.007933
   5 H        0.110163        0.018558       -0.010596        0.007962
   6 H        0.110163        0.018558       -0.010596        0.007962
   7 H       -1.000000        0.021953       -0.021953        0.000000
  --------------------------------------------------------------------
  Sum:       -1.000000        0.269319       -0.269319       -0.000000
  
  Multipole moment analysis of the density matrix
    Molecular charge:                      -1.000000
    Number of electrons:                   18.000000
      Center of electronic charge [Ang]: [  0.000000,   0.000000,   0.521135]
    Total nuclear charge:                  17.000000
      Center of nuclear charge [Ang]:    [  0.000000,   0.000000,  -0.000000]
    Dipole moment [D]:                     45.056130
      Cartesian components [D]:          [ -0.000000,  -0.000000, -45.056130]
    RMS size of the density [Ang]:         3.359892
      Cartesian components [Ang]:        [  0.888267,   0.479244,   3.204712]
  
  Exciton analysis of the difference density matrix
    <r_h> [Ang]:                  [  0.000000,   0.000000,   0.224398]
    <r_e> [Ang]:                  [  0.000000,   0.000000,   0.223059]
    |<r_e - r_h>| [Ang]:            0.001339
    Hole size [Ang]:                3.081869
      Cartesian components [Ang]: [  0.950555,   0.753782,   2.833050]
    Electron size [Ang]:            3.057773
      Cartesian components [Ang]: [  0.984365,   0.606383,   2.830777]
--------------------------------------------------------------------------------
Less singles guess vectors found than requested: 85 (found), 100 (requested).
Adjusting number of doubles guess vectors to 15.
  Starting Davidson for singlet states of irrep A2 ... 
--------------------------------------------------------------------------------
   It NVec Conv  Avg. Norm  Max. Norm  Conv. states           Remark
--------------------------------------------------------------------------------
       100    1  5.455e-02  3.663e-01  0.1064 n n y n n n n n Guess.
    1  110    5  1.967e-03  1.233e-02  0.0599 n n y y y n y y 
    2  120    9  2.340e-04  2.340e-03  0.0598 y y y y y n y y 
    3  130    8  1.891e-03  1.891e-02  0.0598 y y y y y n y y 
    4  140    9  1.341e-04  1.341e-03  0.0598 y y y y y y y y 
    5  142    9  1.219e-04  1.219e-03  0.0598 y y y y y y y y 
    6  144    9  7.816e-05  7.816e-04  0.0598 y y y y y y y y 
    7  146    9  7.273e-05  7.273e-04  0.0598 y y y y y y y y 
    8  146    9  7.273e-05  7.273e-04  0.0598 y y y y y y y y 
    9  156    9  2.456e-06  2.456e-05  0.0598 y y y y y y y y 
   10  156    9  2.456e-06  2.456e-05  0.0598 y y y y y y y y 
   11  166   10  3.791e-08  3.790e-07  0.0598 y y y y y y y y Converged.
--------------------------------------------------------------------------------
  Davidson Summary: 
 ------------------------------------------------------------
  State  0: excitation energy =   0.0598 a.u.   (converged)
  State  1: excitation energy =   0.1433 a.u.   (converged)
  State  2: excitation energy =   0.2533 a.u.   (converged)
  State  3: excitation energy =   0.2537 a.u.   (converged)
  State  4: excitation energy =   0.2657 a.u.   (converged)
  State  5: excitation energy =   0.3007 a.u.   (converged)
  State  6: excitation energy =   0.3030 a.u.   (converged)
  State  7: excitation energy =   0.3143 a.u.   (converged)
  State  8: excitation energy =   0.3493 a.u.   (converged)
  State  9: excitation energy =   0.3579 a.u.   (converged)
 ------------------------------------------------------------


--------------------------------------------------------------------------------
                   State-averaged natural transition orbitals
--------------------------------------------------------------------------------
--------------------------------------------------------------------------------

--------------------------------------------------------------------------------
                             Excited State Summary
--------------------------------------------------------------------------------
--------------------------------------------------------------------------------

  Excited state 1 (singlet, A2)                                    [converged]
  ----------------------------------------------------------------------------
  Term symbol:  1 (1) A2                                    R^2 =  1.75171e-11

  Total energy:                                            -78.7271452260 a.u.
  Excitation energy:                                               1.627886 eV

  Osc. strength:                                                      0.000000
  Trans. dip. moment [a.u.]:           [   0.000000,   -0.000000,    0.000000]
  <i|r^2|0> [a.u.]:                    [   0.000000,    0.000000,   -0.000000]

  Dip. moment [a.u.]:                  [   0.000000,   -0.000000,    1.133628]
  Total dipole [Debye]:                                               2.881395
  <r^2> [a.u.]:                        [  60.945403,   23.583039,  365.125805]
  Total <r^2> [a.u.]:                                               449.654248

  V1^2 = 0.9552, V2^2 = 0.0448

  Important amplitudes:
      occ i      occ j       vir a       vir b          v   
    ---------------------------------------------------------
     5 (A1) A               1 (A2) A                  0.6653
     5 (A1) A               2 (A2) A                  0.1823
    ---------------------------------------------------------

  Density matrix analysis:
  ------------------------
  NOs
    Occupation of frontier NOs:
       0.9908   1.0012
    Number of electrons: 18.000000
    Number of unpaired electrons: n_u =  2.41227, n_u,nl =  2.04355
    NO participation ratio (PR_NO):  2.923213
  
  
  Mulliken Population Analysis
  Atom      Charge (e)              h+              e-           Del q
  --------------------------------------------------------------------
   1 C       -0.658083        0.130635       -0.546747       -0.416111
   2 C       -0.658083        0.130635       -0.546747       -0.416111
   3 H        0.083784        0.004611       -0.052636       -0.048025
   4 H        0.083784        0.004611       -0.052636       -0.048025
   5 H        0.074299        0.005322       -0.041186       -0.035864
   6 H        0.074299        0.005322       -0.041186       -0.035864
   7 H        0.000001        1.018771       -0.018771        1.000000
  --------------------------------------------------------------------
  Sum:       -1.000000        1.299908       -1.299908        0.000000
  
  Multipole moment analysis of the density matrix
    Molecular charge:                      -1.000000
    Number of electrons:                   18.000000
      Center of electronic charge [Ang]: [ -0.000000,   0.000000,  -0.033327]
    Total nuclear charge:                  17.000000
      Center of nuclear charge [Ang]:    [  0.000000,   0.000000,  -0.000000]
    Dipole moment [D]:                     2.881394
      Cartesian components [D]:          [  0.000000,  -0.000000,   2.881394]
    RMS size of the density [Ang]:         2.644659
      Cartesian components [Ang]:        [  0.973723,   0.605710,   2.383108]
  
  Exciton analysis of the difference density matrix
    <r_h> [Ang]:                  [  0.000000,   0.000000,   7.251572]
    <r_e> [Ang]:                  [ -0.000000,   0.000000,  -0.426145]
    |<r_e - r_h>| [Ang]:            7.677717
    Hole size [Ang]:                4.303323
      Cartesian components [Ang]: [  0.782124,   0.706436,   4.172267]
    Electron size [Ang]:            2.776404
      Cartesian components [Ang]: [  1.677813,   1.548874,   1.579352]

  Transition density matrix analysis:
  -----------------------------------
  
  CT numbers (Mulliken)
    omega =     0.9390
    <Phe> =     0.0000
  
  Exciton analysis of the transition density matrix
    Trans. dipole moment [D]:             0.000000
      Cartesian components [D]:         [  0.000000,  -0.000000,   0.000000]
    <r_h> [Ang]:                        [  0.000000,   0.000000,   9.411925]
    <r_e> [Ang]:                        [ -0.000000,   0.000000,  -0.588131]
    |<r_e - r_h>| [Ang]:                 10.000056
    Hole size [Ang]:                      1.109877
      Cartesian components [Ang]:       [  0.640782,   0.640782,   0.640799]
    Electron size [Ang]:                  2.631420
      Cartesian components [Ang]:       [  1.770738,   1.682444,   0.978895]
    RMS electron-hole separation [Ang]:  10.399867
      Cartesian components [Ang]:       [  1.883098,   1.800332,  10.068266]
    Covariance(r_h, r_e) [Ang^2]:         0.000040
    Correlation coefficient:              0.000014
    Center-of-mass size [Ang]:            1.427960
      Cartesian components [Ang]:       [  0.941564,   0.900173,   0.584991]

  Decomposition into state-averaged NTOs
    H- 0 -> L+ 0:  0.6028 ( 72.7%)
    H- 0 -> L+ 1: -0.3258 ( 21.2%)
                   omega =  93.9%
  ----------------------------------------------------------------------------


  Excited state 2 (singlet, A2)                                    [converged]
  ----------------------------------------------------------------------------
  Term symbol:  2 (1) A2                                    R^2 =  5.60374e-11

  Total energy:                                            -78.6436690819 a.u.
  Excitation energy:                                               3.899387 eV

  Osc. strength:                                                      0.000000
  Trans. dip. moment [a.u.]:           [  -0.000000,   -0.000000,    0.000000]
  <i|r^2|0> [a.u.]:                    [   0.000000,    0.000000,   -0.000000]

  Dip. moment [a.u.]:                  [   0.000000,    0.000000,    1.132767]
  Total dipole [Debye]:                                               2.879207
  <r^2> [a.u.]:                        [  67.295782,   30.232750,  367.171141]
  Total <r^2> [a.u.]:                                               464.699673

  V1^2 = 0.9573, V2^2 = 0.0427

  Important amplitudes:
      occ i      occ j       vir a       vir b          v   
    ---------------------------------------------------------
     5 (A1) A               2 (A2) A                 -0.6581
     5 (A1) A               1 (A2) A                  0.2029
    ---------------------------------------------------------

  Density matrix analysis:
  ------------------------
  NOs
    Occupation of frontier NOs:
       0.9860   1.0013
    Number of electrons: 18.000000
    Number of unpaired electrons: n_u =  2.42944, n_u,nl =  2.04999
    NO participation ratio (PR_NO):  2.976865
  
  
  Mulliken Population Analysis
  Atom      Charge (e)              h+              e-           Del q
  --------------------------------------------------------------------
   1 C       -0.655915        0.101010       -0.514953       -0.413943
   2 C       -0.655915        0.101010       -0.514953       -0.413943
   3 H        0.082558        0.001058       -0.050309       -0.049251
   4 H        0.082558        0.001058       -0.050309       -0.049251
   5 H        0.073357        0.001850       -0.038656       -0.036806
   6 H        0.073357        0.001850       -0.038656       -0.036806
   7 H        0.000001        1.018930       -0.018929        1.000000
  --------------------------------------------------------------------
  Sum:       -1.000000        1.226765       -1.226765        0.000000
  
  Multipole moment analysis of the density matrix
    Molecular charge:                      -1.000000
    Number of electrons:                   18.000000
      Center of electronic charge [Ang]: [ -0.000000,  -0.000000,  -0.033302]
    Total nuclear charge:                  17.000000
      Center of nuclear charge [Ang]:    [  0.000000,   0.000000,  -0.000000]
    Dipole moment [D]:                     2.879206
      Cartesian components [D]:          [  0.000000,   0.000000,   2.879206]
    RMS size of the density [Ang]:         2.688548
      Cartesian components [Ang]:        [  1.023196,   0.685810,   2.389775]
  
  Exciton analysis of the difference density matrix
    <r_h> [Ang]:                  [  0.000000,   0.000000,   7.720699]
    <r_e> [Ang]:                  [ -0.000000,  -0.000000,  -0.414410]
    |<r_e - r_h>| [Ang]:            8.135109
    Hole size [Ang]:                3.937287
      Cartesian components [Ang]: [  0.746561,   0.671659,   3.807065]
    Electron size [Ang]:            3.375087
      Cartesian components [Ang]: [  2.083659,   1.995561,   1.751375]

  Transition density matrix analysis:
  -----------------------------------
  
  CT numbers (Mulliken)
    omega =     0.9448
    <Phe> =     0.0000
  
  Exciton analysis of the transition density matrix
    Trans. dipole moment [D]:             0.000000
      Cartesian components [D]:         [ -0.000000,  -0.000000,   0.000000]
    <r_h> [Ang]:                        [  0.000000,   0.000000,   9.411925]
    <r_e> [Ang]:                        [ -0.000000,  -0.000000,  -0.588175]
    |<r_e - r_h>| [Ang]:                 10.000100
    Hole size [Ang]:                      1.109891
      Cartesian components [Ang]:       [  0.640790,   0.640790,   0.640807]
    Electron size [Ang]:                  3.389072
      Cartesian components [Ang]:       [  2.244756,   2.197422,   1.272092]
    RMS electron-hole separation [Ang]:  10.616950
      Cartesian components [Ang]:       [  2.334420,   2.288942,  10.101032]
    Covariance(r_h, r_e) [Ang^2]:         0.000020
    Correlation coefficient:              0.000005
    Center-of-mass size [Ang]:            1.783095
      Cartesian components [Ang]:       [  1.167215,   1.144475,   0.712189]

  Decomposition into state-averaged NTOs
    H- 0 -> L+ 1:  0.5928 ( 70.3%)
    H- 0 -> L+ 0:  0.3478 ( 24.2%)
                   omega =  94.5%
  ----------------------------------------------------------------------------


  Excited state 3 (singlet, A2)                                    [converged]
  ----------------------------------------------------------------------------
  Term symbol:  3 (1) A2                                    R^2 =  1.19614e-09

  Total energy:                                            -78.5336880151 a.u.
  Excitation energy:                                               6.892124 eV

  Osc. strength:                                                      0.000000
  Trans. dip. moment [a.u.]:           [  -0.000000,    0.000000,    0.000000]
  <i|r^2|0> [a.u.]:                    [   0.000000,    0.000000,   -0.000000]

  Dip. moment [a.u.]:                  [   0.000000,   -0.000000,   20.836564]
  Total dipole [Debye]:                                              52.961274
  <r^2> [a.u.]:                        [  93.507156,   46.376840,   63.852289]
  Total <r^2> [a.u.]:                                               203.736286

  V1^2 = 0.0000, V2^2 = 1.0000

  Important amplitudes:
      occ i      occ j       vir a       vir b          v   
    ---------------------------------------------------------
     5 (A1) A   5 (A1) B    4 (B1) A    2 (B2) B      0.3536
     5 (A1) A               2 (A2) A                 -0.0000
    ---------------------------------------------------------

  Density matrix analysis:
  ------------------------
  NOs
    Occupation of frontier NOs:
       1.0011   1.0022
    Number of electrons: 18.000000
    Number of unpaired electrons: n_u =  2.40305, n_u,nl =  2.04901
    NO participation ratio (PR_NO):  2.878507
  
  
  Mulliken Population Analysis
  Atom      Charge (e)              h+              e-           Del q
  --------------------------------------------------------------------
   1 C       -1.197224        0.000000       -0.955252       -0.955252
   2 C       -1.197224        0.000000       -0.955252       -0.955252
   3 H        0.118103       -0.000000       -0.013706       -0.013706
   4 H        0.118103       -0.000000       -0.013706       -0.013706
   5 H        0.079121        0.000000       -0.031042       -0.031042
   6 H        0.079121        0.000000       -0.031042       -0.031042
   7 H        1.000000        2.000000       -0.000000        2.000000
  --------------------------------------------------------------------
  Sum:       -1.000000        2.000000       -2.000000        0.000000
  
  Multipole moment analysis of the density matrix
    Molecular charge:                      -1.000000
    Number of electrons:                   18.000000
      Center of electronic charge [Ang]: [ -0.000000,   0.000000,  -0.612569]
    Total nuclear charge:                  17.000000
      Center of nuclear charge [Ang]:    [  0.000000,   0.000000,  -0.000000]
    Dipole moment [D]:                     52.961258
      Cartesian components [D]:          [  0.000000,  -0.000000,  52.961258]
    RMS size of the density [Ang]:         1.671620
      Cartesian components [Ang]:        [  1.206111,   0.849406,   0.786205]
  
  Exciton analysis of the difference density matrix
    <r_h> [Ang]:                  [ -0.000000,   0.000000,   9.411939]
    <r_e> [Ang]:                  [ -0.000000,   0.000000,  -0.791394]
    |<r_e - r_h>| [Ang]:           10.203333
    Hole size [Ang]:                1.111222
      Cartesian components [Ang]: [  0.641559,   0.641559,   0.641575]
    Electron size [Ang]:            3.697973
      Cartesian components [Ang]: [  2.530371,   2.199532,   1.560220]

  Transition density matrix analysis:
  -----------------------------------
  
  CT numbers (Mulliken)
    omega =     0.0000
    <Phe> =     0.0000
  
  Exciton analysis of the transition density matrix
    ... vanishing.

  Decomposition into state-averaged NTOs
                   omega =   0.0%
  ----------------------------------------------------------------------------


  Excited state 4 (singlet, A2)                                    [converged]
  ----------------------------------------------------------------------------
  Term symbol:  4 (1) A2                                    R^2 =  4.89649e-09

  Total energy:                                            -78.5332310387 a.u.
  Excitation energy:                                               6.904559 eV

  Osc. strength:                                                      0.000000
  Trans. dip. moment [a.u.]:           [  -0.000000,    0.000000,    0.000000]
  <i|r^2|0> [a.u.]:                    [   0.000000,    0.000000,   -0.000000]

  Dip. moment [a.u.]:                  [  -0.000000,    0.000000,   21.977551]
  Total dipole [Debye]:                                              55.861373
  <r^2> [a.u.]:                        [  88.644142,   36.006679,   65.640551]
  Total <r^2> [a.u.]:                                               190.291372

  V1^2 = 0.0000, V2^2 = 1.0000

  Important amplitudes:
      occ i      occ j       vir a       vir b          v   
    ---------------------------------------------------------
     5 (A1) A   5 (A1) B    6 (A1) A    1 (A2) B      0.3536
     5 (A1) A               1 (A2) A                  0.0004
    ---------------------------------------------------------

  Density matrix analysis:
  ------------------------
  NOs
    Occupation of frontier NOs:
       1.0022   1.0122
    Number of electrons: 18.000000
    Number of unpaired electrons: n_u =  2.38098, n_u,nl =  2.04535
    NO participation ratio (PR_NO):  2.858576
  
  
  Mulliken Population Analysis
  Atom      Charge (e)              h+              e-           Del q
  --------------------------------------------------------------------
   1 C       -1.303616        0.000000       -1.061644       -1.061644
   2 C       -1.303616        0.000000       -1.061644       -1.061644
   3 H        0.152571       -0.000000        0.020762        0.020762
   4 H        0.152571       -0.000000        0.020762        0.020762
   5 H        0.151046        0.000000        0.040883        0.040883
   6 H        0.151046        0.000000        0.040883        0.040883
   7 H        1.000000        1.999999       -0.000000        1.999999
  --------------------------------------------------------------------
  Sum:       -1.000000        2.000000       -2.000000        0.000000
  
  Multipole moment analysis of the density matrix
    Molecular charge:                      -1.000000
    Number of electrons:                   18.000000
      Center of electronic charge [Ang]: [  0.000000,  -0.000000,  -0.646112]
    Total nuclear charge:                  17.000000
      Center of nuclear charge [Ang]:    [  0.000000,   0.000000,  -0.000000]
    Dipole moment [D]:                     55.861357
      Cartesian components [D]:          [ -0.000000,   0.000000,  55.861357]
    RMS size of the density [Ang]:         1.594656
      Cartesian components [Ang]:        [  1.174329,   0.748439,   0.776993]
  
  Exciton analysis of the difference density matrix
    <r_h> [Ang]:                  [ -0.000000,   0.000000,   9.411940]
    <r_e> [Ang]:                  [  0.000000,  -0.000000,  -1.093287]
    |<r_e - r_h>| [Ang]:           10.505226
    Hole size [Ang]:                1.111221
      Cartesian components [Ang]: [  0.641559,   0.641559,   0.641572]
    Electron size [Ang]:            3.350156
      Cartesian components [Ang]: [  2.392046,   1.840101,   1.454541]

  Transition density matrix analysis:
  -----------------------------------
  
  CT numbers (Mulliken)
    omega =     0.0000
    <Phe> =     0.0000
  
  Exciton analysis of the transition density matrix
    ... vanishing.

  Decomposition into state-averaged NTOs
                   omega =   0.0%
  ----------------------------------------------------------------------------


  Excited state 5 (singlet, A2)                                    [converged]
  ----------------------------------------------------------------------------
  Term symbol:  5 (1) A2                                    R^2 =  6.93125e-09

  Total energy:                                            -78.5212886971 a.u.
  Excitation energy:                                               7.229527 eV

  Osc. strength:                                                      0.000000
  Trans. dip. moment [a.u.]:           [  -0.000000,    0.000000,    0.000000]
  <i|r^2|0> [a.u.]:                    [   0.000000,    0.000000,   -0.000000]

  Dip. moment [a.u.]:                  [  -0.000000,    0.000000,   18.534430]
  Total dipole [Debye]:                                              47.109832
  <r^2> [a.u.]:                        [  80.235384,   35.586599,   67.412230]
  Total <r^2> [a.u.]:                                               183.234213

  V1^2 = 0.0000, V2^2 = 1.0000

  Important amplitudes:
      occ i      occ j       vir a       vir b          v   
    ---------------------------------------------------------
     5 (A1) A   5 (A1) B    7 (A1) A    1 (A2) B     -0.3536
     5 (A1) A               1 (A2) A                  0.0008
    ---------------------------------------------------------

  Density matrix analysis:
  ------------------------
  NOs
    Occupation of frontier NOs:
       1.0018   1.0122
    Number of electrons: 18.000000
    Number of unpaired electrons: n_u =  2.38185, n_u,nl =  2.04537
    NO participation ratio (PR_NO):  2.859455
  
  
  Mulliken Population Analysis
  Atom      Charge (e)              h+              e-           Del q
  --------------------------------------------------------------------
   1 C       -1.238925        0.000000       -0.996953       -0.996953
   2 C       -1.238925        0.000000       -0.996953       -0.996953
   3 H        0.140293        0.000000        0.008484        0.008484
   4 H        0.140293        0.000000        0.008484        0.008484
   5 H        0.098632        0.000000       -0.011531       -0.011531
   6 H        0.098632        0.000000       -0.011531       -0.011531
   7 H        1.000000        1.999999       -0.000000        1.999999
  --------------------------------------------------------------------
  Sum:       -1.000000        1.999999       -1.999999        0.000000
  
  Multipole moment analysis of the density matrix
    Molecular charge:                      -1.000000
    Number of electrons:                   18.000000
      Center of electronic charge [Ang]: [  0.000000,  -0.000000,  -0.544889]
    Total nuclear charge:                  17.000000
      Center of nuclear charge [Ang]:    [  0.000000,   0.000000,  -0.000000]
    Dipole moment [D]:                     47.109818
      Cartesian components [D]:          [ -0.000000,   0.000000,  47.109818]
    RMS size of the density [Ang]:         1.598029
      Cartesian components [Ang]:        [  1.117244,   0.744060,   0.867086]
  
  Exciton analysis of the difference density matrix
    <r_h> [Ang]:                  [ -0.000000,   0.000000,   9.411940]
    <r_e> [Ang]:                  [  0.000000,  -0.000000,  -0.182278]
    |<r_e - r_h>| [Ang]:            9.594218
    Hole size [Ang]:                1.111220
      Cartesian components [Ang]: [  0.641559,   0.641559,   0.641571]
    Electron size [Ang]:            3.376015
      Cartesian components [Ang]: [  2.131793,   1.824049,   1.877707]

  Transition density matrix analysis:
  -----------------------------------
  
  CT numbers (Mulliken)
    omega =     0.0000
    <Phe> =     0.0000
  
  Exciton analysis of the transition density matrix
    ... vanishing.

  Decomposition into state-averaged NTOs
                   omega =   0.0%
  ----------------------------------------------------------------------------


  Excited state 6 (singlet, A2)                                    [converged]
  ----------------------------------------------------------------------------
  Term symbol:  6 (1) A2                                    R^2 =  2.62232e-09

  Total energy:                                            -78.4862880900 a.u.
  Excitation energy:                                               8.181942 eV

  Osc. strength:                                                      0.000000
  Trans. dip. moment [a.u.]:           [   0.000000,    0.000000,   -0.000000]
  <i|r^2|0> [a.u.]:                    [   0.000000,    0.000000,   -0.000000]

  Dip. moment [a.u.]:                  [   0.000000,   -0.000000,  -17.125373]
  Total dipole [Debye]:                                              43.528365
  <r^2> [a.u.]:                        [  75.854587,   18.525549,  684.749083]
  Total <r^2> [a.u.]:                                               779.129219

  V1^2 = 0.9489, V2^2 = 0.0511

  Important amplitudes:
      occ i      occ j       vir a       vir b          v   
    ---------------------------------------------------------
     1 (B2) A               4 (B1) A                  0.6716
     1 (B2) A               8 (B1) A                  0.1229
    ---------------------------------------------------------

  Density matrix analysis:
  ------------------------
  NOs
    Occupation of frontier NOs:
       0.9838   0.9898
    Number of electrons: 18.000000
    Number of unpaired electrons: n_u =  2.32069, n_u,nl =  2.02644
    NO participation ratio (PR_NO):  2.755519
  
  
  Mulliken Population Analysis
  Atom      Charge (e)              h+              e-           Del q
  --------------------------------------------------------------------
   1 C       -0.345642        0.525313       -0.628982       -0.103669
   2 C       -0.345642        0.525313       -0.628982       -0.103669
   3 H        0.187910        0.084203       -0.028102        0.056101
   4 H        0.187910        0.084203       -0.028102        0.056101
   5 H        0.157731        0.095956       -0.048388        0.047568
   6 H        0.157731        0.095956       -0.048388        0.047568
   7 H       -0.999999        0.000203       -0.000203        0.000000
  --------------------------------------------------------------------
  Sum:       -1.000000        1.411146       -1.411146       -0.000000
  
  Multipole moment analysis of the density matrix
    Molecular charge:                      -1.000000
    Number of electrons:                   18.000000
      Center of electronic charge [Ang]: [ -0.000000,   0.000000,   0.503464]
    Total nuclear charge:                  17.000000
      Center of nuclear charge [Ang]:    [  0.000000,   0.000000,  -0.000000]
    Dipole moment [D]:                     43.528352
      Cartesian components [D]:          [  0.000000,  -0.000000, -43.528352]
    RMS size of the density [Ang]:         3.444930
      Cartesian components [Ang]:        [  1.086315,   0.536847,   3.224789]
  
  Exciton analysis of the difference density matrix
    <r_h> [Ang]:                  [  0.000000,  -0.000000,  -0.602186]
    <r_e> [Ang]:                  [ -0.000000,   0.000000,  -0.827588]
    |<r_e - r_h>| [Ang]:            0.225402
    Hole size [Ang]:                1.568457
      Cartesian components [Ang]: [  1.048257,   0.858203,   0.790381]
    Electron size [Ang]:            3.047646
      Cartesian components [Ang]: [  2.467201,   1.217821,   1.310717]

  Transition density matrix analysis:
  -----------------------------------
  
  CT numbers (Mulliken)
    omega =     0.9181
    <Phe> =    -0.0039
  
  Exciton analysis of the transition density matrix
    Trans. dipole moment [D]:             0.000000
      Cartesian components [D]:         [  0.000000,   0.000000,  -0.000000]
    <r_h> [Ang]:                        [  0.000000,  -0.000000,  -0.589291]
    <r_e> [Ang]:                        [ -0.000000,   0.000000,  -0.927369]
    |<r_e - r_h>| [Ang]:                  0.338078
    Hole size [Ang]:                      1.255503
      Cartesian components [Ang]:       [  0.757638,   0.861764,   0.509546]
    Electron size [Ang]:                  3.513279
      Cartesian components [Ang]:       [  2.861431,   1.405304,   1.476638]
    RMS electron-hole separation [Ang]:   3.735998
      Cartesian components [Ang]:       [  2.952411,   1.639779,   1.597522]
    Covariance(r_h, r_e) [Ang^2]:         0.038017
    Correlation coefficient:              0.008619
    Center-of-mass size [Ang]:            1.870525
      Cartesian components [Ang]:       [  1.483819,   0.828577,   0.781411]

  Decomposition into state-averaged NTOs
    H- 1 -> L+ 2: -0.6600 ( 87.1%)
    H- 1 -> L+ 3:  0.1494 (  4.5%)
                   omega =  91.8%
  ----------------------------------------------------------------------------


  Excited state 7 (singlet, A2)                                    [converged]
  ----------------------------------------------------------------------------
  Term symbol:  7 (1) A2                                    R^2 =  1.54260e-10

  Total energy:                                            -78.4839945973 a.u.
  Excitation energy:                                               8.244351 eV

  Osc. strength:                                                      0.000000
  Trans. dip. moment [a.u.]:           [   0.000000,   -0.000000,   -0.000000]
  <i|r^2|0> [a.u.]:                    [  -0.000000,   -0.000000,    0.000000]

  Dip. moment [a.u.]:                  [  -0.000000,   -0.000000,   19.592279]
  Total dipole [Debye]:                                              49.798616
  <r^2> [a.u.]:                        [  81.516191,   45.924930,   75.126705]
  Total <r^2> [a.u.]:                                               202.567826

  V1^2 = 0.0000, V2^2 = 1.0000

  Important amplitudes:
      occ i      occ j       vir a       vir b          v   
    ---------------------------------------------------------
     5 (A1) A   5 (A1) B    5 (B1) A    2 (B2) B     -0.3536
     5 (A1) A               2 (A2) A                  0.0000
    ---------------------------------------------------------

  Density matrix analysis:
  ------------------------
  NOs
    Occupation of frontier NOs:
       1.0013   1.0022
    Number of electrons: 18.000000
    Number of unpaired electrons: n_u =  2.40257, n_u,nl =  2.04897
    NO participation ratio (PR_NO):  2.878031
  
  
  Mulliken Population Analysis
  Atom      Charge (e)              h+              e-           Del q
  --------------------------------------------------------------------
   1 C       -1.179402        0.000000       -0.937430       -0.937430
   2 C       -1.179402        0.000000       -0.937430       -0.937430
   3 H        0.095773       -0.000000       -0.036036       -0.036036
   4 H        0.095773       -0.000000       -0.036036       -0.036036
   5 H        0.083629        0.000000       -0.026534       -0.026534
   6 H        0.083629        0.000000       -0.026534       -0.026534
   7 H        1.000000        2.000000       -0.000000        2.000000
  --------------------------------------------------------------------
  Sum:       -1.000000        2.000000       -2.000000       -0.000000
  
  Multipole moment analysis of the density matrix
    Molecular charge:                      -1.000000
    Number of electrons:                   18.000000
      Center of electronic charge [Ang]: [  0.000000,   0.000000,  -0.575988]
    Total nuclear charge:                  17.000000
      Center of nuclear charge [Ang]:    [  0.000000,   0.000000,  -0.000000]
    Dipole moment [D]:                     49.798602
      Cartesian components [D]:          [ -0.000000,  -0.000000,  49.798602]
    RMS size of the density [Ang]:         1.679171
      Cartesian components [Ang]:        [  1.126126,   0.845258,   0.914874]
  
  Exciton analysis of the difference density matrix
    <r_h> [Ang]:                  [ -0.000000,   0.000000,   9.411939]
    <r_e> [Ang]:                  [  0.000000,   0.000000,  -0.462171]
    |<r_e - r_h>| [Ang]:            9.874110
    Hole size [Ang]:                1.111222
      Cartesian components [Ang]: [  0.641559,   0.641559,   0.641575]
    Electron size [Ang]:            3.731502
      Cartesian components [Ang]: [  2.173447,   2.185101,   2.103703]

  Transition density matrix analysis:
  -----------------------------------
  
  CT numbers (Mulliken)
    omega =     0.0000
    <Phe> =     0.0000
  
  Exciton analysis of the transition density matrix
    ... vanishing.

  Decomposition into state-averaged NTOs
                   omega =   0.0%
  ----------------------------------------------------------------------------


  Excited state 8 (singlet, A2)                                    [converged]
  ----------------------------------------------------------------------------
  Term symbol:  8 (1) A2                                    R^2 =  4.54741e-10

  Total energy:                                            -78.4726493508 a.u.
  Excitation energy:                                               8.553071 eV

  Osc. strength:                                                      0.000000
  Trans. dip. moment [a.u.]:           [   0.000000,   -0.000000,   -0.000000]
  <i|r^2|0> [a.u.]:                    [  -0.000000,   -0.000000,    0.000000]

  Dip. moment [a.u.]:                  [   0.000000,    0.000000,   19.760035]
  Total dipole [Debye]:                                              50.225008
  <r^2> [a.u.]:                        [  78.286851,   38.820619,   58.545014]
  Total <r^2> [a.u.]:                                               175.652484

  V1^2 = 0.0000, V2^2 = 1.0000

  Important amplitudes:
      occ i      occ j       vir a       vir b          v   
    ---------------------------------------------------------
     5 (A1) A   5 (A1) B    8 (A1) A    1 (A2) B      0.3536
     5 (A1) A               1 (A2) A                 -0.0001
    ---------------------------------------------------------

  Density matrix analysis:
  ------------------------
  NOs
    Occupation of frontier NOs:
       1.0020   1.0122
    Number of electrons: 18.000000
    Number of unpaired electrons: n_u =  2.38154, n_u,nl =  2.04540
    NO participation ratio (PR_NO):  2.859159
  
  
  Mulliken Population Analysis
  Atom      Charge (e)              h+              e-           Del q
  --------------------------------------------------------------------
   1 C       -1.319894        0.000000       -1.077923       -1.077922
   2 C       -1.319894        0.000000       -1.077923       -1.077922
   3 H        0.167957       -0.000000        0.036148        0.036148
   4 H        0.167957       -0.000000        0.036148        0.036148
   5 H        0.151937        0.000000        0.041774        0.041774
   6 H        0.151937        0.000000        0.041774        0.041774
   7 H        1.000000        2.000000       -0.000000        2.000000
  --------------------------------------------------------------------
  Sum:       -1.000000        2.000000       -2.000000        0.000000
  
  Multipole moment analysis of the density matrix
    Molecular charge:                      -1.000000
    Number of electrons:                   18.000000
      Center of electronic charge [Ang]: [ -0.000000,  -0.000000,  -0.580920]
    Total nuclear charge:                  17.000000
      Center of nuclear charge [Ang]:    [  0.000000,   0.000000,  -0.000000]
    Dipole moment [D]:                     50.224993
      Cartesian components [D]:          [  0.000000,   0.000000,  50.224993]
    RMS size of the density [Ang]:         1.547638
      Cartesian components [Ang]:        [  1.103594,   0.777134,   0.757182]
  
  Exciton analysis of the difference density matrix
    <r_h> [Ang]:                  [ -0.000000,   0.000000,   9.411939]
    <r_e> [Ang]:                  [ -0.000000,  -0.000000,  -0.506557]
    |<r_e - r_h>| [Ang]:            9.918496
    Hole size [Ang]:                1.111223
      Cartesian components [Ang]: [  0.641559,   0.641559,   0.641576]
    Electron size [Ang]:            3.180027
      Cartesian components [Ang]: [  2.066813,   1.944212,   1.435582]

  Transition density matrix analysis:
  -----------------------------------
  
  CT numbers (Mulliken)
    omega =     0.0000
    <Phe> =     0.0000
  
  Exciton analysis of the transition density matrix
    ... vanishing.

  Decomposition into state-averaged NTOs
                   omega =   0.0%
  ----------------------------------------------------------------------------


  Excited state 9 (singlet, A2)                                    [converged]
  ----------------------------------------------------------------------------
  Term symbol:  9 (1) A2                                    R^2 =  1.47893e-11

  Total energy:                                            -78.4376697460 a.u.
  Excitation energy:                                               9.504914 eV

  Osc. strength:                                                      0.000000
  Trans. dip. moment [a.u.]:           [   0.000000,   -0.000000,   -0.000000]
  <i|r^2|0> [a.u.]:                    [  -0.000000,   -0.000000,    0.000000]

  Dip. moment [a.u.]:                  [  -0.000000,    0.000000,   21.978070]
  Total dipole [Debye]:                                              55.862691
  <r^2> [a.u.]:                        [  85.910126,   33.330406,   64.782726]
  Total <r^2> [a.u.]:                                               184.023257

  V1^2 = 0.0000, V2^2 = 1.0000

  Important amplitudes:
      occ i      occ j       vir a       vir b          v   
    ---------------------------------------------------------
     5 (A1) A   5 (A1) B    6 (A1) A    2 (A2) B      0.3536
     5 (A1) A               2 (A2) A                  0.0003
    ---------------------------------------------------------

  Density matrix analysis:
  ------------------------
  NOs
    Occupation of frontier NOs:
       1.0022   1.0234
    Number of electrons: 18.000000
    Number of unpaired electrons: n_u =  2.35867, n_u,nl =  2.04220
    NO participation ratio (PR_NO):  2.837487
  
  
  Mulliken Population Analysis
  Atom      Charge (e)              h+              e-           Del q
  --------------------------------------------------------------------
   1 C       -1.298345        0.000000       -1.056373       -1.056372
   2 C       -1.298345        0.000000       -1.056373       -1.056372
   3 H        0.149965       -0.000000        0.018156        0.018156
   4 H        0.149965       -0.000000        0.018156        0.018156
   5 H        0.148380        0.000000        0.038217        0.038217
   6 H        0.148380        0.000000        0.038217        0.038217
   7 H        1.000000        1.999999       -0.000000        1.999999
  --------------------------------------------------------------------
  Sum:       -1.000000        2.000000       -2.000000        0.000000
  
  Multipole moment analysis of the density matrix
    Molecular charge:                      -1.000000
    Number of electrons:                   18.000000
      Center of electronic charge [Ang]: [  0.000000,  -0.000000,  -0.646127]
    Total nuclear charge:                  17.000000
      Center of nuclear charge [Ang]:    [  0.000000,   0.000000,  -0.000000]
    Dipole moment [D]:                     55.862675
      Cartesian components [D]:          [ -0.000000,   0.000000,  55.862675]
    RMS size of the density [Ang]:         1.563776
      Cartesian components [Ang]:        [  1.156078,   0.720087,   0.768345]
  
  Exciton analysis of the difference density matrix
    <r_h> [Ang]:                  [ -0.000000,   0.000000,   9.411939]
    <r_e> [Ang]:                  [  0.000000,  -0.000000,  -1.093424]
    |<r_e - r_h>| [Ang]:           10.505363
    Hole size [Ang]:                1.111222
      Cartesian components [Ang]: [  0.641559,   0.641559,   0.641575]
    Electron size [Ang]:            3.216461
      Cartesian components [Ang]: [  2.310646,   1.735296,   1.412545]

  Transition density matrix analysis:
  -----------------------------------
  
  CT numbers (Mulliken)
    omega =     0.0000
    <Phe> =     0.0000
  
  Exciton analysis of the transition density matrix
    ... vanishing.

  Decomposition into state-averaged NTOs
                   omega =   0.0%
  ----------------------------------------------------------------------------


  Excited state 10 (singlet, A2)                                    [converged]
  ----------------------------------------------------------------------------
  Term symbol:  10 (1) A2                                   R^2 =  3.78954e-07

  Total energy:                                            -78.4291072717 a.u.
  Excitation energy:                                               9.737911 eV

  Osc. strength:                                                      0.000000
  Trans. dip. moment [a.u.]:           [   0.000000,    0.000000,    0.000000]
  <i|r^2|0> [a.u.]:                    [   0.000000,    0.000000,    0.000000]

  Dip. moment [a.u.]:                  [   0.000000,   -0.000000,  -18.005971]
  Total dipole [Debye]:                                              45.766623
  <r^2> [a.u.]:                        [  67.409095,   17.879084,  694.023969]
  Total <r^2> [a.u.]:                                               779.312149

  V1^2 = 0.9504, V2^2 = 0.0496

  Important amplitudes:
      occ i      occ j       vir a       vir b          v   
    ---------------------------------------------------------
     1 (B2) A               5 (B1) A                  0.6636
     1 (B2) A               9 (B1) A                  0.1162
    ---------------------------------------------------------

  Density matrix analysis:
  ------------------------
  NOs
    Occupation of frontier NOs:
       0.9534   1.0239
    Number of electrons: 18.000000
    Number of unpaired electrons: n_u =  2.34965, n_u,nl =  2.04847
    NO participation ratio (PR_NO):  2.943006
  
  
  Mulliken Population Analysis
  Atom      Charge (e)              h+              e-           Del q
  --------------------------------------------------------------------
   1 C       -0.330890        0.501548       -0.590466       -0.088918
   2 C       -0.330890        0.501548       -0.590466       -0.088918
   3 H        0.171847        0.094373       -0.054335        0.040038
   4 H        0.171847        0.094373       -0.054335        0.040038
   5 H        0.159042        0.092315       -0.043436        0.048879
   6 H        0.159042        0.092315       -0.043436        0.048879
   7 H       -0.999999        0.000103       -0.000103        0.000000
  --------------------------------------------------------------------
  Sum:       -1.000000        1.376575       -1.376575       -0.000000
  
  Multipole moment analysis of the density matrix
    Molecular charge:                      -1.000000
    Number of electrons:                   18.000000
      Center of electronic charge [Ang]: [ -0.000000,   0.000000,   0.529353]
    Total nuclear charge:                  17.000000
      Center of nuclear charge [Ang]:    [  0.000000,   0.000000,  -0.000000]
    Dipole moment [D]:                     45.766609
      Cartesian components [D]:          [  0.000000,  -0.000000, -45.766609]
    RMS size of the density [Ang]:         3.441461
      Cartesian components [Ang]:        [  1.024057,   0.527397,   3.242964]
  
  Exciton analysis of the difference density matrix
    <r_h> [Ang]:                  [  0.000000,  -0.000000,  -0.584850]
    <r_e> [Ang]:                  [  0.000000,   0.000000,  -0.477397]
    |<r_e - r_h>| [Ang]:            0.107453
    Hole size [Ang]:                1.585105
      Cartesian components [Ang]: [  1.055920,   0.861269,   0.809820]
    Electron size [Ang]:            3.161305
      Cartesian components [Ang]: [  2.123785,   1.172861,   2.026767]

  Transition density matrix analysis:
  -----------------------------------
  
  CT numbers (Mulliken)
    omega =     0.9195
    <Phe> =    -0.0016
  
  Exciton analysis of the transition density matrix
    Trans. dipole moment [D]:             0.000000
      Cartesian components [D]:         [  0.000000,   0.000000,   0.000000]
    <r_h> [Ang]:                        [  0.000000,  -0.000000,  -0.586309]
    <r_e> [Ang]:                        [  0.000000,   0.000000,  -0.433787]
    |<r_e - r_h>| [Ang]:                  0.152522
    Hole size [Ang]:                      1.256378
      Cartesian components [Ang]:       [  0.771931,   0.848229,   0.512949]
    Electron size [Ang]:                  3.607354
      Cartesian components [Ang]:       [  2.412238,   1.330953,   2.328664]
    RMS electron-hole separation [Ang]:   3.819513
      Cartesian components [Ang]:       [  2.528233,   1.577835,   2.388964]
    Covariance(r_h, r_e) [Ang^2]:         0.013036
    Correlation coefficient:              0.002876
    Center-of-mass size [Ang]:            1.911646
      Cartesian components [Ang]:       [  1.268618,   0.789350,   1.192444]

  Decomposition into state-averaged NTOs
    H- 1 -> L+ 3:  0.6456 ( 83.4%)
    H- 1 -> L+ 2:  0.1527 (  4.7%)
    H- 2 -> L+ 1: -0.1113 (  2.5%)
    H- 2 -> L+ 0:  0.0834 (  1.4%)
                   omega =  91.9%
  ----------------------------------------------------------------------------


--------------------------------------------------------------------------------
  Time of ADC calculation:  CPU 229.79 s  wall 64.34 s
================================================================================
 
 --------------------------------------------------------------
             Orbital Energies (a.u.) and Symmetries
 --------------------------------------------------------------
 
 Alpha MOs, Restricted
 -- Occupied --                  
-11.184 -11.182  -0.989  -0.729  -0.607  -0.514  -0.462  -0.324
  1 A1    1 B1    2 A1    2 B1    3 A1    4 A1    3 B1    1 B2                 
  0.022
  5 A1                                                                         
 -- Virtual --                   
  0.137   0.141   0.153   0.156   0.160   0.186   0.202   0.251
  4 B1    6 A1    7 A1    1 A2    2 B2    5 B1    8 A1    2 A2                 
  0.269   0.315   0.379   0.393   0.410   0.436   0.439   0.454
  6 B1    9 A1   10 A1    7 B1    8 B1   11 A1   12 A1    3 B2                 
  0.475   0.540   0.599   0.672   0.892   0.902   0.981   1.044
  9 B1    3 A2   10 B1   11 B1   13 A1   14 A1   12 B1   15 A1                 
  1.058   1.085   1.150   1.167   1.176   1.202   1.240   1.291
 16 A1   13 B1   17 A1    4 B2   18 A1   14 B1    5 B2    4 A2                 
  1.337   1.352   1.390   1.538   1.679   1.793   1.805   1.933
  5 A2    6 B2   15 B1   16 B1   19 A1   20 A1   17 B1    6 A2                 
  1.967   1.967   1.967   1.998   2.024   2.070   2.142   2.157
 21 A1   18 B1    7 B2    8 B2   19 B1    9 B2   22 A1   23 A1                 
  2.237   2.387   2.465   2.533   2.610   2.635   2.918   2.922
  7 A2   20 B1    8 A2   24 A1   21 B1   22 B1   25 A1   26 A1                 
  3.339   3.404
 23 B1   24 B1                                                                 
 
 Beta MOs, Restricted
 -- Occupied --                  
-11.184 -11.182  -0.989  -0.729  -0.607  -0.514  -0.462  -0.324
  1 A1    1 B1    2 A1    2 B1    3 A1    4 A1    3 B1    1 B2                 
  0.022
  5 A1                                                                         
 -- Virtual --                   
  0.137   0.141   0.153   0.156   0.160   0.186   0.202   0.251
  4 B1    6 A1    7 A1    1 A2    2 B2    5 B1    8 A1    2 A2                 
  0.269   0.315   0.379   0.393   0.410   0.436   0.439   0.454
  6 B1    9 A1   10 A1    7 B1    8 B1   11 A1   12 A1    3 B2                 
  0.475   0.540   0.599   0.672   0.892   0.902   0.981   1.044
  9 B1    3 A2   10 B1   11 B1   13 A1   14 A1   12 B1   15 A1                 
  1.058   1.085   1.150   1.167   1.176   1.202   1.240   1.291
 16 A1   13 B1   17 A1    4 B2   18 A1   14 B1    5 B2    4 A2                 
  1.337   1.352   1.390   1.538   1.679   1.793   1.805   1.933
  5 A2    6 B2   15 B1   16 B1   19 A1   20 A1   17 B1    6 A2                 
  1.967   1.967   1.967   1.998   2.024   2.070   2.142   2.157
 21 A1   18 B1    7 B2    8 B2   19 B1    9 B2   22 A1   23 A1                 
  2.237   2.387   2.465   2.533   2.610   2.635   2.918   2.922
  7 A2   20 B1    8 A2   24 A1   21 B1   22 B1   25 A1   26 A1                 
  3.339   3.404
 23 B1   24 B1                                                                 
 --------------------------------------------------------------
 
          Ground-State Mulliken Net Atomic Charges

     Atom                 Charge (a.u.)
  ----------------------------------------
      1 C                    -0.226078
      2 C                    -0.226078
      3 H                     0.123876
      4 H                     0.123876
      5 H                     0.102201
      6 H                     0.102201
      7 H                    -1.000000
  ----------------------------------------
  Sum of atomic charges =    -1.000000

 -----------------------------------------------------------------
                    Cartesian Multipole Moments
 -----------------------------------------------------------------
    Charge (ESU x 10^10)
                -4.8032
    Dipole Moment (Debye)
         X       0.0000      Y      -0.0000      Z     -45.0579
       Tot      45.0579
    Quadrupole Moments (Debye-Ang)
        XX     -16.8694     XY       0.0000     YY     -20.1165
        XZ      -0.0000     YZ      -0.0000     ZZ    -441.5557
    Octopole Moments (Debye-Ang^2)
       XXX       0.0000    XXY      -0.0000    XYY       0.0000
       YYY       0.0000    XXZ     -29.3628    XYZ      -0.0000
       YYZ     -27.6499    XZZ       0.0000    YZZ      -0.0000
       ZZZ   -4094.7146
    Hexadecapole Moments (Debye-Ang^3)
      XXXX     -73.9099   XXXY       0.0000   XXYY     -17.6228
      XYYY       0.0000   YYYY     -27.7059   XXXZ      -0.0000
      XXYZ      -0.0000   XYYZ      -0.0000   YYYZ      -0.0000
      XXZZ    -370.1094   XYZZ       0.0000   YYZZ    -366.9217
      XZZZ      -0.0000   YZZZ      -0.0000   ZZZZ  -39851.6446
 -----------------------------------------------------------------
 Total job time:  145.07s(wall), 273.38s(cpu) 
 Thu Feb 17 16:16:06 2022

        *************************************************************
        *                                                           *
        *  Thank you very much for using Q-Chem.  Have a nice day.  *
        *                                                           *
        *************************************************************


