/src/tsommerfeld/qchem/exe/qcprog.exe .input2.248485.5933.qcin.1 /src/jdavis/qchem.scratch/qchem5933/

                  Welcome to Q-Chem
     A Quantum Leap Into The Future Of Chemistry


 Q-Chem 5.4 (devel), Q-Chem, Inc., Pleasanton, CA (2021)

 E. Epifanovsky,  A. T. B. Gilbert,  Xintian Feng,  Joonho Lee,  Yuezhi Mao,  
 N. Mardirossian,  P. Pokhilko,  A. White,  M. Wormit,  M. P. Coons,  
 A. L. Dempwolff,  Zhengting Gan,  D. Hait,  P. R. Horn,  L. D. Jacobson,  
 I. Kaliman,  J. Kussmann,  A. W. Lange,  Ka Un Lao,  D. S. Levine,  Jie Liu,  
 S. C. McKenzie,  A. F. Morrison,  K. Nanda,  F. Plasser,  D. R. Rehn,  
 M. L. Vidal,  Zhi-Qiang You,  Ying Zhu,  B. Alam,  B. Albrecht,  
 A. Aldossary,  E. Alguire,  J. H. Andersen,  D. Barton,  K. Begam,  A. Behn,  
 Y. A. Bernard,  E. J. Berquist,  H. Burton,  A. Carreras,  K. Carter-Fenk,  
 R. Chakraborty,  A. D. Chien,  K. D. Closser,  V. Cofer-Shabica,  
 S. Dasgupta,  Jia Deng,  M. de Wergifosse,  M. Diedenhofen,  Hainam Do,  
 S. Ehlert,  Po-Tung Fang,  S. Fatehi,  Qingguo Feng,  T. Friedhoff,  
 J. Gayvert,  Qinghui Ge,  G. Gidofalvi,  M. Goldey,  J. Gomes,  
 C. Gonzalez-Espinoza,  S. Gulania,  A. Gunina,  M. W. D. Hanson-Heine,  
 P. H. P. Harbach,  A. W. Hauser,  M. F. Herbst,  M. Hernandez Vera,  
 M. Hodecker,  Z. C. Holden,  S. Houck,  Xunkun Huang,  Kerwin Hui,  
 B. C. Huynh,  M. Ivanov,  Hyunjun Ji,  Hanjie Jiang,  B. Kaduk,  S. Kaehler,  
 K. Khistyaev,  Jaehoon Kim,  P. Klunzinger,  Z. Koczor-Benda,  
 Joong Hoon Koh,  D. Kosenkov,  L. Koulias,  T. Kowalczyk,  C. M. Krauter,  
 K. Kue,  A. Kunitsa,  T. Kus,  A. Landau,  K. V. Lawler,  D. Lefrancois,  
 S. Lehtola,  Rain Li,  Yi-Pei Li,  Jiashu Liang,  M. Liebenthal,  
 Hung-Hsuan Lin,  You-Sheng Lin,  Fenglai Liu,  Kuan-Yu Liu,  
 M. Loipersberger,  A. Luenser,  A. Manjanath,  P. Manohar,  E. Mansoor,  
 S. F. Manzer,  Shan-Ping Mao,  A. V. Marenich,  T. Markovich,  S. Mason,  
 S. A. Maurer,  P. F. McLaughlin,  M. F. S. J. Menger,  J.-M. Mewes,  
 S. A. Mewes,  P. Morgante,  J. W. Mullinax,  K. J. Oosterbaan,  G. Paran,  
 Alexander C. Paul,  Suranjan K. Paul,  F. Pavosevic,  Zheng Pei,  S. Prager,  
 E. I. Proynov,  E. Ramos,  B. Rana,  A. E. Rask,  A. Rettig,  R. M. Richard,  
 F. Rob,  E. Rossomme,  T. Scheele,  M. Scheurer,  M. Schneider,  
 N. Sergueev,  S. M. Sharada,  W. Skomorowski,  D. W. Small,  C. J. Stein,  
 Yu-Chuan Su,  E. J. Sundstrom,  Zhen Tao,  J. Thirman,  T. Tsuchimochi,  
 N. M. Tubman,  S. P. Veccham,  O. Vydrov,  J. Wenzel,  J. Witte,  A. Yamada,  
 Kun Yao,  S. Yeganeh,  S. R. Yost,  A. Zech,  Igor Ying Zhang,  Xing Zhang,  
 Yu Zhang,  D. Zuev,  A. Aspuru-Guzik,  A. T. Bell,  N. A. Besley,  
 K. B. Bravaya,  B. R. Brooks,  D. Casanova,  Jeng-Da Chai,  S. Coriani,  
 C. J. Cramer,  A. E. DePrince, III,  R. A. DiStasio Jr.,  A. Dreuw,  
 B. D. Dunietz,  T. R. Furlani,  W. A. Goddard III,  S. Grimme,  
 S. Hammes-Schiffer,  T. Head-Gordon,  W. J. Hehre,  Chao-Ping Hsu,  
 T.-C. Jagau,  Yousung Jung,  A. Klamt,  Jing Kong,  D. S. Lambrecht,  
 WanZhen Liang,  N. J. Mayhall,  C. W. McCurdy,  J. B. Neaton,  
 C. Ochsenfeld,  J. A. Parkhill,  R. Peverati,  V. A. Rassolov,  Yihan Shao,  
 L. V. Slipchenko,  T. Stauch,  R. P. Steele,  J. E. Subotnik,  
 A. J. W. Thom,  A. Tkatchenko,  D. G. Truhlar,  T. Van Voorhis,  
 T. A. Wesolowski,  K. B. Whaley,  H. L. Woodcock III,  P. M. Zimmerman,  
 S. Faraji,  P. M. W. Gill,  M. Head-Gordon,  J. M. Herbert,  A. I. Krylov

 Additional authors for Version 5.4.1: 
 S. Kotaru,  Shaozhi Li,  Xiangyuan Li,  F. Matz,  A. Molle,  Haisheng Ren,  
 Yingli Su,  Hung-Yi Tsai,  C. Utku,  Fang Wang

 Contributors to earlier versions of Q-Chem not listed above: 
 R. D. Adamson,  B. Austin,  R. Baer,  J. Baker,  G. J. O. Beran,  
 K. Brandhorst,  S. T. Brown,  E. F. C. Byrd,  A. K. Chakraborty,  
 G. K. L. Chan,  Chun-Min Chang,  Yunqing Chen,  C.-L. Cheng,  
 Siu Hung Chien,  D. M. Chipman,  D. L. Crittenden,  H. Dachsel,  
 R. J. Doerksen,  A. D. Dutoi,  R. G. Edgar,  J. Fosso-Tande,  
 L. Fusti-Molnar,  D. Ghosh,  A. Ghysels,  A. Golubeva-Zadorozhnaya,  
 J. Gonthier,  M. S. Gordon,  S. R. Gwaltney,  G. Hawkins,  J. E. Herr,  
 A. Heyden,  S. Hirata,  E. G. Hohenstein,  G. Kedziora,  F. J. Keil,  
 C. Kelley,  Jihan Kim,  R. A. King,  R. Z. Khaliullin,  P. P. Korambath,  
 W. Kurlancheek,  A. Laurent,  A. M. Lee,  M. S. Lee,  S. V. Levchenko,  
 Ching Yeh Lin,  D. Liotard,  E. Livshits,  R. C. Lochan,  I. Lotan,  
 L. A. Martinez-Martinez,  P. E. Maslen,  N. Nair,  D. P. O'Neill,  
 D. Neuhauser,  E. Neuscamman,  C. M. Oana,  R. Olivares-Amaya,  R. Olson,  
 T. M. Perrine,  B. Peters,  P. A. Pieniazek,  A. Prociuk,  Y. M. Rhee,  
 J. Ritchie,  M. A. Rohrdanz,  E. Rosta,  N. J. Russ,  H. F. Schaefer III,  
 M. W. Schmidt,  N. E. Schultz,  S. Sharma,  N. Shenvi,  C. D. Sherrill,  
 A. C. Simmonett,  A. Sodt,  T. Stein,  D. Stuck,  K. S. Thanthiriwatte,  
 V. Vanovschi,  L. Vogt,  Tao Wang,  A. Warshel,  M. A. Watson,  
 C. F. Williams,  Q. Wu,  X. Xu,  Jun Yang,  W. Zhang,  Yan Zhao

 Please cite Q-Chem as follows:
 Y. Shao et al., Mol. Phys. 113, 184-215 (2015)
 DOI: 10.1080/00268976.2014.952696

 Q-Chem 5.4.1 for Intel X86 EM64T Linux

 Parts of Q-Chem use Armadillo 9.900.5 (Nocturnal Misbehaviour).
 http://arma.sourceforge.net/

 Q-Chem begins on Thu Mar  3 17:08:29 2022  

 Host: node01
0

     Scratch files written to /src/jdavis/qchem.scratch/qchem5933//
 Processing $rem in /src/tsommerfeld/qchem/config/preferences:
 Processing $rem in /home/jdavis/.qchemrc:

 Checking the input file for inconsistencies... 	...done.

--------------------------------------------------------------
User input:
--------------------------------------------------------------
$molecule
-1 1
C        -0.6645000000    0.0000000000    1.1619088658
C         0.6645000000    0.0000000000    1.1619088658
H        -1.1590800000    0.0000000000    0.1995598658
H         1.1590800000    0.0000000000    0.1995598658
H        -1.1590800000    0.0000000000    2.1242568658
H         1.1590800000    0.0000000000    2.1242568658
O         0.0000000000    0.0000000000   -3.84
H         0.0000000000    0.0000000000   -4.81
$end
$rem
   METHOD adc(2)
   BASIS gen
   PURECART 11
   EE_STATES [0,0,0,10]
   scf_convergence 8
   ADC_DAVIDSON_MAXITER 120
   ADC_DAVIDSON_MAXSUBSPACE 200
   adc_nguess_singles 100
   THRESH 14
   S2THRESH 14
   adc_davidson_conv 5
   adc_davidson_thresh 14
   THREADS 10
   MEM_TOTAL 95000
   STATE_ANALYSIS TRUE
$end
$basis
C 1
S   9   1.00
      6.665000D+03           6.920000D-04
      1.000000D+03           5.329000D-03
      2.280000D+02           2.707700D-02
      6.471000D+01           1.017180D-01
      2.106000D+01           2.747400D-01
      7.495000D+00           4.485640D-01
      2.797000D+00           2.850740D-01
      5.215000D-01           1.520400D-02
      1.596000D-01          -3.191000D-03
S   9   1.00
      6.665000D+03          -1.460000D-04
      1.000000D+03          -1.154000D-03
      2.280000D+02          -5.725000D-03
      6.471000D+01          -2.331200D-02
      2.106000D+01          -6.395500D-02
      7.495000D+00          -1.499810D-01
      2.797000D+00          -1.272620D-01
      5.215000D-01           5.445290D-01
      1.596000D-01           5.804960D-01
S   1   1.00
      1.596000D-01           1.000000D+00
S   1   1.00
      0.0469000              1.0000000
P   4   1.00
      9.439000D+00           3.810900D-02
      2.002000D+00           2.094800D-01
      5.456000D-01           5.085570D-01
      1.517000D-01           4.688420D-01
P   1   1.00
      1.517000D-01           1.000000D+00
P   1   1.00
      0.0974558      1.0000000
P   1   1.00
      0.0487279      1.0000000
D   1   1.00
      5.500000D-01           1.0000000
****
C 2
S   9   1.00
      6.665000D+03           6.920000D-04
      1.000000D+03           5.329000D-03
      2.280000D+02           2.707700D-02
      6.471000D+01           1.017180D-01
      2.106000D+01           2.747400D-01
      7.495000D+00           4.485640D-01
      2.797000D+00           2.850740D-01
      5.215000D-01           1.520400D-02
      1.596000D-01          -3.191000D-03
S   9   1.00
      6.665000D+03          -1.460000D-04
      1.000000D+03          -1.154000D-03
      2.280000D+02          -5.725000D-03
      6.471000D+01          -2.331200D-02
      2.106000D+01          -6.395500D-02
      7.495000D+00          -1.499810D-01
      2.797000D+00          -1.272620D-01
      5.215000D-01           5.445290D-01
      1.596000D-01           5.804960D-01
S   1   1.00
      1.596000D-01           1.000000D+00
S   1   1.00
      0.0469000              1.0000000
P   4   1.00
      9.439000D+00           3.810900D-02
      2.002000D+00           2.094800D-01
      5.456000D-01           5.085570D-01
      1.517000D-01           4.688420D-01
P   1   1.00
      1.517000D-01           1.000000D+00
P   1   1.00
      0.0974558      1.0000000
P   1   1.00
      0.0487279      1.0000000
D   1   1.00
      5.500000D-01           1.0000000
****
H 3
cc-pVDZ
****
H 4
cc-pVDZ
****
H 5
cc-pVDZ
****
H 6
cc-pVDZ
****
O 7
aug-cc-pVDZ
****
H 8
cc-pVDZ
****
$end
--------------------------------------------------------------
 ----------------------------------------------------------------
             Standard Nuclear Orientation (Angstroms)
    I     Atom           X                Y                Z
 ----------------------------------------------------------------
    1      C      -0.6645000000     0.0000000000     1.8394872717
    2      C       0.6645000000    -0.0000000000     1.8394872717
    3      H      -1.1590800000     0.0000000000     0.8771382717
    4      H       1.1590800000    -0.0000000000     0.8771382717
    5      H      -1.1590800000     0.0000000000     2.8018352717
    6      H       1.1590800000    -0.0000000000     2.8018352717
    7      O      -0.0000000000     0.0000000000    -3.1624215941
    8      H      -0.0000000000     0.0000000000    -4.1324215941
 ----------------------------------------------------------------
 Molecular Point Group                 C2v   NOp =  4
 Largest Abelian Subgroup              C2v   NOp =  4
 Nuclear Repulsion Energy =          52.84282358 hartrees
 There are       13 alpha and       13 beta electrons
 Requested basis set is non-standard
 There are 42 shells and 90 basis functions
 Total memory of 95000 MB is distributed as follows: 
   MEM_STATIC is set to 192 MB
   QALLOC/CCMAN JOB total memory use is  94808 MB
 Warning: actual memory use might exceed 95000 MB

 Total QAlloc Memory Limit  95000 MB
 Mega-Array Size       188 MB
 MEM_STATIC part       192 MB

                       Distance Matrix (Angstroms)
             C (  1)   C (  2)   H (  3)   H (  4)   H (  5)   H (  6)
   C (  2)  1.329000
   H (  3)  1.082000  2.061931
   H (  4)  2.061931  1.082000  2.318160
   H (  5)  1.082000  2.061931  1.924697  3.013026
   H (  6)  2.061931  1.082000  3.013026  1.924697  2.318160
   O (  7)  5.045855  5.045855  4.202560  4.202560  6.075840  6.075840
   H (  8)  6.008765  6.008765  5.141902  5.141902  7.030461  7.030461
             O (  7)
   H (  8)  0.970000
 
 A cutoff of  1.0D-14 yielded    865 shell pairs
 There are      3913 function pairs (      4255 Cartesian)
 Smallest overlap matrix eigenvalue = 1.69E-04

 Scale SEOQF with 1.000000e-01/1.000000e-01/1.000000e-01

 Standard Electronic Orientation quadrupole field applied
 Nucleus-field energy     =    -0.0000000162 hartrees
 ================ Generating on-the-fly SAD Guess ================
Attempting to make child job directory: /src/jdavis/qchem.scratch/qchem5933//Frg1/
Attempting to make child job directory: /src/jdavis/qchem.scratch/qchem5933//Frg2/
Attempting to make child job directory: /src/jdavis/qchem.scratch/qchem5933//Frg3/
Creating input file /src/jdavis/qchem.scratch/qchem5933/Frg1.input
using default PutDataFrgm: nothing
calling putenv with: QCSCRATCH=/src/jdavis/qchem.scratch/qchem5933/ 
Spawning Job For Fragment 0
Done Job For Fragment 0
calling putenv with: QCSCRATCH=/src/jdavis/qchem.scratch 
calling putenv with: QCTHREADS=1 
Creating input file /src/jdavis/qchem.scratch/qchem5933/Frg2.input
using default PutDataFrgm: nothing
calling putenv with: QCSCRATCH=/src/jdavis/qchem.scratch/qchem5933/ 
Spawning Job For Fragment 1
Done Job For Fragment 1
calling putenv with: QCSCRATCH=/src/jdavis/qchem.scratch 
calling putenv with: QCTHREADS=1 
Creating input file /src/jdavis/qchem.scratch/qchem5933/Frg3.input
using default PutDataFrgm: nothing
calling putenv with: QCSCRATCH=/src/jdavis/qchem.scratch/qchem5933/ 
Spawning Job For Fragment 2
Done Job For Fragment 2
calling putenv with: QCSCRATCH=/src/jdavis/qchem.scratch 
calling putenv with: QCTHREADS=1 
 Time for running child jobs:  CPU 1.77 s  wall 80.60 s
 ============= Method Specific SAD Guess Constructed =============
 Guess from on-the-fly superposition of atomic densities
 Warning: Energy on first SCF cycle will be non-variational
 A restricted Hartree-Fock SCF calculation will be
 performed using Pulay DIIS extrapolation
 SCF converges when DIIS error is below 1.0E-08
 using 10 threads for integral computing
 -------------------------------------------------------
 OpenMP Integral computing Module                
 Release: version 1.0, May 2013, Q-Chem Inc. Pittsburgh 
 -------------------------------------------------------
 ---------------------------------------
  Cycle       Energy         DIIS Error
 ---------------------------------------
    1    -153.5117650746      5.93E-02
    2    -153.2846023347      1.22E-02
    3    -153.3473291181      1.06E-02
    4    -153.4356237357      6.58E-04
    5    -153.4363992247      1.87E-04
    6    -153.4364504686      3.97E-05
    7    -153.4364534563      9.99E-06
    8    -153.4364537876      2.85E-06
    9    -153.4364538129      4.67E-07
   10    -153.4364538135      7.04E-08
   11    -153.4364538135      2.02E-08
   12    -153.4364538135      7.13E-09 Convergence criterion met
 ---------------------------------------
 SCF time:  CPU 13.16 s  wall 1.32 s
 SCF   energy in the final basis set = -153.43645381
 Total energy in the final basis set = -153.43645381
================================================================================
|                                                                              |
|                                 A D C  M A N                                 |
|                                                                              |
 ------------------------------------------------------------------------------ 
|                                                                              |
| Components:                                                                  |
|                                                                              |
| - libvmm - 1.3-trunk                                                         |
|   Authors:                                                                   |
|   Evgeny Epifanovsky, Ilya Kaliman                                           |
|                                                                              |
| - libtensor - 2.5-trunk                                                      |
|   Authors:                                                                   |
|   Evgeny Epifanovsky, Michael Wormit, Dmitry Zuev, Sam Manzer,               |
|   Ilya Kaliman                                                               |
|                                                                              |
| - libwfa - 1.1-trunk                                                         |
|   Authors:                                                                   |
|   Felix Plasser, Stefanie Mewes (Baeppler), Benjamin Thomitzni,              |
|   Michael Wormit, Feng Chen, Anna I. Krylov, Pavel Pokhilko                  |
|                                                                              |
| - libadc - 1.1-trunk                                                         |
|   Authors:                                                                   |
|   Michael Wormit, Adrian L. Dempwolff, Philipp H. P. Harbach,                |
|   Caroline Krauter, Dirk Rehn, Matthias Schneider, Jan Wenzel                |
|                                                                              |
| - adcman - 2.6-trunk                                                         |
|   Authors:                                                                   |
|   Michael Wormit, Adrian L. Dempwolff, Philipp H. P. Harbach,                |
|   Caroline Krauter, Daniel Lefrancois, Jan-Michael Mewes, Dirk Rehn,         |
|   Matthias Schneider, Jan Wenzel, Andreas Dreuw                              |
|                                                                              |
| Authors of earlier versions of ADCMAN:                                       |
| Andreas Dreuw, Jan Hendrik Starcke, Dirk Rehn, Michael Wormit                |
|                                                                              |
================================================================================

 
 Alpha MOs, Restricted
 -- Occupied --                  
-20.203 -11.129 -11.127  -0.934  -0.908  -0.674  -0.551  -0.460
  1 A1    2 A1    1 B1    3 A1    4 A1    2 B1    5 A1    6 A1                 
 -0.406  -0.270  -0.256  -0.112  -0.112
  3 B1    1 B2    7 A1    2 B2    4 B1                                         
 -- Virtual --                   
  0.177   0.182   0.204   0.212   0.215   0.248   0.269   0.306
  8 A1    5 B1    1 A2    3 B2    9 A1    6 B1   10 A1    2 A2                 
  0.321   0.351   0.388   0.435   0.442   0.443   0.458   0.480
  7 B1   11 A1   12 A1    8 B1   13 A1    4 B2    9 B1   10 B1                 
  0.495   0.499   0.523   0.537   0.553   0.594   0.607   0.657
 14 A1   15 A1    5 B2   16 A1   11 B1   17 A1    3 A2   12 B1                 
  0.728   0.943   0.965   1.031   1.131   1.153   1.190   1.222
 13 B1   18 A1   19 A1   14 B1   20 A1   15 B1   21 A1    6 B2                 
  1.239   1.251   1.265   1.272   1.281   1.317   1.319   1.320
 22 A1   16 B1    7 B2   23 A1   17 B1    8 B2    4 A2   24 A1                 
  1.372   1.393   1.412   1.474   1.542   1.604   1.726   1.734
  5 A2    6 A2    9 B2   18 B1   25 A1   19 B1   10 B2   20 B1                 
  1.736   1.853   1.892   1.990   2.023   2.053   2.085   2.127
 26 A1   27 A1   21 B1    7 A2   28 A1   11 B2   22 B1   12 B2                 
  2.204   2.216   2.293   2.373   2.376   2.439   2.521   2.533
 29 A1   30 A1    8 A2   13 B2   23 B1   24 B1    9 A2   31 A1                 
  2.599   2.662   2.694   2.985   2.998   3.034   3.408   3.465
 32 A1   25 B1   26 B1   33 A1   34 A1   35 A1   27 B1   28 B1                 
  3.926   3.929   3.955   3.955   4.399
 14 B2   29 B1   36 A1   10 A2   37 A1                                         
 
 Beta MOs, Restricted
 -- Occupied --                  
-20.203 -11.129 -11.127  -0.934  -0.908  -0.674  -0.551  -0.460
  1 A1    2 A1    1 B1    3 A1    4 A1    2 B1    5 A1    6 A1                 
 -0.406  -0.270  -0.256  -0.112  -0.112
  3 B1    1 B2    7 A1    2 B2    4 B1                                         
 -- Virtual --                   
  0.177   0.182   0.204   0.212   0.215   0.248   0.269   0.306
  8 A1    5 B1    1 A2    3 B2    9 A1    6 B1   10 A1    2 A2                 
  0.321   0.351   0.388   0.435   0.442   0.443   0.458   0.480
  7 B1   11 A1   12 A1    8 B1   13 A1    4 B2    9 B1   10 B1                 
  0.495   0.499   0.523   0.537   0.553   0.594   0.607   0.657
 14 A1   15 A1    5 B2   16 A1   11 B1   17 A1    3 A2   12 B1                 
  0.728   0.943   0.965   1.031   1.131   1.153   1.190   1.222
 13 B1   18 A1   19 A1   14 B1   20 A1   15 B1   21 A1    6 B2                 
  1.239   1.251   1.265   1.272   1.281   1.317   1.319   1.320
 22 A1   16 B1    7 B2   23 A1   17 B1    8 B2    4 A2   24 A1                 
  1.372   1.393   1.412   1.474   1.542   1.604   1.726   1.734
  5 A2    6 A2    9 B2   18 B1   25 A1   19 B1   10 B2   20 B1                 
  1.736   1.853   1.892   1.990   2.023   2.053   2.085   2.127
 26 A1   27 A1   21 B1    7 A2   28 A1   11 B2   22 B1   12 B2                 
  2.204   2.216   2.293   2.373   2.376   2.439   2.521   2.533
 29 A1   30 A1    8 A2   13 B2   23 B1   24 B1    9 A2   31 A1                 
  2.599   2.662   2.694   2.985   2.998   3.034   3.408   3.465
 32 A1   25 B1   26 B1   33 A1   34 A1   35 A1   27 B1   28 B1                 
  3.926   3.929   3.955   3.955   4.399
 14 B2   29 B1   36 A1   10 A2   37 A1                                         

--------------------------------------------------------------------------------
                                   HF Summary                                   
--------------------------------------------------------------------------------
  Energy:                                                 -153.4364538135 a.u.
  Dip. moment [a.u.]:                  [   0.000000,   -0.000000,    5.259230]
  Total dipole [Debye]:                                              13.367631
  <r^2> [a.u.]:                        [  55.321759,   19.584670,  599.171074]
  Total <r^2> [a.u.]:                                               674.077504
--------------------------------------------------------------------------------

--------------------------------------------------------------------------------
                                 MP(2) Summary                                  
--------------------------------------------------------------------------------
  MP energy contribution:                                   -0.5263531351 a.u.
  Total energy:                                           -153.9628069487 a.u.
  Dip. moment [a.u.]:                  [  -0.000000,   -0.000000,    5.295810]
  Total dipole [Debye]:                                              13.460609
  <r^2> [a.u.]:                        [  56.281314,   20.282258,  600.350127]
  Total <r^2> [a.u.]:                                               676.913699

  Density matrix analysis:
  ------------------------
  NOs
    Occupation of frontier NOs:
       0.0447   1.9369
    Number of electrons: 26.000000
    Number of unpaired electrons: n_u =  0.71469, n_u,nl =  0.08556
    NO participation ratio (PR_NO): 22.924820
  
  
  Mulliken Population Analysis
  Atom      Charge (e)              h+              e-           Del q
  --------------------------------------------------------------------
   1 C       -0.263538        0.086869       -0.102952       -0.016084
   2 C       -0.263538        0.086869       -0.102952       -0.016084
   3 H        0.174689        0.018069       -0.009962        0.008107
   4 H        0.174689        0.018069       -0.009962        0.008107
   5 H        0.090235        0.019155       -0.010911        0.008244
   6 H        0.090235        0.019155       -0.010911        0.008244
   7 O       -1.037019        0.283733       -0.270734        0.012999
   8 H        0.034249        0.016815       -0.030349       -0.013535
  --------------------------------------------------------------------
  Sum:       -1.000000        0.548733       -0.548733        0.000000
  
  Multipole moment analysis of the density matrix
    Molecular charge:                      -1.000000
    Number of electrons:                   26.000000
      Center of electronic charge [Ang]: [  0.000000,   0.000000,  -0.107785]
    Total nuclear charge:                  25.000000
      Center of nuclear charge [Ang]:    [ -0.000000,   0.000000,  -0.000000]
    Dipole moment [D]:                     13.460605
      Cartesian components [D]:          [ -0.000000,  -0.000000,  13.460605]
    RMS size of the density [Ang]:         2.697956
      Cartesian components [Ang]:        [  0.778568,   0.467383,   2.540541]
  
  Exciton analysis of the difference density matrix
    <r_h> [Ang]:                  [  0.000000,   0.000000,  -0.907720]
    <r_e> [Ang]:                  [  0.000000,   0.000000,  -0.942997]
    |<r_e - r_h>| [Ang]:            0.035277
    Hole size [Ang]:                2.812288
      Cartesian components [Ang]: [  0.822606,   0.712807,   2.593105]
    Electron size [Ang]:            3.048121
      Cartesian components [Ang]: [  1.079981,   0.929562,   2.694549]
--------------------------------------------------------------------------------
  Starting Davidson for singlet states of irrep B2 ... 
--------------------------------------------------------------------------------
   It NVec Conv  Avg. Norm  Max. Norm  Conv. states           Remark
--------------------------------------------------------------------------------
       100    0  1.556e-01  6.163e-01  0.2779 n n n n n n n n Guess.
    1  110    0  1.726e-02  7.972e-02  0.0962 n n n n n n n n 
    2  120    0  1.385e-02  1.296e-01  0.0946 n n n n n n n n 
    3  130    0  2.402e-02  2.282e-01  0.0946 n n n n n n n n 
    4  140    0  4.748e-03  3.939e-02  0.0946 n n n n n n n n 
    5  150    2  8.785e-04  6.440e-03  0.0946 y y n n n n n n 
    6  160    8  8.909e-05  7.108e-04  0.0946 y y y y y y y y 
    7  170    8  1.023e-05  7.396e-05  0.0946 y y y y y y y y 
    8  180   10  9.878e-07  7.954e-06  0.0946 y y y y y y y y Converged.
--------------------------------------------------------------------------------
  Davidson Summary: 
 ------------------------------------------------------------
  State  0: excitation energy =   0.0946 a.u.   (converged)
  State  1: excitation energy =   0.1039 a.u.   (converged)
  State  2: excitation energy =   0.1119 a.u.   (converged)
  State  3: excitation energy =   0.1580 a.u.   (converged)
  State  4: excitation energy =   0.1743 a.u.   (converged)
  State  5: excitation energy =   0.1921 a.u.   (converged)
  State  6: excitation energy =   0.2330 a.u.   (converged)
  State  7: excitation energy =   0.2675 a.u.   (converged)
  State  8: excitation energy =   0.2745 a.u.   (converged)
  State  9: excitation energy =   0.3123 a.u.   (converged)
 ------------------------------------------------------------


--------------------------------------------------------------------------------
                   State-averaged natural transition orbitals
--------------------------------------------------------------------------------
--------------------------------------------------------------------------------

--------------------------------------------------------------------------------
                             Excited State Summary
--------------------------------------------------------------------------------
--------------------------------------------------------------------------------

  Excited state 1 (singlet, B2)                                    [converged]
  ----------------------------------------------------------------------------
  Term symbol:  1 (1) B2                                    R^2 =  2.12132e-09

  Total energy:                                           -153.8682234627 a.u.
  Excitation energy:                                               2.573748 eV

  Osc. strength:                                                      0.000112
  Trans. dip. moment [a.u.]:           [   0.000000,    0.042194,    0.000000]
  <i|r^2|0> [a.u.]:                    [  -0.000000,   -0.000000,   -0.000000]

  Dip. moment [a.u.]:                  [   0.000000,   -0.000000,   -5.799539]
  Total dipole [Debye]:                                              14.740960
  <r^2> [a.u.]:                        [  77.194517,   25.617642,  594.372459]
  Total <r^2> [a.u.]:                                               697.184618

  V1^2 = 0.8573, V2^2 = 0.1427

  Important amplitudes:
      occ i      occ j       vir a       vir b          v   
    ---------------------------------------------------------
     2 (B2) A               8 (A1) A                  0.6411
     2 (B2) A               9 (A1) A                 -0.1003
    ---------------------------------------------------------

  Density matrix analysis:
  ------------------------
  NOs
    Occupation of frontier NOs:
       0.9582   0.9940
    Number of electrons: 26.000000
    Number of unpaired electrons: n_u =  2.75781, n_u,nl =  2.12030
    NO participation ratio (PR_NO):  3.922530
  
  
  Mulliken Population Analysis
  Atom      Charge (e)              h+              e-           Del q
  --------------------------------------------------------------------
   1 C       -0.803555        0.039698       -0.579715       -0.540017
   2 C       -0.803555        0.039698       -0.579715       -0.540017
   3 H        0.160747       -0.002457       -0.011485       -0.013942
   4 H        0.160747       -0.002457       -0.011485       -0.013942
   5 H        0.155230        0.023398        0.041597        0.064995
   6 H        0.155230        0.023398        0.041597        0.064995
   7 O       -0.179326        1.404360       -0.546667        0.857693
   8 H        0.154483        0.134736       -0.014501        0.120234
  --------------------------------------------------------------------
  Sum:       -1.000000        1.660374       -1.660374        0.000000
  
  Multipole moment analysis of the density matrix
    Molecular charge:                      -1.000000
    Number of electrons:                   26.000000
      Center of electronic charge [Ang]: [ -0.000000,   0.000000,   0.118038]
    Total nuclear charge:                  25.000000
      Center of nuclear charge [Ang]:    [ -0.000000,   0.000000,  -0.000000]
    Dipole moment [D]:                     14.740955
      Cartesian components [D]:          [  0.000000,  -0.000000, -14.740955]
    RMS size of the density [Ang]:         2.737695
      Cartesian components [Ang]:        [  0.911817,   0.525272,   2.527381]
  
  Exciton analysis of the difference density matrix
    <r_h> [Ang]:                  [  0.000000,   0.000000,  -2.846016]
    <r_e> [Ang]:                  [ -0.000000,   0.000000,   0.690179]
    |<r_e - r_h>| [Ang]:            3.536195
    Hole size [Ang]:                1.990483
      Cartesian components [Ang]: [  0.824719,   0.883597,   1.581492]
    Electron size [Ang]:            3.873532
      Cartesian components [Ang]: [  2.051159,   1.296370,   3.019341]

  Transition density matrix analysis:
  -----------------------------------
  
  CT numbers (Mulliken)
    omega =     0.8417
    <Phe> =    -0.0001
  
  Exciton analysis of the transition density matrix
    Trans. dipole moment [D]:             0.053624
      Cartesian components [D]:         [  0.000000,   0.053624,   0.000000]
    <r_h> [Ang]:                        [ -0.000000,   0.000000,  -3.197316]
    <r_e> [Ang]:                        [ -0.000000,   0.000000,   2.714313]
    |<r_e - r_h>| [Ang]:                  5.911629
    Hole size [Ang]:                      1.088484
      Cartesian components [Ang]:       [  0.484645,   0.839333,   0.495414]
    Electron size [Ang]:                  3.384818
      Cartesian components [Ang]:       [  2.545219,   1.555151,   1.600112]
    RMS electron-hole separation [Ang]:   6.898298
      Cartesian components [Ang]:       [  2.590834,   1.766202,   6.144480]
    Covariance(r_h, r_e) [Ang^2]:         0.001312
    Correlation coefficient:              0.000356
    Center-of-mass size [Ang]:            1.777949
      Cartesian components [Ang]:       [  1.295533,   0.884093,   0.837303]

  Decomposition into state-averaged NTOs
    H- 0 -> L+ 0: -0.6013 ( 72.3%)
    H- 0 -> L+ 5: -0.1786 (  6.4%)
    H- 0 -> L+ 6:  0.1519 (  4.6%)
                   omega =  84.2%
  ----------------------------------------------------------------------------


  Excited state 2 (singlet, B2)                                    [converged]
  ----------------------------------------------------------------------------
  Term symbol:  2 (1) B2                                    R^2 =  1.94658e-09

  Total energy:                                           -153.8588622721 a.u.
  Excitation energy:                                               2.828478 eV

  Osc. strength:                                                      0.000198
  Trans. dip. moment [a.u.]:           [   0.000000,    0.053450,    0.000000]
  <i|r^2|0> [a.u.]:                    [  -0.000000,   -0.000000,    0.000000]

  Dip. moment [a.u.]:                  [   0.000000,   -0.000000,   -4.227712]
  Total dipole [Debye]:                                              10.745773
  <r^2> [a.u.]:                        [  65.355145,   29.334544,  576.122798]
  Total <r^2> [a.u.]:                                               670.812487

  V1^2 = 0.8540, V2^2 = 0.1460

  Important amplitudes:
      occ i      occ j       vir a       vir b          v   
    ---------------------------------------------------------
     4 (B1) A               1 (A2) A                  0.6346
     4 (B1) A               2 (A2) A                 -0.1529
    ---------------------------------------------------------

  Density matrix analysis:
  ------------------------
  NOs
    Occupation of frontier NOs:
       0.9590   0.9963
    Number of electrons: 26.000000
    Number of unpaired electrons: n_u =  2.73884, n_u,nl =  2.10996
    NO participation ratio (PR_NO):  3.862324
  
  
  Mulliken Population Analysis
  Atom      Charge (e)              h+              e-           Del q
  --------------------------------------------------------------------
   1 C       -0.698533        0.093665       -0.528661       -0.434995
   2 C       -0.698533        0.093665       -0.528661       -0.434995
   3 H        0.124724        0.002290       -0.052255       -0.049965
   4 H        0.124724        0.002290       -0.052255       -0.049965
   5 H        0.074558        0.004526       -0.020203       -0.015676
   6 H        0.074558        0.004526       -0.020203       -0.015676
   7 O       -0.141142        1.396961       -0.501084        0.895878
   8 H        0.139645        0.127327       -0.021931        0.105396
  --------------------------------------------------------------------
  Sum:       -1.000000        1.725251       -1.725251        0.000000
  
  Multipole moment analysis of the density matrix
    Molecular charge:                      -1.000000
    Number of electrons:                   26.000000
      Center of electronic charge [Ang]: [ -0.000000,   0.000000,   0.086046]
    Total nuclear charge:                  25.000000
      Center of nuclear charge [Ang]:    [ -0.000000,   0.000000,  -0.000000]
    Dipole moment [D]:                     10.745770
      Cartesian components [D]:          [  0.000000,  -0.000000, -10.745770]
    RMS size of the density [Ang]:         2.686534
      Cartesian components [Ang]:        [  0.838985,   0.562088,   2.489503]
  
  Exciton analysis of the difference density matrix
    <r_h> [Ang]:                  [  0.000000,  -0.000000,  -2.639570]
    <r_e> [Ang]:                  [  0.000000,   0.000000,   0.281531]
    |<r_e - r_h>| [Ang]:            2.921101
    Hole size [Ang]:                2.153239
      Cartesian components [Ang]: [  0.914755,   0.782062,   1.785509]
    Electron size [Ang]:            3.245645
      Cartesian components [Ang]: [  1.519726,   1.442537,   2.478655]

  Transition density matrix analysis:
  -----------------------------------
  
  CT numbers (Mulliken)
    omega =     0.8310
    <Phe> =     0.0000
  
  Exciton analysis of the transition density matrix
    Trans. dipole moment [D]:             0.067928
      Cartesian components [D]:         [  0.000000,   0.067928,   0.000000]
    <r_h> [Ang]:                        [  0.000000,   0.000000,  -3.197666]
    <r_e> [Ang]:                        [ -0.000000,   0.000000,   1.839337]
    |<r_e - r_h>| [Ang]:                  5.037003
    Hole size [Ang]:                      1.088717
      Cartesian components [Ang]:       [  0.839550,   0.484618,   0.495586]
    Electron size [Ang]:                  2.728587
      Cartesian components [Ang]:       [  1.831025,   1.748655,   1.017222]
    RMS electron-hole separation [Ang]:   5.830651
      Cartesian components [Ang]:       [  2.013072,   1.814453,   5.162538]
    Covariance(r_h, r_e) [Ang^2]:         0.002700
    Correlation coefficient:              0.000909
    Center-of-mass size [Ang]:            1.469345
      Cartesian components [Ang]:       [  1.007787,   0.907339,   0.565751]

  Decomposition into state-averaged NTOs
    H- 1 -> L+ 4: -0.4696 ( 44.1%)
    H- 1 -> L+ 8: -0.4415 ( 39.0%)
                   omega =  83.1%
  ----------------------------------------------------------------------------


  Excited state 3 (singlet, B2)                                    [converged]
  ----------------------------------------------------------------------------
  Term symbol:  3 (1) B2                                    R^2 =  7.15646e-09

  Total energy:                                           -153.8508762631 a.u.
  Excitation energy:                                               3.045789 eV

  Osc. strength:                                                      0.016187
  Trans. dip. moment [a.u.]:           [   0.000000,   -0.465746,   -0.000000]
  <i|r^2|0> [a.u.]:                    [  -0.000000,    0.000000,    0.000000]

  Dip. moment [a.u.]:                  [   0.000000,   -0.000000,   -2.611856]
  Total dipole [Debye]:                                               6.638677
  <r^2> [a.u.]:                        [  67.305050,   25.225522,  590.325407]
  Total <r^2> [a.u.]:                                               682.855978

  V1^2 = 0.8712, V2^2 = 0.1288

  Important amplitudes:
      occ i      occ j       vir a       vir b          v   
    ---------------------------------------------------------
     2 (B2) A               9 (A1) A                 -0.5887
     2 (B2) A              10 (A1) A                 -0.2409
    ---------------------------------------------------------

  Density matrix analysis:
  ------------------------
  NOs
    Occupation of frontier NOs:
       0.9604   0.9944
    Number of electrons: 26.000000
    Number of unpaired electrons: n_u =  2.74333, n_u,nl =  2.11454
    NO participation ratio (PR_NO):  3.874585
  
  
  Mulliken Population Analysis
  Atom      Charge (e)              h+              e-           Del q
  --------------------------------------------------------------------
   1 C       -0.735395        0.017155       -0.489011       -0.471857
   2 C       -0.735395        0.017155       -0.489011       -0.471857
   3 H        0.161145        0.000007       -0.013551       -0.013544
   4 H        0.161145        0.000007       -0.013551       -0.013544
   5 H        0.081390        0.007610       -0.016455       -0.008845
   6 H        0.081390        0.007610       -0.016455       -0.008845
   7 O       -0.222980        1.383920       -0.569881        0.814040
   8 H        0.208701        0.129208        0.045244        0.174452
  --------------------------------------------------------------------
  Sum:       -1.000000        1.562671       -1.562671        0.000000
  
  Multipole moment analysis of the density matrix
    Molecular charge:                      -1.000000
    Number of electrons:                   26.000000
      Center of electronic charge [Ang]: [ -0.000000,   0.000000,   0.053159]
    Total nuclear charge:                  25.000000
      Center of nuclear charge [Ang]:    [ -0.000000,   0.000000,  -0.000000]
    Dipole moment [D]:                     6.638675
      Cartesian components [D]:          [  0.000000,  -0.000000,  -6.638675]
    RMS size of the density [Ang]:         2.711412
      Cartesian components [Ang]:        [  0.851409,   0.521236,   2.520947]
  
  Exciton analysis of the difference density matrix
    <r_h> [Ang]:                  [  0.000000,   0.000000,  -3.048211]
    <r_e> [Ang]:                  [ -0.000000,   0.000000,  -0.370388]
    |<r_e - r_h>| [Ang]:            2.677823
    Hole size [Ang]:                1.722992
      Cartesian components [Ang]: [  0.800423,   0.895430,   1.235407]
    Electron size [Ang]:            3.631522
      Cartesian components [Ang]: [  1.617441,   1.299085,   2.980640]

  Transition density matrix analysis:
  -----------------------------------
  
  CT numbers (Mulliken)
    omega =     0.8551
    <Phe> =    -0.0034
  
  Exciton analysis of the transition density matrix
    Trans. dipole moment [D]:             0.591904
      Cartesian components [D]:         [  0.000000,  -0.591904,  -0.000000]
    <r_h> [Ang]:                        [ -0.000000,   0.000000,  -3.196879]
    <r_e> [Ang]:                        [ -0.000000,   0.000000,   0.933510]
    |<r_e - r_h>| [Ang]:                  4.130389
    Hole size [Ang]:                      1.085467
      Cartesian components [Ang]:       [  0.483328,   0.836826,   0.494323]
    Electron size [Ang]:                  3.679174
      Cartesian components [Ang]:       [  1.909667,   1.518809,   2.753673]
    RMS electron-hole separation [Ang]:   5.636484
      Cartesian components [Ang]:       [  1.969665,   1.732522,   4.988862]
    Covariance(r_h, r_e) [Ang^2]:         0.002359
    Correlation coefficient:              0.000591
    Center-of-mass size [Ang]:            1.918286
      Cartesian components [Ang]:       [  0.985049,   0.867826,   1.398705]

  Decomposition into state-averaged NTOs
    H- 0 -> L+ 5: -0.4878 ( 47.6%)
    H- 0 -> L+ 2:  0.3572 ( 25.5%)
    H- 0 -> L+ 0:  0.1595 (  5.1%)
    H- 0 -> L+ 1:  0.1271 (  3.2%)
    H- 0 -> L+ 7:  0.1022 (  2.1%)
    H- 0 -> L+ 6:  0.0982 (  1.9%)
                   omega =  85.5%
  ----------------------------------------------------------------------------


  Excited state 4 (singlet, B2)                                    [converged]
  ----------------------------------------------------------------------------
  Term symbol:  4 (1) B2                                    R^2 =  1.08766e-08

  Total energy:                                           -153.8047998229 a.u.
  Excitation energy:                                               4.299593 eV

  Osc. strength:                                                      0.009288
  Trans. dip. moment [a.u.]:           [  -0.000000,    0.296938,   -0.000000]
  <i|r^2|0> [a.u.]:                    [  -0.000000,   -0.000000,    0.000000]

  Dip. moment [a.u.]:                  [   0.000000,    0.000000,   -3.526767]
  Total dipole [Debye]:                                               8.964150
  <r^2> [a.u.]:                        [  70.969530,   26.519174,  580.662059]
  Total <r^2> [a.u.]:                                               678.150762

  V1^2 = 0.8668, V2^2 = 0.1332

  Important amplitudes:
      occ i      occ j       vir a       vir b          v   
    ---------------------------------------------------------
     2 (B2) A              10 (A1) A                  0.5817
     2 (B2) A               9 (A1) A                 -0.2657
    ---------------------------------------------------------

  Density matrix analysis:
  ------------------------
  NOs
    Occupation of frontier NOs:
       0.9597   0.9935
    Number of electrons: 26.000000
    Number of unpaired electrons: n_u =  2.74965, n_u,nl =  2.11632
    NO participation ratio (PR_NO):  3.897786
  
  
  Mulliken Population Analysis
  Atom      Charge (e)              h+              e-           Del q
  --------------------------------------------------------------------
   1 C       -0.745877        0.036219       -0.518558       -0.482339
   2 C       -0.745877        0.036219       -0.518558       -0.482339
   3 H        0.159074       -0.000358       -0.015256       -0.015614
   4 H        0.159074       -0.000358       -0.015256       -0.015614
   5 H        0.113017        0.003858        0.018924        0.022782
   6 H        0.113017        0.003858        0.018924        0.022782
   7 O       -0.189204        1.392597       -0.544782        0.847815
   8 H        0.136775        0.126210       -0.023684        0.102527
  --------------------------------------------------------------------
  Sum:       -1.000000        1.598245       -1.598245        0.000000
  
  Multipole moment analysis of the density matrix
    Molecular charge:                      -1.000000
    Number of electrons:                   26.000000
      Center of electronic charge [Ang]: [ -0.000000,  -0.000000,   0.071780]
    Total nuclear charge:                  25.000000
      Center of nuclear charge [Ang]:    [ -0.000000,   0.000000,  -0.000000]
    Dipole moment [D]:                     8.964147
      Cartesian components [D]:          [  0.000000,   0.000000,  -8.964147]
    RMS size of the density [Ang]:         2.701621
      Cartesian components [Ang]:        [  0.874280,   0.534434,   2.499754]
  
  Exciton analysis of the difference density matrix
    <r_h> [Ang]:                  [  0.000000,  -0.000000,  -2.971234]
    <r_e> [Ang]:                  [ -0.000000,  -0.000000,  -0.050088]
    |<r_e - r_h>| [Ang]:            2.921146
    Hole size [Ang]:                1.812059
      Cartesian components [Ang]: [  0.811781,   0.896337,   1.349499]
    Electron size [Ang]:            3.510844
      Cartesian components [Ang]: [  1.797919,   1.377022,   2.682783]

  Transition density matrix analysis:
  -----------------------------------
  
  CT numbers (Mulliken)
    omega =     0.8510
    <Phe> =    -0.0021
  
  Exciton analysis of the transition density matrix
    Trans. dipole moment [D]:             0.377370
      Cartesian components [D]:         [ -0.000000,   0.377370,  -0.000000]
    <r_h> [Ang]:                        [ -0.000000,   0.000000,  -3.196870]
    <r_e> [Ang]:                        [ -0.000000,  -0.000000,   1.437439]
    |<r_e - r_h>| [Ang]:                  4.634309
    Hole size [Ang]:                      1.086266
      Cartesian components [Ang]:       [  0.483548,   0.837443,   0.494817]
    Electron size [Ang]:                  3.311409
      Cartesian components [Ang]:       [  2.151089,   1.628939,   1.919583]
    RMS electron-hole separation [Ang]:   5.798021
      Cartesian components [Ang]:       [  2.204648,   1.829914,   5.040634]
    Covariance(r_h, r_e) [Ang^2]:         0.002586
    Correlation coefficient:              0.000719
    Center-of-mass size [Ang]:            1.742884
      Cartesian components [Ang]:       [  1.102445,   0.916641,   0.990973]

  Decomposition into state-averaged NTOs
    H- 0 -> L+ 6:  0.5543 ( 61.5%)
    H- 0 -> L+ 2: -0.2537 ( 12.9%)
    H- 0 -> L+ 0:  0.1616 (  5.2%)
    H- 0 -> L+ 7: -0.1376 (  3.8%)
                   omega =  85.1%
  ----------------------------------------------------------------------------


  Excited state 5 (singlet, B2)                                    [converged]
  ----------------------------------------------------------------------------
  Term symbol:  5 (1) B2                                    R^2 =  2.37596e-08

  Total energy:                                           -153.7884599153 a.u.
  Excitation energy:                                               4.744224 eV

  Osc. strength:                                                      0.063795
  Trans. dip. moment [a.u.]:           [   0.000000,   -0.740853,   -0.000000]
  <i|r^2|0> [a.u.]:                    [   0.000000,    0.000000,   -0.000000]

  Dip. moment [a.u.]:                  [   0.000000,   -0.000000,    5.574832]
  Total dipole [Debye]:                                              14.169812
  <r^2> [a.u.]:                        [  60.154251,   22.522062,  616.741868]
  Total <r^2> [a.u.]:                                               699.418182

  V1^2 = 0.9039, V2^2 = 0.0961

  Important amplitudes:
      occ i      occ j       vir a       vir b          v   
    ---------------------------------------------------------
     2 (B2) A              12 (A1) A                  0.4806
     2 (B2) A              11 (A1) A                 -0.4429
    ---------------------------------------------------------

  Density matrix analysis:
  ------------------------
  NOs
    Occupation of frontier NOs:
       0.9658   0.9987
    Number of electrons: 26.000000
    Number of unpaired electrons: n_u =  2.69860, n_u,nl =  2.09620
    NO participation ratio (PR_NO):  3.723141
  
  
  Mulliken Population Analysis
  Atom      Charge (e)              h+              e-           Del q
  --------------------------------------------------------------------
   1 C       -0.259574        0.006064       -0.002100        0.003964
   2 C       -0.259574        0.006064       -0.002100        0.003964
   3 H        0.130572        0.001444       -0.045561       -0.044116
   4 H        0.130572        0.001444       -0.045561       -0.044116
   5 H        0.091806        0.000198        0.001373        0.001572
   6 H        0.091806        0.000198        0.001373        0.001572
   7 O       -1.669880        1.244522       -1.877383       -0.632861
   8 H        0.744272        0.165764        0.544259        0.710023
  --------------------------------------------------------------------
  Sum:       -1.000000        1.425698       -1.425698        0.000000
  
  Multipole moment analysis of the density matrix
    Molecular charge:                      -1.000000
    Number of electrons:                   26.000000
      Center of electronic charge [Ang]: [ -0.000000,   0.000000,  -0.113464]
    Total nuclear charge:                  25.000000
      Center of nuclear charge [Ang]:    [ -0.000000,   0.000000,  -0.000000]
    Dipole moment [D]:                     14.169808
      Cartesian components [D]:          [  0.000000,  -0.000000,  14.169808]
    RMS size of the density [Ang]:         2.742278
      Cartesian components [Ang]:        [  0.804911,   0.492514,   2.574808]
  
  Exciton analysis of the difference density matrix
    <r_h> [Ang]:                  [  0.000000,  -0.000000,  -3.192465]
    <r_e> [Ang]:                  [ -0.000000,   0.000000,  -3.296030]
    |<r_e - r_h>| [Ang]:            0.103565
    Hole size [Ang]:                1.452912
      Cartesian components [Ang]: [  0.749891,   0.889372,   0.870422]
    Electron size [Ang]:            2.420577
      Cartesian components [Ang]: [  1.150234,   1.109466,   1.818032]

  Transition density matrix analysis:
  -----------------------------------
  
  CT numbers (Mulliken)
    omega =     0.8844
    <Phe> =    -0.0144
  
  Exciton analysis of the transition density matrix
    Trans. dipole moment [D]:             0.941530
      Cartesian components [D]:         [  0.000000,  -0.941530,  -0.000000]
    <r_h> [Ang]:                        [ -0.000000,   0.000000,  -3.197957]
    <r_e> [Ang]:                        [ -0.000000,   0.000000,  -3.471943]
    |<r_e - r_h>| [Ang]:                  0.273985
    Hole size [Ang]:                      1.075113
      Cartesian components [Ang]:       [  0.478727,   0.829006,   0.489324]
    Electron size [Ang]:                  2.672833
      Cartesian components [Ang]:       [  1.266536,   1.234808,   2.003790]
    RMS electron-hole separation [Ang]:   2.892064
      Cartesian components [Ang]:       [  1.353780,   1.484506,   2.080278]
    Covariance(r_h, r_e) [Ang^2]:         0.005469
    Correlation coefficient:              0.001903
    Center-of-mass size [Ang]:            1.441427
      Cartesian components [Ang]:       [  0.677101,   0.745024,   1.031593]

  Decomposition into state-averaged NTOs
    H- 0 -> L+ 1:  0.6157 ( 75.8%)
    H- 0 -> L+ 7: -0.2216 (  9.8%)
    H- 0 -> L+ 2: -0.1051 (  2.2%)
                   omega =  88.4%
  ----------------------------------------------------------------------------


  Excited state 6 (singlet, B2)                                    [converged]
  ----------------------------------------------------------------------------
  Term symbol:  6 (1) B2                                    R^2 =  1.04477e-08

  Total energy:                                           -153.7707059980 a.u.
  Excitation energy:                                               5.227333 eV

  Osc. strength:                                                      0.000554
  Trans. dip. moment [a.u.]:           [  -0.000000,   -0.065770,    0.000000]
  <i|r^2|0> [a.u.]:                    [  -0.000000,   -0.000000,    0.000000]

  Dip. moment [a.u.]:                  [  -0.000000,    0.000000,   -4.230230]
  Total dipole [Debye]:                                              10.752173
  <r^2> [a.u.]:                        [  69.496205,   33.641701,  577.538467]
  Total <r^2> [a.u.]:                                               680.676373

  V1^2 = 0.8516, V2^2 = 0.1484

  Important amplitudes:
      occ i      occ j       vir a       vir b          v   
    ---------------------------------------------------------
     4 (B1) A               2 (A2) A                 -0.6294
     4 (B1) A               1 (A2) A                 -0.1620
    ---------------------------------------------------------

  Density matrix analysis:
  ------------------------
  NOs
    Occupation of frontier NOs:
       0.9587   0.9923
    Number of electrons: 26.000000
    Number of unpaired electrons: n_u =  2.75055, n_u,nl =  2.11368
    NO participation ratio (PR_NO):  3.910167
  
  
  Mulliken Population Analysis
  Atom      Charge (e)              h+              e-           Del q
  --------------------------------------------------------------------
   1 C       -0.681182        0.093291       -0.510935       -0.417644
   2 C       -0.681182        0.093291       -0.510935       -0.417644
   3 H        0.116294        0.000027       -0.058421       -0.058394
   4 H        0.116294        0.000027       -0.058421       -0.058394
   5 H        0.065684        0.002574       -0.027125       -0.024551
   6 H        0.065684        0.002574       -0.027125       -0.024551
   7 O       -0.141500        1.393959       -0.498440        0.895519
   8 H        0.139908        0.127649       -0.021990        0.105660
  --------------------------------------------------------------------
  Sum:       -1.000000        1.713392       -1.713392        0.000000
  
  Multipole moment analysis of the density matrix
    Molecular charge:                      -1.000000
    Number of electrons:                   26.000000
      Center of electronic charge [Ang]: [  0.000000,  -0.000000,   0.086098]
    Total nuclear charge:                  25.000000
      Center of nuclear charge [Ang]:    [ -0.000000,   0.000000,  -0.000000]
    Dipole moment [D]:                     10.752170
      Cartesian components [D]:          [ -0.000000,   0.000000, -10.752170]
    RMS size of the density [Ang]:         2.706233
      Cartesian components [Ang]:        [  0.865157,   0.601940,   2.492562]
  
  Exciton analysis of the difference density matrix
    <r_h> [Ang]:                  [  0.000000,  -0.000000,  -2.664173]
    <r_e> [Ang]:                  [  0.000000,  -0.000000,   0.277924]
    |<r_e - r_h>| [Ang]:            2.942096
    Hole size [Ang]:                2.117130
      Cartesian components [Ang]: [  0.904289,   0.763826,   1.755298]
    Electron size [Ang]:            3.481058
      Cartesian components [Ang]: [  1.725548,   1.663380,   2.524563]

  Transition density matrix analysis:
  -----------------------------------
  
  CT numbers (Mulliken)
    omega =     0.8299
    <Phe> =     0.0000
  
  Exciton analysis of the transition density matrix
    Trans. dipole moment [D]:             0.083585
      Cartesian components [D]:         [ -0.000000,  -0.083585,   0.000000]
    <r_h> [Ang]:                        [  0.000000,   0.000000,  -3.197687]
    <r_e> [Ang]:                        [ -0.000000,  -0.000000,   1.839225]
    |<r_e - r_h>| [Ang]:                  5.036911
    Hole size [Ang]:                      1.088521
      Cartesian components [Ang]:       [  0.839458,   0.484427,   0.495498]
    Electron size [Ang]:                  3.212129
      Cartesian components [Ang]:       [  2.131072,   2.079376,   1.205198]
    RMS electron-hole separation [Ang]:   6.071826
      Cartesian components [Ang]:       [  2.289192,   2.134979,   5.202743]
    Covariance(r_h, r_e) [Ang^2]:         0.003030
    Correlation coefficient:              0.000867
    Center-of-mass size [Ang]:            1.696225
      Cartesian components [Ang]:       [  1.145853,   1.067568,   0.651534]

  Decomposition into state-averaged NTOs
    H- 1 -> L+ 8: -0.4598 ( 42.3%)
    H- 1 -> L+ 4:  0.4511 ( 40.7%)
                   omega =  83.0%
  ----------------------------------------------------------------------------


  Excited state 7 (singlet, B2)                                    [converged]
  ----------------------------------------------------------------------------
  Term symbol:  7 (1) B2                                    R^2 =  5.54540e-08

  Total energy:                                           -153.7298479612 a.u.
  Excitation energy:                                               6.339136 eV

  Osc. strength:                                                      0.020533
  Trans. dip. moment [a.u.]:           [   0.000000,   -0.363603,    0.000000]
  <i|r^2|0> [a.u.]:                    [   0.000000,    0.000000,    0.000000]

  Dip. moment [a.u.]:                  [   0.000000,   -0.000000,   -2.496795]
  Total dipole [Debye]:                                               6.346221
  <r^2> [a.u.]:                        [  59.873451,   25.495774,  582.034481]
  Total <r^2> [a.u.]:                                               667.403705

  V1^2 = 0.8719, V2^2 = 0.1281

  Important amplitudes:
      occ i      occ j       vir a       vir b          v   
    ---------------------------------------------------------
     2 (B2) A              11 (A1) A                  0.4686
     2 (B2) A              12 (A1) A                  0.3874
    ---------------------------------------------------------

  Density matrix analysis:
  ------------------------
  NOs
    Occupation of frontier NOs:
       0.9615   0.9891
    Number of electrons: 26.000000
    Number of unpaired electrons: n_u =  2.74475, n_u,nl =  2.11460
    NO participation ratio (PR_NO):  3.895794
  
  
  Mulliken Population Analysis
  Atom      Charge (e)              h+              e-           Del q
  --------------------------------------------------------------------
   1 C       -0.362067        0.054108       -0.152637       -0.098529
   2 C       -0.362067        0.054108       -0.152637       -0.098529
   3 H        0.055770        0.002555       -0.121474       -0.118919
   4 H        0.055770        0.002555       -0.121474       -0.118919
   5 H       -0.053080        0.006115       -0.149430       -0.143315
   6 H       -0.053080        0.006115       -0.149430       -0.143315
   7 O       -0.322467        1.360317       -0.645766        0.714552
   8 H        0.041223        0.115562       -0.108588        0.006974
  --------------------------------------------------------------------
  Sum:       -1.000000        1.601436       -1.601436        0.000000
  
  Multipole moment analysis of the density matrix
    Molecular charge:                      -1.000000
    Number of electrons:                   26.000000
      Center of electronic charge [Ang]: [ -0.000000,   0.000000,   0.050817]
    Total nuclear charge:                  25.000000
      Center of nuclear charge [Ang]:    [ -0.000000,   0.000000,  -0.000000]
    Dipole moment [D]:                     6.346219
      Cartesian components [D]:          [  0.000000,  -0.000000,  -6.346219]
    RMS size of the density [Ang]:         2.680592
      Cartesian components [Ang]:        [  0.803030,   0.524021,   2.503222]
  
  Exciton analysis of the difference density matrix
    <r_h> [Ang]:                  [  0.000000,  -0.000000,  -2.839654]
    <r_e> [Ang]:                  [ -0.000000,   0.000000,  -0.264671]
    |<r_e - r_h>| [Ang]:            2.574983
    Hole size [Ang]:                1.956190
      Cartesian components [Ang]: [  0.805543,   0.890435,   1.544314]
    Electron size [Ang]:            3.187058
      Cartesian components [Ang]: [  1.130055,   1.305571,   2.678768]

  Transition density matrix analysis:
  -----------------------------------
  
  CT numbers (Mulliken)
    omega =     0.8542
    <Phe> =    -0.0066
  
  Exciton analysis of the transition density matrix
    Trans. dipole moment [D]:             0.462093
      Cartesian components [D]:         [  0.000000,  -0.462093,   0.000000]
    <r_h> [Ang]:                        [ -0.000000,   0.000000,  -3.196467]
    <r_e> [Ang]:                        [ -0.000000,   0.000000,   0.857330]
    |<r_e - r_h>| [Ang]:                  4.053797
    Hole size [Ang]:                      1.083612
      Cartesian components [Ang]:       [  0.482193,   0.834993,   0.494462]
    Electron size [Ang]:                  3.023207
      Cartesian components [Ang]:       [  1.209756,   1.523594,   2.314072]
    RMS electron-hole separation [Ang]:   5.171162
      Cartesian components [Ang]:       [  1.302139,   1.735375,   4.694020]
    Covariance(r_h, r_e) [Ang^2]:         0.003172
    Correlation coefficient:              0.000968
    Center-of-mass size [Ang]:            1.606264
      Cartesian components [Ang]:       [  0.651244,   0.869709,   1.183035]

  Decomposition into state-averaged NTOs
    H- 0 -> L+ 5:  0.3507 ( 24.6%)
    H- 0 -> L+ 7:  0.3396 ( 23.1%)
    H- 0 -> L+ 6:  0.2814 ( 15.8%)
    H- 0 -> L+ 2:  0.2787 ( 15.5%)
    H- 0 -> L+ 1:  0.1709 (  5.8%)
                   omega =  85.4%
  ----------------------------------------------------------------------------


  Excited state 8 (singlet, B2)                                    [converged]
  ----------------------------------------------------------------------------
  Term symbol:  8 (1) B2                                    R^2 =  7.41715e-08

  Total energy:                                           -153.6953420638 a.u.
  Excitation energy:                                               7.278090 eV

  Osc. strength:                                                      0.095553
  Trans. dip. moment [a.u.]:           [  -0.000000,    0.732039,    0.000000]
  <i|r^2|0> [a.u.]:                    [  -0.000000,    0.000000,   -0.000000]

  Dip. moment [a.u.]:                  [   0.000000,    0.000000,    2.772580]
  Total dipole [Debye]:                                               7.047197
  <r^2> [a.u.]:                        [  64.283181,   25.023052,  628.136759]
  Total <r^2> [a.u.]:                                               717.442992

  V1^2 = 0.9524, V2^2 = 0.0476

  Important amplitudes:
      occ i      occ j       vir a       vir b          v   
    ---------------------------------------------------------
     1 (B2) A               8 (A1) A                 -0.6463
     1 (B2) A              10 (A1) A                  0.1429
    ---------------------------------------------------------

  Density matrix analysis:
  ------------------------
  NOs
    Occupation of frontier NOs:
       0.9828   0.9922
    Number of electrons: 26.000000
    Number of unpaired electrons: n_u =  2.59399, n_u,nl =  2.06338
    NO participation ratio (PR_NO):  3.421119
  
  
  Mulliken Population Analysis
  Atom      Charge (e)              h+              e-           Del q
  --------------------------------------------------------------------
   1 C       -0.406106        0.532456       -0.675024       -0.142568
   2 C       -0.406106        0.532456       -0.675024       -0.142568
   3 H        0.230382        0.050733        0.004960        0.055693
   4 H        0.230382        0.050733        0.004960        0.055693
   5 H        0.179672        0.105106       -0.015669        0.089437
   6 H        0.179672        0.105106       -0.015669        0.089437
   7 O       -1.050229        0.008687       -0.021897       -0.013210
   8 H        0.042334        0.007536        0.000549        0.008085
  --------------------------------------------------------------------
  Sum:       -1.000000        1.392814       -1.392814        0.000000
  
  Multipole moment analysis of the density matrix
    Molecular charge:                      -1.000000
    Number of electrons:                   26.000000
      Center of electronic charge [Ang]: [ -0.000000,  -0.000000,  -0.056430]
    Total nuclear charge:                  25.000000
      Center of nuclear charge [Ang]:    [ -0.000000,   0.000000,  -0.000000]
    Dipole moment [D]:                     7.047195
      Cartesian components [D]:          [  0.000000,   0.000000,   7.047195]
    RMS size of the density [Ang]:         2.779193
      Cartesian components [Ang]:        [  0.832076,   0.519140,   2.600395]
  
  Exciton analysis of the difference density matrix
    <r_h> [Ang]:                  [ -0.000000,   0.000000,   1.845352]
    <r_e> [Ang]:                  [ -0.000000,  -0.000000,   2.804013]
    |<r_e - r_h>| [Ang]:            0.958661
    Hole size [Ang]:                1.654605
      Cartesian components [Ang]: [  1.009555,   0.871455,   0.979327]
    Electron size [Ang]:            2.535560
      Cartesian components [Ang]: [  1.621109,   1.308656,   1.445160]

  Transition density matrix analysis:
  -----------------------------------
  
  CT numbers (Mulliken)
    omega =     0.9208
    <Phe> =    -0.0099
  
  Exciton analysis of the transition density matrix
    Trans. dipole moment [D]:             0.930329
      Cartesian components [D]:         [ -0.000000,   0.930329,   0.000000]
    <r_h> [Ang]:                        [ -0.000000,   0.000000,   1.842353]
    <r_e> [Ang]:                        [ -0.000000,  -0.000000,   3.260836]
    |<r_e - r_h>| [Ang]:                  1.418483
    Hole size [Ang]:                      1.260775
      Cartesian components [Ang]:       [  0.757393,   0.864921,   0.517513]
    Electron size [Ang]:                  2.685873
      Cartesian components [Ang]:       [  1.817857,   1.500449,   1.287620]
    RMS electron-hole separation [Ang]:   3.279485
      Cartesian components [Ang]:       [  1.962660,   1.724361,   1.982313]
    Covariance(r_h, r_e) [Ang^2]:         0.030270
    Correlation coefficient:              0.008939
    Center-of-mass size [Ang]:            1.488624
      Cartesian components [Ang]:       [  0.987985,   0.869691,   0.695359]

  Decomposition into state-averaged NTOs
    H- 2 -> L+ 0:  0.6769 ( 91.6%)
                   omega =  92.1%
  ----------------------------------------------------------------------------


  Excited state 9 (singlet, B2)                                    [converged]
  ----------------------------------------------------------------------------
  Term symbol:  9 (1) B2                                    R^2 =  7.95371e-06

  Total energy:                                           -153.6882797089 a.u.
  Excitation energy:                                               7.470266 eV

  Osc. strength:                                                      0.001120
  Trans. dip. moment [a.u.]:           [   0.000000,    0.078215,   -0.000000]
  <i|r^2|0> [a.u.]:                    [  -0.000000,   -0.000000,   -0.000000]

  Dip. moment [a.u.]:                  [  -0.000000,   -0.000000,   -4.162714]
  Total dipole [Debye]:                                              10.580566
  <r^2> [a.u.]:                        [  63.349167,   43.281057,  578.782976]
  Total <r^2> [a.u.]:                                               685.413201

  V1^2 = 0.8673, V2^2 = 0.1327

  Important amplitudes:
      occ i      occ j       vir a       vir b          v   
    ---------------------------------------------------------
     7 (A1) A               3 (B2) A                 -0.6554
     7 (A1) A   2 (B2) B    3 (B2) A    4 (B2) B     -0.0523
    ---------------------------------------------------------

  Density matrix analysis:
  ------------------------
  NOs
    Occupation of frontier NOs:
       0.9752   0.9967
    Number of electrons: 26.000000
    Number of unpaired electrons: n_u =  2.79283, n_u,nl =  2.13291
    NO participation ratio (PR_NO):  3.939313
  
  
  Mulliken Population Analysis
  Atom      Charge (e)              h+              e-           Del q
  --------------------------------------------------------------------
   1 C       -0.716502        0.039947       -0.492911       -0.452964
   2 C       -0.716502        0.039947       -0.492911       -0.452964
   3 H        0.132705       -0.002682       -0.039302       -0.041984
   4 H        0.132705       -0.002682       -0.039302       -0.041984
   5 H        0.087539        0.001324       -0.004019       -0.002696
   6 H        0.087539        0.001324       -0.004019       -0.002696
   7 O       -0.334943        1.225216       -0.523140        0.702076
   8 H        0.327461        0.310295       -0.017083        0.293212
  --------------------------------------------------------------------
  Sum:       -1.000000        1.612688       -1.612688        0.000000
  
  Multipole moment analysis of the density matrix
    Molecular charge:                      -1.000000
    Number of electrons:                   26.000000
      Center of electronic charge [Ang]: [  0.000000,   0.000000,   0.084724]
    Total nuclear charge:                  25.000000
      Center of nuclear charge [Ang]:    [ -0.000000,   0.000000,  -0.000000]
    Dipole moment [D]:                     10.580562
      Cartesian components [D]:          [ -0.000000,  -0.000000, -10.580562]
    RMS size of the density [Ang]:         2.715685
      Cartesian components [Ang]:        [  0.826009,   0.682753,   2.495296]
  
  Exciton analysis of the difference density matrix
    <r_h> [Ang]:                  [  0.000000,  -0.000000,  -2.991402]
    <r_e> [Ang]:                  [  0.000000,   0.000000,   0.112258]
    |<r_e - r_h>| [Ang]:            3.103660
    Hole size [Ang]:                1.781679
      Cartesian components [Ang]: [  0.790035,   0.768048,   1.400117]
    Electron size [Ang]:            3.685936
      Cartesian components [Ang]: [  1.360670,   2.140894,   2.674186]

  Transition density matrix analysis:
  -----------------------------------
  
  CT numbers (Mulliken)
    omega =     0.8495
    <Phe> =     0.0001
  
  Exciton analysis of the transition density matrix
    Trans. dipole moment [D]:             0.099402
      Cartesian components [D]:         [  0.000000,   0.099402,  -0.000000]
    <r_h> [Ang]:                        [  0.000000,   0.000000,  -3.243858]
    <r_e> [Ang]:                        [  0.000000,   0.000000,   1.799925]
    |<r_e - r_h>| [Ang]:                  5.043783
    Hole size [Ang]:                      1.010567
      Cartesian components [Ang]:       [  0.420909,   0.420908,   0.816650]
    Electron size [Ang]:                  3.464160
      Cartesian components [Ang]:       [  1.578929,   2.649213,   1.577674]
    RMS electron-hole separation [Ang]:   6.202322
      Cartesian components [Ang]:       [  1.634800,   2.683146,   5.347612]
    Covariance(r_h, r_e) [Ang^2]:        -0.003698
    Correlation coefficient:             -0.001056
    Center-of-mass size [Ang]:            1.803763
      Cartesian components [Ang]:       [  0.816669,   1.340869,   0.888080]

  Decomposition into state-averaged NTOs
    H- 3 -> L+ 3:  0.6516 ( 84.9%)
                   omega =  84.9%
  ----------------------------------------------------------------------------


  Excited state 10 (singlet, B2)                                    [converged]
  ----------------------------------------------------------------------------
  Term symbol:  10 (1) B2                                   R^2 =  5.85674e-06

  Total energy:                                           -153.6504634141 a.u.
  Excitation energy:                                               8.499300 eV

  Osc. strength:                                                      0.034904
  Trans. dip. moment [a.u.]:           [  -0.000000,    0.409419,    0.000000]
  <i|r^2|0> [a.u.]:                    [   0.000000,    0.000000,    0.000000]

  Dip. moment [a.u.]:                  [  -0.000000,    0.000000,   -0.645968]
  Total dipole [Debye]:                                               1.641887
  <r^2> [a.u.]:                        [  61.615249,   20.495986,  581.466590]
  Total <r^2> [a.u.]:                                               663.577826

  V1^2 = 0.8796, V2^2 = 0.1204

  Important amplitudes:
      occ i      occ j       vir a       vir b          v   
    ---------------------------------------------------------
     2 (B2) A              13 (A1) A                  0.4874
     2 (B2) A              16 (A1) A                 -0.3078
    ---------------------------------------------------------

  Density matrix analysis:
  ------------------------
  NOs
    Occupation of frontier NOs:
       0.9658   0.9874
    Number of electrons: 26.000000
    Number of unpaired electrons: n_u =  2.73720, n_u,nl =  2.11046
    NO participation ratio (PR_NO):  3.866823
  
  
  Mulliken Population Analysis
  Atom      Charge (e)              h+              e-           Del q
  --------------------------------------------------------------------
   1 C       -0.230473        0.047976       -0.014910        0.033066
   2 C       -0.230473        0.047976       -0.014910        0.033066
   3 H       -0.141308        0.020378       -0.336375       -0.315997
   4 H       -0.141308        0.020378       -0.336375       -0.315997
   5 H        0.034764        0.004065       -0.059536       -0.055471
   6 H        0.034764        0.004065       -0.059536       -0.055471
   7 O       -0.414016        1.331639       -0.708636        0.623003
   8 H        0.088051        0.105326       -0.051523        0.053802
  --------------------------------------------------------------------
  Sum:       -1.000000        1.581803       -1.581803        0.000000
  
  Multipole moment analysis of the density matrix
    Molecular charge:                      -1.000000
    Number of electrons:                   26.000000
      Center of electronic charge [Ang]: [  0.000000,  -0.000000,   0.013147]
    Total nuclear charge:                  25.000000
      Center of nuclear charge [Ang]:    [ -0.000000,   0.000000,  -0.000000]
    Dipole moment [D]:                     1.641886
      Cartesian components [D]:          [ -0.000000,   0.000000,  -1.641886]
    RMS size of the density [Ang]:         2.673346
      Cartesian components [Ang]:        [  0.814627,   0.469839,   2.502481]
  
  Exciton analysis of the difference density matrix
    <r_h> [Ang]:                  [  0.000000,   0.000000,  -2.762346]
    <r_e> [Ang]:                  [  0.000000,  -0.000000,  -0.774581]
    |<r_e - r_h>| [Ang]:            1.987765
    Hole size [Ang]:                2.001573
      Cartesian components [Ang]: [  0.798058,   0.872031,   1.615227]
    Electron size [Ang]:            2.945506
      Cartesian components [Ang]: [  1.257446,   0.893463,   2.509295]

  Transition density matrix analysis:
  -----------------------------------
  
  CT numbers (Mulliken)
    omega =     0.8596
    <Phe> =    -0.0046
  
  Exciton analysis of the transition density matrix
    Trans. dipole moment [D]:             0.520320
      Cartesian components [D]:         [ -0.000000,   0.520320,   0.000000]
    <r_h> [Ang]:                        [ -0.000000,   0.000000,  -3.184385]
    <r_e> [Ang]:                        [  0.000000,  -0.000000,  -0.161909]
    |<r_e - r_h>| [Ang]:                  3.022476
    Hole size [Ang]:                      1.107041
      Cartesian components [Ang]:       [  0.481608,   0.832143,   0.548755]
    Electron size [Ang]:                  2.915063
      Cartesian components [Ang]:       [  1.386394,   0.950637,   2.381553]
    RMS electron-hole separation [Ang]:   4.338126
      Cartesian components [Ang]:       [  1.467389,   1.260942,   3.882799]
    Covariance(r_h, r_e) [Ang^2]:         0.019581
    Correlation coefficient:              0.006068
    Center-of-mass size [Ang]:            1.562234
      Cartesian components [Ang]:       [  0.733969,   0.632924,   1.225264]

  Decomposition into state-averaged NTOs
    H- 0 -> L+ 7:  0.4769 ( 45.5%)
    H- 0 -> L+ 2: -0.3969 ( 31.5%)
    H- 0 -> L+ 5: -0.1629 (  5.3%)
    H- 0 -> L+ 1:  0.1151 (  2.6%)
                   omega =  86.0%
  ----------------------------------------------------------------------------


--------------------------------------------------------------------------------
  Time of ADC calculation:  CPU 204.38 s  wall 55.72 s
================================================================================
 
 --------------------------------------------------------------
             Orbital Energies (a.u.) and Symmetries
 --------------------------------------------------------------
 
 Alpha MOs, Restricted
 -- Occupied --                  
-20.203 -11.129 -11.127  -0.934  -0.908  -0.674  -0.551  -0.460
  1 A1    2 A1    1 B1    3 A1    4 A1    2 B1    5 A1    6 A1                 
 -0.406  -0.270  -0.256  -0.112  -0.112
  3 B1    1 B2    7 A1    2 B2    4 B1                                         
 -- Virtual --                   
  0.177   0.182   0.204   0.212   0.215   0.248   0.269   0.306
  8 A1    5 B1    1 A2    3 B2    9 A1    6 B1   10 A1    2 A2                 
  0.321   0.351   0.388   0.435   0.442   0.443   0.458   0.480
  7 B1   11 A1   12 A1    8 B1   13 A1    4 B2    9 B1   10 B1                 
  0.495   0.499   0.523   0.537   0.553   0.594   0.607   0.657
 14 A1   15 A1    5 B2   16 A1   11 B1   17 A1    3 A2   12 B1                 
  0.728   0.943   0.965   1.031   1.131   1.153   1.190   1.222
 13 B1   18 A1   19 A1   14 B1   20 A1   15 B1   21 A1    6 B2                 
  1.239   1.251   1.265   1.272   1.281   1.317   1.319   1.320
 22 A1   16 B1    7 B2   23 A1   17 B1    8 B2    4 A2   24 A1                 
  1.372   1.393   1.412   1.474   1.542   1.604   1.726   1.734
  5 A2    6 A2    9 B2   18 B1   25 A1   19 B1   10 B2   20 B1                 
  1.736   1.853   1.892   1.990   2.023   2.053   2.085   2.127
 26 A1   27 A1   21 B1    7 A2   28 A1   11 B2   22 B1   12 B2                 
  2.204   2.216   2.293   2.373   2.376   2.439   2.521   2.533
 29 A1   30 A1    8 A2   13 B2   23 B1   24 B1    9 A2   31 A1                 
  2.599   2.662   2.694   2.985   2.998   3.034   3.408   3.465
 32 A1   25 B1   26 B1   33 A1   34 A1   35 A1   27 B1   28 B1                 
  3.926   3.929   3.955   3.955   4.399
 14 B2   29 B1   36 A1   10 A2   37 A1                                         
 
 Beta MOs, Restricted
 -- Occupied --                  
-20.203 -11.129 -11.127  -0.934  -0.908  -0.674  -0.551  -0.460
  1 A1    2 A1    1 B1    3 A1    4 A1    2 B1    5 A1    6 A1                 
 -0.406  -0.270  -0.256  -0.112  -0.112
  3 B1    1 B2    7 A1    2 B2    4 B1                                         
 -- Virtual --                   
  0.177   0.182   0.204   0.212   0.215   0.248   0.269   0.306
  8 A1    5 B1    1 A2    3 B2    9 A1    6 B1   10 A1    2 A2                 
  0.321   0.351   0.388   0.435   0.442   0.443   0.458   0.480
  7 B1   11 A1   12 A1    8 B1   13 A1    4 B2    9 B1   10 B1                 
  0.495   0.499   0.523   0.537   0.553   0.594   0.607   0.657
 14 A1   15 A1    5 B2   16 A1   11 B1   17 A1    3 A2   12 B1                 
  0.728   0.943   0.965   1.031   1.131   1.153   1.190   1.222
 13 B1   18 A1   19 A1   14 B1   20 A1   15 B1   21 A1    6 B2                 
  1.239   1.251   1.265   1.272   1.281   1.317   1.319   1.320
 22 A1   16 B1    7 B2   23 A1   17 B1    8 B2    4 A2   24 A1                 
  1.372   1.393   1.412   1.474   1.542   1.604   1.726   1.734
  5 A2    6 A2    9 B2   18 B1   25 A1   19 B1   10 B2   20 B1                 
  1.736   1.853   1.892   1.990   2.023   2.053   2.085   2.127
 26 A1   27 A1   21 B1    7 A2   28 A1   11 B2   22 B1   12 B2                 
  2.204   2.216   2.293   2.373   2.376   2.439   2.521   2.533
 29 A1   30 A1    8 A2   13 B2   23 B1   24 B1    9 A2   31 A1                 
  2.599   2.662   2.694   2.985   2.998   3.034   3.408   3.465
 32 A1   25 B1   26 B1   33 A1   34 A1   35 A1   27 B1   28 B1                 
  3.926   3.929   3.955   3.955   4.399
 14 B2   29 B1   36 A1   10 A2   37 A1                                         
 --------------------------------------------------------------
 
          Ground-State Mulliken Net Atomic Charges

     Atom                 Charge (a.u.)
  ----------------------------------------
      1 C                    -0.247454
      2 C                    -0.247454
      3 H                     0.166582
      4 H                     0.166582
      5 H                     0.081990
      6 H                     0.081990
      7 O                    -1.050018
      8 H                     0.047783
  ----------------------------------------
  Sum of atomic charges =    -1.000000

 -----------------------------------------------------------------
                    Cartesian Multipole Moments
 -----------------------------------------------------------------
    Charge (ESU x 10^10)
                -4.8032
    Dipole Moment (Debye)
         X       0.0000      Y      -0.0000      Z      13.3676
       Tot      13.3676
    Quadrupole Moments (Debye-Ang)
        XX     -23.1470     XY      -0.0000     YY     -26.3421
        XZ      -0.0000     YZ       0.0000     ZZ     -61.7545
    Octopole Moments (Debye-Ang^2)
       XXX       0.0000    XXY      -0.0000    XYY      -0.0000
       YYY      -0.0000    XXZ       7.6137    XYZ      -0.0000
       YYZ       2.4468    XZZ       0.0000    YZZ      -0.0000
       ZZZ     112.7246
    Hexadecapole Moments (Debye-Ang^3)
      XXXX     -84.6151   XXXY       0.0000   XXYY     -21.1391
      XYYY      -0.0000   YYYY     -38.1595   XXXZ      -0.0000
      XXYZ       0.0000   XYYZ      -0.0000   YYYZ       0.0000
      XXZZ    -170.5094   XYZZ      -0.0000   YYZZ    -174.4622
      XZZZ      -0.0000   YZZZ       0.0000   ZZZZ   -1081.4403
 -----------------------------------------------------------------
 Total job time:  164.42s(wall), 251.19s(cpu) 
 Thu Mar  3 17:11:13 2022

        *************************************************************
        *                                                           *
        *  Thank you very much for using Q-Chem.  Have a nice day.  *
        *                                                           *
        *************************************************************


