/src/tsommerfeld/qchem/exe/qcprog.exe .input1.654545.4827.qcin.1 /src/jdavis/qchem.scratch/qchem4827/

                  Welcome to Q-Chem
     A Quantum Leap Into The Future Of Chemistry


 Q-Chem 5.4 (devel), Q-Chem, Inc., Pleasanton, CA (2021)

 E. Epifanovsky,  A. T. B. Gilbert,  Xintian Feng,  Joonho Lee,  Yuezhi Mao,  
 N. Mardirossian,  P. Pokhilko,  A. White,  M. Wormit,  M. P. Coons,  
 A. L. Dempwolff,  Zhengting Gan,  D. Hait,  P. R. Horn,  L. D. Jacobson,  
 I. Kaliman,  J. Kussmann,  A. W. Lange,  Ka Un Lao,  D. S. Levine,  Jie Liu,  
 S. C. McKenzie,  A. F. Morrison,  K. Nanda,  F. Plasser,  D. R. Rehn,  
 M. L. Vidal,  Zhi-Qiang You,  Ying Zhu,  B. Alam,  B. Albrecht,  
 A. Aldossary,  E. Alguire,  J. H. Andersen,  D. Barton,  K. Begam,  A. Behn,  
 Y. A. Bernard,  E. J. Berquist,  H. Burton,  A. Carreras,  K. Carter-Fenk,  
 R. Chakraborty,  A. D. Chien,  K. D. Closser,  V. Cofer-Shabica,  
 S. Dasgupta,  Jia Deng,  M. de Wergifosse,  M. Diedenhofen,  Hainam Do,  
 S. Ehlert,  Po-Tung Fang,  S. Fatehi,  Qingguo Feng,  T. Friedhoff,  
 J. Gayvert,  Qinghui Ge,  G. Gidofalvi,  M. Goldey,  J. Gomes,  
 C. Gonzalez-Espinoza,  S. Gulania,  A. Gunina,  M. W. D. Hanson-Heine,  
 P. H. P. Harbach,  A. W. Hauser,  M. F. Herbst,  M. Hernandez Vera,  
 M. Hodecker,  Z. C. Holden,  S. Houck,  Xunkun Huang,  Kerwin Hui,  
 B. C. Huynh,  M. Ivanov,  Hyunjun Ji,  Hanjie Jiang,  B. Kaduk,  S. Kaehler,  
 K. Khistyaev,  Jaehoon Kim,  P. Klunzinger,  Z. Koczor-Benda,  
 Joong Hoon Koh,  D. Kosenkov,  L. Koulias,  T. Kowalczyk,  C. M. Krauter,  
 K. Kue,  A. Kunitsa,  T. Kus,  A. Landau,  K. V. Lawler,  D. Lefrancois,  
 S. Lehtola,  Rain Li,  Yi-Pei Li,  Jiashu Liang,  M. Liebenthal,  
 Hung-Hsuan Lin,  You-Sheng Lin,  Fenglai Liu,  Kuan-Yu Liu,  
 M. Loipersberger,  A. Luenser,  A. Manjanath,  P. Manohar,  E. Mansoor,  
 S. F. Manzer,  Shan-Ping Mao,  A. V. Marenich,  T. Markovich,  S. Mason,  
 S. A. Maurer,  P. F. McLaughlin,  M. F. S. J. Menger,  J.-M. Mewes,  
 S. A. Mewes,  P. Morgante,  J. W. Mullinax,  K. J. Oosterbaan,  G. Paran,  
 Alexander C. Paul,  Suranjan K. Paul,  F. Pavosevic,  Zheng Pei,  S. Prager,  
 E. I. Proynov,  E. Ramos,  B. Rana,  A. E. Rask,  A. Rettig,  R. M. Richard,  
 F. Rob,  E. Rossomme,  T. Scheele,  M. Scheurer,  M. Schneider,  
 N. Sergueev,  S. M. Sharada,  W. Skomorowski,  D. W. Small,  C. J. Stein,  
 Yu-Chuan Su,  E. J. Sundstrom,  Zhen Tao,  J. Thirman,  T. Tsuchimochi,  
 N. M. Tubman,  S. P. Veccham,  O. Vydrov,  J. Wenzel,  J. Witte,  A. Yamada,  
 Kun Yao,  S. Yeganeh,  S. R. Yost,  A. Zech,  Igor Ying Zhang,  Xing Zhang,  
 Yu Zhang,  D. Zuev,  A. Aspuru-Guzik,  A. T. Bell,  N. A. Besley,  
 K. B. Bravaya,  B. R. Brooks,  D. Casanova,  Jeng-Da Chai,  S. Coriani,  
 C. J. Cramer,  A. E. DePrince, III,  R. A. DiStasio Jr.,  A. Dreuw,  
 B. D. Dunietz,  T. R. Furlani,  W. A. Goddard III,  S. Grimme,  
 S. Hammes-Schiffer,  T. Head-Gordon,  W. J. Hehre,  Chao-Ping Hsu,  
 T.-C. Jagau,  Yousung Jung,  A. Klamt,  Jing Kong,  D. S. Lambrecht,  
 WanZhen Liang,  N. J. Mayhall,  C. W. McCurdy,  J. B. Neaton,  
 C. Ochsenfeld,  J. A. Parkhill,  R. Peverati,  V. A. Rassolov,  Yihan Shao,  
 L. V. Slipchenko,  T. Stauch,  R. P. Steele,  J. E. Subotnik,  
 A. J. W. Thom,  A. Tkatchenko,  D. G. Truhlar,  T. Van Voorhis,  
 T. A. Wesolowski,  K. B. Whaley,  H. L. Woodcock III,  P. M. Zimmerman,  
 S. Faraji,  P. M. W. Gill,  M. Head-Gordon,  J. M. Herbert,  A. I. Krylov

 Additional authors for Version 5.4.1: 
 S. Kotaru,  Shaozhi Li,  Xiangyuan Li,  F. Matz,  A. Molle,  Haisheng Ren,  
 Yingli Su,  Hung-Yi Tsai,  C. Utku,  Fang Wang

 Contributors to earlier versions of Q-Chem not listed above: 
 R. D. Adamson,  B. Austin,  R. Baer,  J. Baker,  G. J. O. Beran,  
 K. Brandhorst,  S. T. Brown,  E. F. C. Byrd,  A. K. Chakraborty,  
 G. K. L. Chan,  Chun-Min Chang,  Yunqing Chen,  C.-L. Cheng,  
 Siu Hung Chien,  D. M. Chipman,  D. L. Crittenden,  H. Dachsel,  
 R. J. Doerksen,  A. D. Dutoi,  R. G. Edgar,  J. Fosso-Tande,  
 L. Fusti-Molnar,  D. Ghosh,  A. Ghysels,  A. Golubeva-Zadorozhnaya,  
 J. Gonthier,  M. S. Gordon,  S. R. Gwaltney,  G. Hawkins,  J. E. Herr,  
 A. Heyden,  S. Hirata,  E. G. Hohenstein,  G. Kedziora,  F. J. Keil,  
 C. Kelley,  Jihan Kim,  R. A. King,  R. Z. Khaliullin,  P. P. Korambath,  
 W. Kurlancheek,  A. Laurent,  A. M. Lee,  M. S. Lee,  S. V. Levchenko,  
 Ching Yeh Lin,  D. Liotard,  E. Livshits,  R. C. Lochan,  I. Lotan,  
 L. A. Martinez-Martinez,  P. E. Maslen,  N. Nair,  D. P. O'Neill,  
 D. Neuhauser,  E. Neuscamman,  C. M. Oana,  R. Olivares-Amaya,  R. Olson,  
 T. M. Perrine,  B. Peters,  P. A. Pieniazek,  A. Prociuk,  Y. M. Rhee,  
 J. Ritchie,  M. A. Rohrdanz,  E. Rosta,  N. J. Russ,  H. F. Schaefer III,  
 M. W. Schmidt,  N. E. Schultz,  S. Sharma,  N. Shenvi,  C. D. Sherrill,  
 A. C. Simmonett,  A. Sodt,  T. Stein,  D. Stuck,  K. S. Thanthiriwatte,  
 V. Vanovschi,  L. Vogt,  Tao Wang,  A. Warshel,  M. A. Watson,  
 C. F. Williams,  Q. Wu,  X. Xu,  Jun Yang,  W. Zhang,  Yan Zhao

 Please cite Q-Chem as follows:
 Y. Shao et al., Mol. Phys. 113, 184-215 (2015)
 DOI: 10.1080/00268976.2014.952696

 Q-Chem 5.4.1 for Intel X86 EM64T Linux

 Parts of Q-Chem use Armadillo 9.900.5 (Nocturnal Misbehaviour).
 http://arma.sourceforge.net/

 Q-Chem begins on Thu Mar  3 16:30:00 2022  

 Host: node01
0

     Scratch files written to /src/jdavis/qchem.scratch/qchem4827//
 Processing $rem in /src/tsommerfeld/qchem/config/preferences:
 Processing $rem in /home/jdavis/.qchemrc:

 Checking the input file for inconsistencies... 	...done.

--------------------------------------------------------------
User input:
--------------------------------------------------------------
$molecule
-1 1
C        -0.6645000000    0.0000000000    1.1619088658
C         0.6645000000    0.0000000000    1.1619088658
H        -1.1590800000    0.0000000000    0.1995598658
H         1.1590800000    0.0000000000    0.1995598658
H        -1.1590800000    0.0000000000    2.1242568658
H         1.1590800000    0.0000000000    2.1242568658
O         0.0000000000    0.0000000000   -3.84
H         0.0000000000    0.0000000000   -4.81
$end
$rem
   METHOD adc(2)
   BASIS gen
   PURECART 11
   EE_STATES [0,0,0,10]
   scf_convergence 8
   ADC_DAVIDSON_MAXITER 120
   ADC_DAVIDSON_MAXSUBSPACE 200
   adc_nguess_singles 100
   THRESH 14
   S2THRESH 14
   adc_davidson_conv 5
   adc_davidson_thresh 14
   THREADS 10
   MEM_TOTAL 95000
   STATE_ANALYSIS TRUE
$end
$basis
C 1
S   9   1.00
      6.665000D+03           6.920000D-04
      1.000000D+03           5.329000D-03
      2.280000D+02           2.707700D-02
      6.471000D+01           1.017180D-01
      2.106000D+01           2.747400D-01
      7.495000D+00           4.485640D-01
      2.797000D+00           2.850740D-01
      5.215000D-01           1.520400D-02
      1.596000D-01          -3.191000D-03
S   9   1.00
      6.665000D+03          -1.460000D-04
      1.000000D+03          -1.154000D-03
      2.280000D+02          -5.725000D-03
      6.471000D+01          -2.331200D-02
      2.106000D+01          -6.395500D-02
      7.495000D+00          -1.499810D-01
      2.797000D+00          -1.272620D-01
      5.215000D-01           5.445290D-01
      1.596000D-01           5.804960D-01
S   1   1.00
      1.596000D-01           1.000000D+00
S   1   1.00
      0.0469000              1.0000000
P   4   1.00
      9.439000D+00           3.810900D-02
      2.002000D+00           2.094800D-01
      5.456000D-01           5.085570D-01
      1.517000D-01           4.688420D-01
P   1   1.00
      1.517000D-01           1.000000D+00
P   1   1.00
      0.0717127      1.0000000
P   1   1.00
      0.0358564      1.0000000
D   1   1.00
      5.500000D-01           1.0000000
****
C 2
S   9   1.00
      6.665000D+03           6.920000D-04
      1.000000D+03           5.329000D-03
      2.280000D+02           2.707700D-02
      6.471000D+01           1.017180D-01
      2.106000D+01           2.747400D-01
      7.495000D+00           4.485640D-01
      2.797000D+00           2.850740D-01
      5.215000D-01           1.520400D-02
      1.596000D-01          -3.191000D-03
S   9   1.00
      6.665000D+03          -1.460000D-04
      1.000000D+03          -1.154000D-03
      2.280000D+02          -5.725000D-03
      6.471000D+01          -2.331200D-02
      2.106000D+01          -6.395500D-02
      7.495000D+00          -1.499810D-01
      2.797000D+00          -1.272620D-01
      5.215000D-01           5.445290D-01
      1.596000D-01           5.804960D-01
S   1   1.00
      1.596000D-01           1.000000D+00
S   1   1.00
      0.0469000              1.0000000
P   4   1.00
      9.439000D+00           3.810900D-02
      2.002000D+00           2.094800D-01
      5.456000D-01           5.085570D-01
      1.517000D-01           4.688420D-01
P   1   1.00
      1.517000D-01           1.000000D+00
P   1   1.00
      0.0717127      1.0000000
P   1   1.00
      0.0358564      1.0000000
D   1   1.00
      5.500000D-01           1.0000000
****
H 3
cc-pVDZ
****
H 4
cc-pVDZ
****
H 5
cc-pVDZ
****
H 6
cc-pVDZ
****
O 7
aug-cc-pVDZ
****
H 8
cc-pVDZ
****
$end
--------------------------------------------------------------
 ----------------------------------------------------------------
             Standard Nuclear Orientation (Angstroms)
    I     Atom           X                Y                Z
 ----------------------------------------------------------------
    1      C      -0.6645000000     0.0000000000     1.8394872717
    2      C       0.6645000000    -0.0000000000     1.8394872717
    3      H      -1.1590800000     0.0000000000     0.8771382717
    4      H       1.1590800000    -0.0000000000     0.8771382717
    5      H      -1.1590800000     0.0000000000     2.8018352717
    6      H       1.1590800000    -0.0000000000     2.8018352717
    7      O      -0.0000000000     0.0000000000    -3.1624215941
    8      H      -0.0000000000     0.0000000000    -4.1324215941
 ----------------------------------------------------------------
 Molecular Point Group                 C2v   NOp =  4
 Largest Abelian Subgroup              C2v   NOp =  4
 Nuclear Repulsion Energy =          52.84282358 hartrees
 There are       13 alpha and       13 beta electrons
 Requested basis set is non-standard
 There are 42 shells and 90 basis functions
 Total memory of 95000 MB is distributed as follows: 
   MEM_STATIC is set to 192 MB
   QALLOC/CCMAN JOB total memory use is  94808 MB
 Warning: actual memory use might exceed 95000 MB

 Total QAlloc Memory Limit  95000 MB
 Mega-Array Size       188 MB
 MEM_STATIC part       192 MB

                       Distance Matrix (Angstroms)
             C (  1)   C (  2)   H (  3)   H (  4)   H (  5)   H (  6)
   C (  2)  1.329000
   H (  3)  1.082000  2.061931
   H (  4)  2.061931  1.082000  2.318160
   H (  5)  1.082000  2.061931  1.924697  3.013026
   H (  6)  2.061931  1.082000  3.013026  1.924697  2.318160
   O (  7)  5.045855  5.045855  4.202560  4.202560  6.075840  6.075840
   H (  8)  6.008765  6.008765  5.141902  5.141902  7.030461  7.030461
             O (  7)
   H (  8)  0.970000
 
 A cutoff of  1.0D-14 yielded    865 shell pairs
 There are      3913 function pairs (      4255 Cartesian)
 Smallest overlap matrix eigenvalue = 2.53E-04

 Scale SEOQF with 1.000000e-01/1.000000e-01/1.000000e-01

 Standard Electronic Orientation quadrupole field applied
 Nucleus-field energy     =    -0.0000000162 hartrees
 ================ Generating on-the-fly SAD Guess ================
Attempting to make child job directory: /src/jdavis/qchem.scratch/qchem4827//Frg1/
Attempting to make child job directory: /src/jdavis/qchem.scratch/qchem4827//Frg2/
Attempting to make child job directory: /src/jdavis/qchem.scratch/qchem4827//Frg3/
Creating input file /src/jdavis/qchem.scratch/qchem4827/Frg1.input
using default PutDataFrgm: nothing
calling putenv with: QCSCRATCH=/src/jdavis/qchem.scratch/qchem4827/ 
Spawning Job For Fragment 0
Done Job For Fragment 0
calling putenv with: QCSCRATCH=/src/jdavis/qchem.scratch 
calling putenv with: QCTHREADS=1 
Creating input file /src/jdavis/qchem.scratch/qchem4827/Frg2.input
using default PutDataFrgm: nothing
calling putenv with: QCSCRATCH=/src/jdavis/qchem.scratch/qchem4827/ 
Spawning Job For Fragment 1
Done Job For Fragment 1
calling putenv with: QCSCRATCH=/src/jdavis/qchem.scratch 
calling putenv with: QCTHREADS=1 
Creating input file /src/jdavis/qchem.scratch/qchem4827/Frg3.input
using default PutDataFrgm: nothing
calling putenv with: QCSCRATCH=/src/jdavis/qchem.scratch/qchem4827/ 
Spawning Job For Fragment 2
Done Job For Fragment 2
calling putenv with: QCSCRATCH=/src/jdavis/qchem.scratch 
calling putenv with: QCTHREADS=1 
 Time for running child jobs:  CPU 1.77 s  wall 80.53 s
 ============= Method Specific SAD Guess Constructed =============
 Guess from on-the-fly superposition of atomic densities
 Warning: Energy on first SCF cycle will be non-variational
 A restricted Hartree-Fock SCF calculation will be
 performed using Pulay DIIS extrapolation
 SCF converges when DIIS error is below 1.0E-08
 using 10 threads for integral computing
 -------------------------------------------------------
 OpenMP Integral computing Module                
 Release: version 1.0, May 2013, Q-Chem Inc. Pittsburgh 
 -------------------------------------------------------
 ---------------------------------------
  Cycle       Energy         DIIS Error
 ---------------------------------------
    1    -153.5100248316      5.93E-02
    2    -153.2842998728      1.22E-02
    3    -153.3468100755      1.06E-02
    4    -153.4353112218      6.59E-04
    5    -153.4360901303      1.86E-04
    6    -153.4361414015      3.97E-05
    7    -153.4361443970      1.00E-05
    8    -153.4361447300      2.86E-06
    9    -153.4361447555      4.65E-07
   10    -153.4361447561      6.59E-08
   11    -153.4361447562      1.68E-08
   12    -153.4361447561      5.50E-09 Convergence criterion met
 ---------------------------------------
 SCF time:  CPU 13.20 s  wall 1.33 s
 SCF   energy in the final basis set = -153.43614476
 Total energy in the final basis set = -153.43614476
================================================================================
|                                                                              |
|                                 A D C  M A N                                 |
|                                                                              |
 ------------------------------------------------------------------------------ 
|                                                                              |
| Components:                                                                  |
|                                                                              |
| - libvmm - 1.3-trunk                                                         |
|   Authors:                                                                   |
|   Evgeny Epifanovsky, Ilya Kaliman                                           |
|                                                                              |
| - libtensor - 2.5-trunk                                                      |
|   Authors:                                                                   |
|   Evgeny Epifanovsky, Michael Wormit, Dmitry Zuev, Sam Manzer,               |
|   Ilya Kaliman                                                               |
|                                                                              |
| - libwfa - 1.1-trunk                                                         |
|   Authors:                                                                   |
|   Felix Plasser, Stefanie Mewes (Baeppler), Benjamin Thomitzni,              |
|   Michael Wormit, Feng Chen, Anna I. Krylov, Pavel Pokhilko                  |
|                                                                              |
| - libadc - 1.1-trunk                                                         |
|   Authors:                                                                   |
|   Michael Wormit, Adrian L. Dempwolff, Philipp H. P. Harbach,                |
|   Caroline Krauter, Dirk Rehn, Matthias Schneider, Jan Wenzel                |
|                                                                              |
| - adcman - 2.6-trunk                                                         |
|   Authors:                                                                   |
|   Michael Wormit, Adrian L. Dempwolff, Philipp H. P. Harbach,                |
|   Caroline Krauter, Daniel Lefrancois, Jan-Michael Mewes, Dirk Rehn,         |
|   Matthias Schneider, Jan Wenzel, Andreas Dreuw                              |
|                                                                              |
| Authors of earlier versions of ADCMAN:                                       |
| Andreas Dreuw, Jan Hendrik Starcke, Dirk Rehn, Michael Wormit                |
|                                                                              |
================================================================================

 
 Alpha MOs, Restricted
 -- Occupied --                  
-20.203 -11.129 -11.127  -0.934  -0.908  -0.675  -0.551  -0.460
  1 A1    2 A1    1 B1    3 A1    4 A1    2 B1    5 A1    6 A1                 
 -0.406  -0.270  -0.256  -0.112  -0.112
  3 B1    1 B2    7 A1    2 B2    4 B1                                         
 -- Virtual --                   
  0.146   0.159   0.179   0.183   0.183   0.209   0.246   0.272
  5 B1    8 A1    3 B2    9 A1    1 A2    6 B1   10 A1    2 A2                 
  0.302   0.351   0.377   0.404   0.411   0.419   0.424   0.429
  7 B1   11 A1   12 A1    8 B1   13 A1   14 A1    4 B2    9 B1                 
  0.444   0.453   0.465   0.478   0.504   0.523   0.594   0.663
  5 B2   15 A1   10 B1   11 B1    3 A2   16 A1   17 A1   12 B1                 
  0.718   0.933   0.966   1.030   1.043   1.108   1.146   1.161
 13 B1   18 A1   19 A1   20 A1   14 B1   21 A1   15 B1   22 A1                 
  1.173   1.214   1.219   1.222   1.222   1.265   1.275   1.320
  6 B2    4 A2   23 A1   16 B1    7 B2    8 B2   17 B1   24 A1                 
  1.320   1.376   1.393   1.395   1.525   1.543   1.727   1.727
  5 A2   18 B1    6 A2    9 B2   19 B1   25 A1   10 B2   26 A1                 
  1.736   1.753   1.836   1.978   2.024   2.051   2.063   2.127
 20 B1   21 B1   27 A1    7 A2   28 A1   11 B2   22 B1   12 B2                 
  2.167   2.199   2.286   2.373   2.376   2.434   2.521   2.534
 29 A1   30 A1    8 A2   13 B2   23 B1   24 B1    9 A2   31 A1                 
  2.581   2.683   2.694   2.929   2.945   3.034   3.362   3.449
 32 A1   25 B1   26 B1   33 A1   34 A1   35 A1   27 B1   28 B1                 
  3.926   3.929   3.955   3.955   4.398
 14 B2   29 B1   36 A1   10 A2   37 A1                                         
 
 Beta MOs, Restricted
 -- Occupied --                  
-20.203 -11.129 -11.127  -0.934  -0.908  -0.675  -0.551  -0.460
  1 A1    2 A1    1 B1    3 A1    4 A1    2 B1    5 A1    6 A1                 
 -0.406  -0.270  -0.256  -0.112  -0.112
  3 B1    1 B2    7 A1    2 B2    4 B1                                         
 -- Virtual --                   
  0.146   0.159   0.179   0.183   0.183   0.209   0.246   0.272
  5 B1    8 A1    3 B2    9 A1    1 A2    6 B1   10 A1    2 A2                 
  0.302   0.351   0.377   0.404   0.411   0.419   0.424   0.429
  7 B1   11 A1   12 A1    8 B1   13 A1   14 A1    4 B2    9 B1                 
  0.444   0.453   0.465   0.478   0.504   0.523   0.594   0.663
  5 B2   15 A1   10 B1   11 B1    3 A2   16 A1   17 A1   12 B1                 
  0.718   0.933   0.966   1.030   1.043   1.108   1.146   1.161
 13 B1   18 A1   19 A1   20 A1   14 B1   21 A1   15 B1   22 A1                 
  1.173   1.214   1.219   1.222   1.222   1.265   1.275   1.320
  6 B2    4 A2   23 A1   16 B1    7 B2    8 B2   17 B1   24 A1                 
  1.320   1.376   1.393   1.395   1.525   1.543   1.727   1.727
  5 A2   18 B1    6 A2    9 B2   19 B1   25 A1   10 B2   26 A1                 
  1.736   1.753   1.836   1.978   2.024   2.051   2.063   2.127
 20 B1   21 B1   27 A1    7 A2   28 A1   11 B2   22 B1   12 B2                 
  2.167   2.199   2.286   2.373   2.376   2.434   2.521   2.534
 29 A1   30 A1    8 A2   13 B2   23 B1   24 B1    9 A2   31 A1                 
  2.581   2.683   2.694   2.929   2.945   3.034   3.362   3.449
 32 A1   25 B1   26 B1   33 A1   34 A1   35 A1   27 B1   28 B1                 
  3.926   3.929   3.955   3.955   4.398
 14 B2   29 B1   36 A1   10 A2   37 A1                                         

--------------------------------------------------------------------------------
                                   HF Summary                                   
--------------------------------------------------------------------------------
  Energy:                                                 -153.4361447561 a.u.
  Dip. moment [a.u.]:                  [   0.000000,   -0.000000,    5.258480]
  Total dipole [Debye]:                                              13.365725
  <r^2> [a.u.]:                        [  55.339508,   19.567526,  599.178697]
  Total <r^2> [a.u.]:                                               674.085731
--------------------------------------------------------------------------------

--------------------------------------------------------------------------------
                                 MP(2) Summary                                  
--------------------------------------------------------------------------------
  MP energy contribution:                                   -0.5251422308 a.u.
  Total energy:                                           -153.9612869870 a.u.
  Dip. moment [a.u.]:                  [   0.000000,    0.000000,    5.293982]
  Total dipole [Debye]:                                              13.455962
  <r^2> [a.u.]:                        [  56.309619,   20.268560,  600.351679]
  Total <r^2> [a.u.]:                                               676.929858

  Density matrix analysis:
  ------------------------
  NOs
    Occupation of frontier NOs:
       0.0447   1.9370
    Number of electrons: 26.000000
    Number of unpaired electrons: n_u =  0.71404, n_u,nl =  0.08546
    NO participation ratio (PR_NO): 22.911333
  
  
  Mulliken Population Analysis
  Atom      Charge (e)              h+              e-           Del q
  --------------------------------------------------------------------
   1 C       -0.215053        0.087962       -0.102851       -0.014888
   2 C       -0.215053        0.087962       -0.102851       -0.014888
   3 H        0.150627        0.017696       -0.010331        0.007364
   4 H        0.150627        0.017696       -0.010331        0.007364
   5 H        0.065562        0.018500       -0.010947        0.007552
   6 H        0.065562        0.018500       -0.010947        0.007552
   7 O       -1.036090        0.283753       -0.270373        0.013381
   8 H        0.033817        0.016901       -0.030339       -0.013438
  --------------------------------------------------------------------
  Sum:       -1.000000        0.548969       -0.548969        0.000000
  
  Multipole moment analysis of the density matrix
    Molecular charge:                      -1.000000
    Number of electrons:                   26.000000
      Center of electronic charge [Ang]: [ -0.000000,  -0.000000,  -0.107748]
    Total nuclear charge:                  25.000000
      Center of nuclear charge [Ang]:    [ -0.000000,   0.000000,  -0.000000]
    Dipole moment [D]:                     13.455958
      Cartesian components [D]:          [  0.000000,   0.000000,  13.455958]
    RMS size of the density [Ang]:         2.697989
      Cartesian components [Ang]:        [  0.778764,   0.467225,   2.540546]
  
  Exciton analysis of the difference density matrix
    <r_h> [Ang]:                  [ -0.000000,   0.000000,  -0.909711]
    <r_e> [Ang]:                  [ -0.000000,  -0.000000,  -0.943933]
    |<r_e - r_h>| [Ang]:            0.034222
    Hole size [Ang]:                2.814967
      Cartesian components [Ang]: [  0.831640,   0.715852,   2.592291]
    Electron size [Ang]:            3.051457
      Cartesian components [Ang]: [  1.089255,   0.932760,   2.693487]
--------------------------------------------------------------------------------
  Starting Davidson for singlet states of irrep B2 ... 
--------------------------------------------------------------------------------
   It NVec Conv  Avg. Norm  Max. Norm  Conv. states           Remark
--------------------------------------------------------------------------------
       100    0  1.538e-01  6.090e-01  0.2584 n n n n n n n n Guess.
    1  110    0  1.672e-02  8.429e-02  0.0820 n n n n n n n n 
    2  120    0  3.035e-02  2.988e-01  0.0805 n n n n n n n n 
    3  130    0  9.951e-03  8.429e-02  0.0805 n n n n n n n n 
    4  140    0  1.835e-03  1.594e-02  0.0805 n n n n n n n n 
    5  150    4  2.319e-04  1.983e-03  0.0805 y y y n y n n n 
    6  160    7  2.669e-05  2.017e-04  0.0805 y y y y y y n n 
    7  170    8  2.745e-06  2.102e-05  0.0805 y y y y y y y n 
    8  180   10  3.217e-07  2.900e-06  0.0805 y y y y y y y y Converged.
--------------------------------------------------------------------------------
  Davidson Summary: 
 ------------------------------------------------------------
  State  0: excitation energy =   0.0805 a.u.   (converged)
  State  1: excitation energy =   0.0916 a.u.   (converged)
  State  2: excitation energy =   0.0939 a.u.   (converged)
  State  3: excitation energy =   0.1356 a.u.   (converged)
  State  4: excitation energy =   0.1573 a.u.   (converged)
  State  5: excitation energy =   0.1743 a.u.   (converged)
  State  6: excitation energy =   0.2307 a.u.   (converged)
  State  7: excitation energy =   0.2465 a.u.   (converged)
  State  8: excitation energy =   0.2627 a.u.   (converged)
  State  9: excitation energy =   0.2830 a.u.   (converged)
 ------------------------------------------------------------


--------------------------------------------------------------------------------
                   State-averaged natural transition orbitals
--------------------------------------------------------------------------------
--------------------------------------------------------------------------------

--------------------------------------------------------------------------------
                             Excited State Summary
--------------------------------------------------------------------------------
--------------------------------------------------------------------------------

  Excited state 1 (singlet, B2)                                    [converged]
  ----------------------------------------------------------------------------
  Term symbol:  1 (1) B2                                    R^2 =  1.55123e-09

  Total energy:                                           -153.8808338127 a.u.
  Excitation energy:                                               2.189242 eV

  Osc. strength:                                                      0.004647
  Trans. dip. moment [a.u.]:           [  -0.000000,   -0.294356,   -0.000000]
  <i|r^2|0> [a.u.]:                    [  -0.000000,   -0.000000,    0.000000]

  Dip. moment [a.u.]:                  [   0.000000,   -0.000000,   -6.592555]
  Total dipole [Debye]:                                              16.756606
  <r^2> [a.u.]:                        [  75.725523,   27.030789,  612.868914]
  Total <r^2> [a.u.]:                                               715.625226

  V1^2 = 0.8587, V2^2 = 0.1413

  Important amplitudes:
      occ i      occ j       vir a       vir b          v   
    ---------------------------------------------------------
     2 (B2) A               8 (A1) A                 -0.6452
     2 (B2) A               9 (A1) A                  0.0850
    ---------------------------------------------------------

  Density matrix analysis:
  ------------------------
  NOs
    Occupation of frontier NOs:
       0.9580   0.9962
    Number of electrons: 26.000000
    Number of unpaired electrons: n_u =  2.75372, n_u,nl =  2.11939
    NO participation ratio (PR_NO):  3.903399
  
  
  Mulliken Population Analysis
  Atom      Charge (e)              h+              e-           Del q
  --------------------------------------------------------------------
   1 C       -0.717075        0.032978       -0.535000       -0.502022
   2 C       -0.717075        0.032978       -0.535000       -0.502022
   3 H        0.113533       -0.001890       -0.035205       -0.037095
   4 H        0.113533       -0.001890       -0.035205       -0.037095
   5 H        0.097755        0.032637       -0.000443        0.032193
   6 H        0.097755        0.032637       -0.000443        0.032193
   7 O       -0.169514        1.403776       -0.537200        0.866576
   8 H        0.181088        0.137866        0.009405        0.147271
  --------------------------------------------------------------------
  Sum:       -1.000000        1.669092       -1.669092       -0.000000
  
  Multipole moment analysis of the density matrix
    Molecular charge:                      -1.000000
    Number of electrons:                   26.000000
      Center of electronic charge [Ang]: [ -0.000000,   0.000000,   0.134178]
    Total nuclear charge:                  25.000000
      Center of nuclear charge [Ang]:    [ -0.000000,   0.000000,  -0.000000]
    Dipole moment [D]:                     16.756601
      Cartesian components [D]:          [  0.000000,  -0.000000, -16.756601]
    RMS size of the density [Ang]:         2.772997
      Cartesian components [Ang]:        [  0.903099,   0.539565,   2.565696]
  
  Exciton analysis of the difference density matrix
    <r_h> [Ang]:                  [  0.000000,   0.000000,  -2.817320]
    <r_e> [Ang]:                  [ -0.000000,   0.000000,   0.951247]
    |<r_e - r_h>| [Ang]:            3.768567
    Hole size [Ang]:                2.040807
      Cartesian components [Ang]: [  0.828911,   0.880313,   1.644035]
    Electron size [Ang]:            4.205872
      Cartesian components [Ang]: [  1.986091,   1.381836,   3.440251]

  Transition density matrix analysis:
  -----------------------------------
  
  CT numbers (Mulliken)
    omega =     0.8435
    <Phe> =    -0.0007
  
  Exciton analysis of the transition density matrix
    Trans. dipole moment [D]:             0.374089
      Cartesian components [D]:         [ -0.000000,  -0.374089,  -0.000000]
    <r_h> [Ang]:                        [ -0.000000,   0.000000,  -3.197288]
    <r_e> [Ang]:                        [ -0.000000,   0.000000,   3.138373]
    |<r_e - r_h>| [Ang]:                  6.335661
    Hole size [Ang]:                      1.088888
      Cartesian components [Ang]:       [  0.484823,   0.839671,   0.495556]
    Electron size [Ang]:                  3.775548
      Cartesian components [Ang]:       [  2.459015,   1.683416,   2.318215]
    RMS electron-hole separation [Ang]:   7.455188
      Cartesian components [Ang]:       [  2.506261,   1.880722,   6.764715]
    Covariance(r_h, r_e) [Ang^2]:         0.000603
    Correlation coefficient:              0.000147
    Center-of-mass size [Ang]:            1.964793
      Cartesian components [Ang]:       [  1.253223,   0.940845,   1.185181]

  Decomposition into state-averaged NTOs
    H- 0 -> L+ 0:  0.5935 ( 70.5%)
    H- 0 -> L+ 6: -0.1483 (  4.4%)
    H- 0 -> L+ 3:  0.1291 (  3.3%)
    H- 0 -> L+ 7:  0.1280 (  3.3%)
    H- 0 -> L+ 1: -0.0858 (  1.5%)
    H- 0 -> L+ 2: -0.0832 (  1.4%)
                   omega =  84.3%
  ----------------------------------------------------------------------------


  Excited state 2 (singlet, B2)                                    [converged]
  ----------------------------------------------------------------------------
  Term symbol:  2 (1) B2                                    R^2 =  4.80146e-09

  Total energy:                                           -153.8696959784 a.u.
  Excitation energy:                                               2.492318 eV

  Osc. strength:                                                      0.005878
  Trans. dip. moment [a.u.]:           [  -0.000000,   -0.310260,    0.000000]
  <i|r^2|0> [a.u.]:                    [   0.000000,   -0.000000,    0.000000]

  Dip. moment [a.u.]:                  [   0.000000,    0.000000,   -2.899537]
  Total dipole [Debye]:                                               7.369889
  <r^2> [a.u.]:                        [  86.279932,   26.045992,  580.463363]
  Total <r^2> [a.u.]:                                               692.789287

  V1^2 = 0.8663, V2^2 = 0.1337

  Important amplitudes:
      occ i      occ j       vir a       vir b          v   
    ---------------------------------------------------------
     2 (B2) A               9 (A1) A                  0.6139
     2 (B2) A              10 (A1) A                  0.1981
    ---------------------------------------------------------

  Density matrix analysis:
  ------------------------
  NOs
    Occupation of frontier NOs:
       0.9628   0.9922
    Number of electrons: 26.000000
    Number of unpaired electrons: n_u =  2.75486, n_u,nl =  2.11968
    NO participation ratio (PR_NO):  3.903861
  
  
  Mulliken Population Analysis
  Atom      Charge (e)              h+              e-           Del q
  --------------------------------------------------------------------
   1 C       -0.724073        0.014779       -0.523799       -0.509021
   2 C       -0.724073        0.014779       -0.523799       -0.509021
   3 H        0.146701        0.000578       -0.004504       -0.003926
   4 H        0.146701        0.000578       -0.004504       -0.003926
   5 H        0.076852        0.006811        0.004480        0.011291
   6 H        0.076852        0.006811        0.004480        0.011291
   7 O       -0.152157        1.399107       -0.515174        0.883933
   8 H        0.153197        0.130336       -0.010956        0.119380
  --------------------------------------------------------------------
  Sum:       -1.000000        1.573776       -1.573776       -0.000000
  
  Multipole moment analysis of the density matrix
    Molecular charge:                      -1.000000
    Number of electrons:                   26.000000
      Center of electronic charge [Ang]: [ -0.000000,  -0.000000,   0.059014]
    Total nuclear charge:                  25.000000
      Center of nuclear charge [Ang]:    [ -0.000000,   0.000000,  -0.000000]
    Dipole moment [D]:                     7.369887
      Cartesian components [D]:          [  0.000000,   0.000000,  -7.369887]
    RMS size of the density [Ang]:         2.730949
      Cartesian components [Ang]:        [  0.963983,   0.529645,   2.499660]
  
  Exciton analysis of the difference density matrix
    <r_h> [Ang]:                  [  0.000000,   0.000000,  -3.080443]
    <r_e> [Ang]:                  [ -0.000000,  -0.000000,  -0.325399]
    |<r_e - r_h>| [Ang]:            2.755044
    Hole size [Ang]:                1.676984
      Cartesian components [Ang]: [  0.817363,   0.895953,   1.158216]
    Electron size [Ang]:            3.875236
      Cartesian components [Ang]: [  2.449658,   1.353046,   2.680653]

  Transition density matrix analysis:
  -----------------------------------
  
  CT numbers (Mulliken)
    omega =     0.8509
    <Phe> =    -0.0012
  
  Exciton analysis of the transition density matrix
    Trans. dipole moment [D]:             0.394301
      Cartesian components [D]:         [ -0.000000,  -0.394301,   0.000000]
    <r_h> [Ang]:                        [ -0.000000,   0.000000,  -3.196995]
    <r_e> [Ang]:                        [ -0.000000,  -0.000000,   1.098200]
    |<r_e - r_h>| [Ang]:                  4.295194
    Hole size [Ang]:                      1.087241
      Cartesian components [Ang]:       [  0.485890,   0.837361,   0.494803]
    Electron size [Ang]:                  4.009311
      Cartesian components [Ang]:       [  2.998834,   1.598280,   2.127691]
    RMS electron-hole separation [Ang]:   5.975016
      Cartesian components [Ang]:       [  3.037683,   1.803235,   4.818883]
    Covariance(r_h, r_e) [Ang^2]:         0.002273
    Correlation coefficient:              0.000521
    Center-of-mass size [Ang]:            2.077331
      Cartesian components [Ang]:       [  1.519101,   0.902730,   1.092115]

  Decomposition into state-averaged NTOs
    H- 0 -> L+ 3:  0.4765 ( 45.4%)
    H- 0 -> L+ 6:  0.3718 ( 27.6%)
    H- 0 -> L+ 2: -0.2005 (  8.0%)
    H- 0 -> L+ 1: -0.0937 (  1.8%)
    H- 0 -> L+ 7: -0.0931 (  1.7%)
                   omega =  85.1%
  ----------------------------------------------------------------------------


  Excited state 3 (singlet, B2)                                    [converged]
  ----------------------------------------------------------------------------
  Term symbol:  3 (1) B2                                    R^2 =  1.62855e-09

  Total energy:                                           -153.8673562114 a.u.
  Excitation energy:                                               2.555986 eV

  Osc. strength:                                                      0.000227
  Trans. dip. moment [a.u.]:           [   0.000000,   -0.060205,    0.000000]
  <i|r^2|0> [a.u.]:                    [   0.000000,    0.000000,   -0.000000]

  Dip. moment [a.u.]:                  [  -0.000000,    0.000000,   -4.225868]
  Total dipole [Debye]:                                              10.741088
  <r^2> [a.u.]:                        [  72.143674,   36.197296,  578.090541]
  Total <r^2> [a.u.]:                                               686.431511

  V1^2 = 0.8575, V2^2 = 0.1425

  Important amplitudes:
      occ i      occ j       vir a       vir b          v   
    ---------------------------------------------------------
     4 (B1) A               1 (A2) A                  0.6327
     4 (B1) A               2 (A2) A                 -0.1615
    ---------------------------------------------------------

  Density matrix analysis:
  ------------------------
  NOs
    Occupation of frontier NOs:
       0.9620   0.9931
    Number of electrons: 26.000000
    Number of unpaired electrons: n_u =  2.75032, n_u,nl =  2.11565
    NO participation ratio (PR_NO):  3.893227
  
  
  Mulliken Population Analysis
  Atom      Charge (e)              h+              e-           Del q
  --------------------------------------------------------------------
   1 C       -0.668972        0.061521       -0.515440       -0.453919
   2 C       -0.668972        0.061521       -0.515440       -0.453919
   3 H        0.109263        0.001074       -0.042438       -0.041364
   4 H        0.109263        0.001074       -0.042438       -0.041364
   5 H        0.060369        0.003693       -0.008886       -0.005193
   6 H        0.060369        0.003693       -0.008886       -0.005193
   7 O       -0.143067        1.401841       -0.508818        0.893023
   8 H        0.141746        0.130557       -0.022628        0.107929
  --------------------------------------------------------------------
  Sum:       -1.000000        1.664973       -1.664973       -0.000000
  
  Multipole moment analysis of the density matrix
    Molecular charge:                      -1.000000
    Number of electrons:                   26.000000
      Center of electronic charge [Ang]: [  0.000000,  -0.000000,   0.086009]
    Total nuclear charge:                  25.000000
      Center of nuclear charge [Ang]:    [ -0.000000,   0.000000,  -0.000000]
    Dipole moment [D]:                     10.741085
      Cartesian components [D]:          [ -0.000000,   0.000000, -10.741085]
    RMS size of the density [Ang]:         2.717663
      Cartesian components [Ang]:        [  0.881482,   0.624385,   2.493758]
  
  Exciton analysis of the difference density matrix
    <r_h> [Ang]:                  [  0.000000,   0.000000,  -2.830102]
    <r_e> [Ang]:                  [  0.000000,  -0.000000,   0.195585]
    |<r_e - r_h>| [Ang]:            3.025687
    Hole size [Ang]:                1.973921
      Cartesian components [Ang]: [  0.914955,   0.792758,   1.559088]
    Electron size [Ang]:            3.669557
      Cartesian components [Ang]: [  1.870893,   1.818650,   2.580295]

  Transition density matrix analysis:
  -----------------------------------
  
  CT numbers (Mulliken)
    omega =     0.8378
    <Phe> =     0.0000
  
  Exciton analysis of the transition density matrix
    Trans. dipole moment [D]:             0.076513
      Cartesian components [D]:         [  0.000000,  -0.076513,   0.000000]
    <r_h> [Ang]:                        [  0.000000,   0.000000,  -3.197408]
    <r_e> [Ang]:                        [  0.000000,  -0.000000,   1.836741]
    |<r_e - r_h>| [Ang]:                  5.034149
    Hole size [Ang]:                      1.090258
      Cartesian components [Ang]:       [  0.839822,   0.487004,   0.496173]
    Electron size [Ang]:                  3.476533
      Cartesian components [Ang]:       [  2.309308,   2.246272,   1.306767]
    RMS electron-hole separation [Ang]:   6.213821
      Cartesian components [Ang]:       [  2.456090,   2.298407,   5.224607]
    Covariance(r_h, r_e) [Ang^2]:         0.003017
    Correlation coefficient:              0.000796
    Center-of-mass size [Ang]:            1.822154
      Cartesian components [Ang]:       [  1.229231,   1.149255,   0.698892]

  Decomposition into state-averaged NTOs
    H- 1 -> L+ 5: -0.5370 ( 57.7%)
    H- 1 -> L+ 8:  0.3590 ( 25.8%)
                   omega =  83.8%
  ----------------------------------------------------------------------------


  Excited state 4 (singlet, B2)                                    [converged]
  ----------------------------------------------------------------------------
  Term symbol:  4 (1) B2                                    R^2 =  1.28466e-08

  Total energy:                                           -153.8256440715 a.u.
  Excitation energy:                                               3.691031 eV

  Osc. strength:                                                      0.010425
  Trans. dip. moment [a.u.]:           [  -0.000000,   -0.339527,   -0.000000]
  <i|r^2|0> [a.u.]:                    [  -0.000000,   -0.000000,   -0.000000]

  Dip. moment [a.u.]:                  [   0.000000,   -0.000000,   -3.328925]
  Total dipole [Debye]:                                               8.461285
  <r^2> [a.u.]:                        [  68.561803,   29.487606,  580.510353]
  Total <r^2> [a.u.]:                                               678.559762

  V1^2 = 0.8670, V2^2 = 0.1330

  Important amplitudes:
      occ i      occ j       vir a       vir b          v   
    ---------------------------------------------------------
     2 (B2) A              10 (A1) A                  0.6067
     2 (B2) A               9 (A1) A                 -0.2089
    ---------------------------------------------------------

  Density matrix analysis:
  ------------------------
  NOs
    Occupation of frontier NOs:
       0.9598   0.9937
    Number of electrons: 26.000000
    Number of unpaired electrons: n_u =  2.74829, n_u,nl =  2.11602
    NO participation ratio (PR_NO):  3.893122
  
  
  Mulliken Population Analysis
  Atom      Charge (e)              h+              e-           Del q
  --------------------------------------------------------------------
   1 C       -0.743221        0.039146       -0.567314       -0.528168
   2 C       -0.743221        0.039146       -0.567314       -0.528168
   3 H        0.153151       -0.001005        0.003528        0.002523
   4 H        0.153151       -0.001005        0.003528        0.002523
   5 H        0.104893        0.001807        0.037524        0.039331
   6 H        0.104893        0.001807        0.037524        0.039331
   7 O       -0.170734        1.391470       -0.526113        0.865356
   8 H        0.141089        0.125966       -0.018694        0.107272
  --------------------------------------------------------------------
  Sum:       -1.000000        1.597333       -1.597333        0.000000
  
  Multipole moment analysis of the density matrix
    Molecular charge:                      -1.000000
    Number of electrons:                   26.000000
      Center of electronic charge [Ang]: [ -0.000000,   0.000000,   0.067754]
    Total nuclear charge:                  25.000000
      Center of nuclear charge [Ang]:    [ -0.000000,   0.000000,  -0.000000]
    Dipole moment [D]:                     8.461282
      Cartesian components [D]:          [  0.000000,  -0.000000,  -8.461282]
    RMS size of the density [Ang]:         2.702540
      Cartesian components [Ang]:        [  0.859321,   0.563552,   2.499539]
  
  Exciton analysis of the difference density matrix
    <r_h> [Ang]:                  [  0.000000,   0.000000,  -2.968838]
    <r_e> [Ang]:                  [ -0.000000,   0.000000,  -0.112173]
    |<r_e - r_h>| [Ang]:            2.856665
    Hole size [Ang]:                1.816904
      Cartesian components [Ang]: [  0.814061,   0.900397,   1.351936]
    Electron size [Ang]:            3.519701
      Cartesian components [Ang]: [  1.676492,   1.557853,   2.674092]

  Transition density matrix analysis:
  -----------------------------------
  
  CT numbers (Mulliken)
    omega =     0.8510
    <Phe> =    -0.0021
  
  Exciton analysis of the transition density matrix
    Trans. dipole moment [D]:             0.431496
      Cartesian components [D]:         [ -0.000000,  -0.431496,  -0.000000]
    <r_h> [Ang]:                        [ -0.000000,   0.000000,  -3.196672]
    <r_e> [Ang]:                        [ -0.000000,   0.000000,   1.324494]
    |<r_e - r_h>| [Ang]:                  4.521165
    Hole size [Ang]:                      1.086459
      Cartesian components [Ang]:       [  0.483579,   0.837468,   0.495169]
    Electron size [Ang]:                  3.365717
      Cartesian components [Ang]:       [  1.983884,   1.866782,   1.976710]
    RMS electron-hole separation [Ang]:   5.739389
      Cartesian components [Ang]:       [  2.041862,   2.043515,   4.959379]
    Covariance(r_h, r_e) [Ang^2]:         0.004396
    Correlation coefficient:              0.001202
    Center-of-mass size [Ang]:            1.768985
      Cartesian components [Ang]:       [  1.021039,   1.024268,   1.018658]

  Decomposition into state-averaged NTOs
    H- 0 -> L+ 6: -0.4684 ( 43.9%)
    H- 0 -> L+ 2: -0.2966 ( 17.6%)
    H- 0 -> L+ 0: -0.2302 ( 10.6%)
    H- 0 -> L+ 3:  0.2163 (  9.4%)
    H- 0 -> L+ 1: -0.1253 (  3.1%)
                   omega =  85.1%
  ----------------------------------------------------------------------------


  Excited state 5 (singlet, B2)                                    [converged]
  ----------------------------------------------------------------------------
  Term symbol:  5 (1) B2                                    R^2 =  7.34443e-09

  Total energy:                                           -153.8039385361 a.u.
  Excitation energy:                                               4.281669 eV

  Osc. strength:                                                      0.000547
  Trans. dip. moment [a.u.]:           [  -0.000000,    0.072231,   -0.000000]
  <i|r^2|0> [a.u.]:                    [   0.000000,   -0.000000,   -0.000000]

  Dip. moment [a.u.]:                  [   0.000000,    0.000000,   -4.233081]
  Total dipole [Debye]:                                              10.759420
  <r^2> [a.u.]:                        [  70.003113,   33.940465,  577.797977]
  Total <r^2> [a.u.]:                                               681.741555

  V1^2 = 0.8500, V2^2 = 0.1500

  Important amplitudes:
      occ i      occ j       vir a       vir b          v   
    ---------------------------------------------------------
     4 (B1) A               2 (A2) A                 -0.6253
     4 (B1) A               1 (A2) A                 -0.1687
    ---------------------------------------------------------

  Density matrix analysis:
  ------------------------
  NOs
    Occupation of frontier NOs:
       0.9587   0.9948
    Number of electrons: 26.000000
    Number of unpaired electrons: n_u =  2.74234, n_u,nl =  2.11052
    NO participation ratio (PR_NO):  3.879167
  
  
  Mulliken Population Analysis
  Atom      Charge (e)              h+              e-           Del q
  --------------------------------------------------------------------
   1 C       -0.623620        0.109198       -0.517766       -0.408568
   2 C       -0.623620        0.109198       -0.517766       -0.408568
   3 H        0.088418        0.001709       -0.063918       -0.062209
   4 H        0.088418        0.001709       -0.063918       -0.062209
   5 H        0.035864        0.003854       -0.033551       -0.029698
   6 H        0.035864        0.003854       -0.033551       -0.029698
   7 O       -0.140574        1.391375       -0.495859        0.895515
   8 H        0.139250        0.127339       -0.021906        0.105433
  --------------------------------------------------------------------
  Sum:       -1.000000        1.748234       -1.748234       -0.000000
  
  Multipole moment analysis of the density matrix
    Molecular charge:                      -1.000000
    Number of electrons:                   26.000000
      Center of electronic charge [Ang]: [ -0.000000,  -0.000000,   0.086156]
    Total nuclear charge:                  25.000000
      Center of nuclear charge [Ang]:    [ -0.000000,   0.000000,  -0.000000]
    Dipole moment [D]:                     10.759417
      Cartesian components [D]:          [  0.000000,   0.000000, -10.759417]
    RMS size of the density [Ang]:         2.708350
      Cartesian components [Ang]:        [  0.868307,   0.604607,   2.493121]
  
  Exciton analysis of the difference density matrix
    <r_h> [Ang]:                  [  0.000000,   0.000000,  -2.567184]
    <r_e> [Ang]:                  [  0.000000,  -0.000000,   0.316585]
    |<r_e - r_h>| [Ang]:            2.883769
    Hole size [Ang]:                2.204779
      Cartesian components [Ang]: [  0.908815,   0.763627,   1.857950]
    Electron size [Ang]:            3.481664
      Cartesian components [Ang]: [  1.737625,   1.665252,   2.515867]

  Transition density matrix analysis:
  -----------------------------------
  
  CT numbers (Mulliken)
    omega =     0.8262
    <Phe> =     0.0000
  
  Exciton analysis of the transition density matrix
    Trans. dipole moment [D]:             0.091797
      Cartesian components [D]:         [ -0.000000,   0.091797,  -0.000000]
    <r_h> [Ang]:                        [  0.000000,   0.000000,  -3.197321]
    <r_e> [Ang]:                        [  0.000000,  -0.000000,   1.839260]
    |<r_e - r_h>| [Ang]:                  5.036581
    Hole size [Ang]:                      1.089620
      Cartesian components [Ang]:       [  0.840337,   0.484843,   0.496017]
    Electron size [Ang]:                  3.244103
      Cartesian components [Ang]:       [  2.155488,   2.096713,   1.217320]
    RMS electron-hole separation [Ang]:   6.088771
      Cartesian components [Ang]:       [  2.312367,   2.151973,   5.205295]
    Covariance(r_h, r_e) [Ang^2]:         0.002749
    Correlation coefficient:              0.000778
    Center-of-mass size [Ang]:            1.711503
      Cartesian components [Ang]:       [  1.157319,   1.076055,   0.657239]

  Decomposition into state-averaged NTOs
    H- 1 -> L+ 8:  0.5279 ( 55.7%)
    H- 1 -> L+ 5:  0.3666 ( 26.9%)
                   omega =  82.6%
  ----------------------------------------------------------------------------


  Excited state 6 (singlet, B2)                                    [converged]
  ----------------------------------------------------------------------------
  Term symbol:  6 (1) B2                                    R^2 =  2.71530e-08

  Total energy:                                           -153.7869404381 a.u.
  Excitation energy:                                               4.744211 eV

  Osc. strength:                                                      0.064664
  Trans. dip. moment [a.u.]:           [   0.000000,    0.745881,   -0.000000]
  <i|r^2|0> [a.u.]:                    [  -0.000000,    0.000000,   -0.000000]

  Dip. moment [a.u.]:                  [   0.000000,    0.000000,    5.639382]
  Total dipole [Debye]:                                              14.333881
  <r^2> [a.u.]:                        [  60.201231,   22.506414,  617.098094]
  Total <r^2> [a.u.]:                                               699.805738

  V1^2 = 0.9042, V2^2 = 0.0958

  Important amplitudes:
      occ i      occ j       vir a       vir b          v   
    ---------------------------------------------------------
     2 (B2) A              11 (A1) A                  0.4373
     2 (B2) A              12 (A1) A                  0.4127
    ---------------------------------------------------------

  Density matrix analysis:
  ------------------------
  NOs
    Occupation of frontier NOs:
       0.9658   0.9987
    Number of electrons: 26.000000
    Number of unpaired electrons: n_u =  2.69773, n_u,nl =  2.09602
    NO participation ratio (PR_NO):  3.720518
  
  
  Mulliken Population Analysis
  Atom      Charge (e)              h+              e-           Del q
  --------------------------------------------------------------------
   1 C       -0.208320        0.005615        0.001117        0.006732
   2 C       -0.208320        0.005615        0.001117        0.006732
   3 H        0.107124        0.001498       -0.045002       -0.043504
   4 H        0.107124        0.001498       -0.045002       -0.043504
   5 H        0.066647        0.000270        0.000815        0.001086
   6 H        0.066647        0.000270        0.000815        0.001086
   7 O       -1.680038        1.243578       -1.887526       -0.643948
   8 H        0.749136        0.166069        0.549251        0.715319
  --------------------------------------------------------------------
  Sum:       -1.000000        1.424413       -1.424413       -0.000000
  
  Multipole moment analysis of the density matrix
    Molecular charge:                      -1.000000
    Number of electrons:                   26.000000
      Center of electronic charge [Ang]: [ -0.000000,  -0.000000,  -0.114778]
    Total nuclear charge:                  25.000000
      Center of nuclear charge [Ang]:    [ -0.000000,   0.000000,  -0.000000]
    Dipole moment [D]:                     14.333877
      Cartesian components [D]:          [  0.000000,   0.000000,  14.333877]
    RMS size of the density [Ang]:         2.742984
      Cartesian components [Ang]:        [  0.805225,   0.492343,   2.575495]
  
  Exciton analysis of the difference density matrix
    <r_h> [Ang]:                  [ -0.000000,   0.000000,  -3.195051]
    <r_e> [Ang]:                  [  0.000000,  -0.000000,  -3.323369]
    |<r_e - r_h>| [Ang]:            0.128318
    Hole size [Ang]:                1.449280
      Cartesian components [Ang]: [  0.750366,   0.889402,   0.863903]
    Electron size [Ang]:            2.400251
      Cartesian components [Ang]: [  1.152436,   1.109495,   1.789445]

  Transition density matrix analysis:
  -----------------------------------
  
  CT numbers (Mulliken)
    omega =     0.8846
    <Phe> =    -0.0146
  
  Exciton analysis of the transition density matrix
    Trans. dipole moment [D]:             0.947921
      Cartesian components [D]:         [  0.000000,   0.947921,  -0.000000]
    <r_h> [Ang]:                        [ -0.000000,   0.000000,  -3.197855]
    <r_e> [Ang]:                        [  0.000000,  -0.000000,  -3.506159]
    |<r_e - r_h>| [Ang]:                  0.308304
    Hole size [Ang]:                      1.075272
      Cartesian components [Ang]:       [  0.478774,   0.829091,   0.489484]
    Electron size [Ang]:                  2.647856
      Cartesian components [Ang]:       [  1.268632,   1.234634,   1.969110]
    RMS electron-hole separation [Ang]:   2.872536
      Cartesian components [Ang]:       [  1.355764,   1.484381,   2.051823]
    Covariance(r_h, r_e) [Ang^2]:         0.005470
    Correlation coefficient:              0.001921
    Center-of-mass size [Ang]:            1.429885
      Cartesian components [Ang]:       [  0.678087,   0.744989,   1.014772]

  Decomposition into state-averaged NTOs
    H- 0 -> L+ 1:  0.5522 ( 61.0%)
    H- 0 -> L+ 2: -0.3602 ( 25.9%)
                   omega =  88.5%
  ----------------------------------------------------------------------------


  Excited state 7 (singlet, B2)                                    [converged]
  ----------------------------------------------------------------------------
  Term symbol:  7 (1) B2                                    R^2 =  1.73439e-07

  Total energy:                                           -153.7306311530 a.u.
  Excitation energy:                                               6.276464 eV

  Osc. strength:                                                      0.023061
  Trans. dip. moment [a.u.]:           [   0.000000,    0.387260,   -0.000000]
  <i|r^2|0> [a.u.]:                    [   0.000000,    0.000000,   -0.000000]

  Dip. moment [a.u.]:                  [   0.000000,    0.000000,   -1.790910]
  Total dipole [Debye]:                                               4.552040
  <r^2> [a.u.]:                        [  60.668382,   25.108327,  581.661078]
  Total <r^2> [a.u.]:                                               667.437787

  V1^2 = 0.8769, V2^2 = 0.1231

  Important amplitudes:
      occ i      occ j       vir a       vir b          v   
    ---------------------------------------------------------
     2 (B2) A              11 (A1) A                 -0.4651
     2 (B2) A              14 (A1) A                 -0.3403
    ---------------------------------------------------------

  Density matrix analysis:
  ------------------------
  NOs
    Occupation of frontier NOs:
       0.9623   0.9893
    Number of electrons: 26.000000
    Number of unpaired electrons: n_u =  2.73911, n_u,nl =  2.11255
    NO participation ratio (PR_NO):  3.877186
  
  
  Mulliken Population Analysis
  Atom      Charge (e)              h+              e-           Del q
  --------------------------------------------------------------------
   1 C       -0.308474        0.046545       -0.139966       -0.093421
   2 C       -0.308474        0.046545       -0.139966       -0.093421
   3 H        0.017903        0.004062       -0.136786       -0.132724
   4 H        0.017903        0.004062       -0.136786       -0.132724
   5 H       -0.027147        0.004525       -0.097234       -0.092709
   6 H       -0.027147        0.004525       -0.097234       -0.092709
   7 O       -0.382029        1.349690       -0.695630        0.654061
   8 H        0.017465        0.112581       -0.128933       -0.016352
  --------------------------------------------------------------------
  Sum:       -1.000000        1.572535       -1.572535       -0.000000
  
  Multipole moment analysis of the density matrix
    Molecular charge:                      -1.000000
    Number of electrons:                   26.000000
      Center of electronic charge [Ang]: [ -0.000000,  -0.000000,   0.036450]
    Total nuclear charge:                  25.000000
      Center of nuclear charge [Ang]:    [ -0.000000,   0.000000,  -0.000000]
    Dipole moment [D]:                     4.552039
      Cartesian components [D]:          [  0.000000,   0.000000,  -4.552039]
    RMS size of the density [Ang]:         2.680894
      Cartesian components [Ang]:        [  0.808343,   0.520024,   2.502669]
  
  Exciton analysis of the difference density matrix
    <r_h> [Ang]:                  [  0.000000,   0.000000,  -2.889705]
    <r_e> [Ang]:                  [ -0.000000,  -0.000000,  -0.505553]
    |<r_e - r_h>| [Ang]:            2.384152
    Hole size [Ang]:                1.893220
      Cartesian components [Ang]: [  0.803584,   0.893200,   1.463123]
    Electron size [Ang]:            3.160506
      Cartesian components [Ang]: [  1.192448,   1.288272,   2.628160]

  Transition density matrix analysis:
  -----------------------------------
  
  CT numbers (Mulliken)
    omega =     0.8591
    <Phe> =    -0.0082
  
  Exciton analysis of the transition density matrix
    Trans. dipole moment [D]:             0.492158
      Cartesian components [D]:         [  0.000000,   0.492158,  -0.000000]
    <r_h> [Ang]:                        [ -0.000000,   0.000000,  -3.196240]
    <r_e> [Ang]:                        [ -0.000000,  -0.000000,   0.457491]
    |<r_e - r_h>| [Ang]:                  3.653732
    Hole size [Ang]:                      1.082672
      Cartesian components [Ang]:       [  0.481741,   0.834177,   0.494220]
    Electron size [Ang]:                  3.097932
      Cartesian components [Ang]:       [  1.296449,   1.487524,   2.388237]
    RMS electron-hole separation [Ang]:   4.910226
      Cartesian components [Ang]:       [  1.382869,   1.702990,   4.392929]
    Covariance(r_h, r_e) [Ang^2]:         0.004398
    Correlation coefficient:              0.001311
    Center-of-mass size [Ang]:            1.641505
      Cartesian components [Ang]:       [  0.691625,   0.853959,   1.219405]

  Decomposition into state-averaged NTOs
    H- 0 -> L+ 2:  0.3568 ( 25.5%)
    H- 0 -> L+ 3:  0.3029 ( 18.4%)
    H- 0 -> L+ 7: -0.2960 ( 17.5%)
    H- 0 -> L+ 1:  0.2832 ( 16.0%)
    H- 0 -> L+ 6: -0.2033 (  8.3%)
                   omega =  85.9%
  ----------------------------------------------------------------------------


  Excited state 8 (singlet, B2)                                    [converged]
  ----------------------------------------------------------------------------
  Term symbol:  8 (1) B2                                    R^2 =  2.89959e-06

  Total energy:                                           -153.7147653284 a.u.
  Excitation energy:                                               6.708195 eV

  Osc. strength:                                                      0.000914
  Trans. dip. moment [a.u.]:           [   0.000000,    0.074570,    0.000000]
  <i|r^2|0> [a.u.]:                    [  -0.000000,   -0.000000,    0.000000]

  Dip. moment [a.u.]:                  [   0.000000,    0.000000,   -4.240876]
  Total dipole [Debye]:                                              10.779235
  <r^2> [a.u.]:                        [  65.691923,   50.357017,  581.061496]
  Total <r^2> [a.u.]:                                               697.110436

  V1^2 = 0.8672, V2^2 = 0.1328

  Important amplitudes:
      occ i      occ j       vir a       vir b          v   
    ---------------------------------------------------------
     7 (A1) A               3 (B2) A                 -0.6556
     7 (A1) A   2 (B2) B    3 (B2) A    5 (B2) B     -0.0521
    ---------------------------------------------------------

  Density matrix analysis:
  ------------------------
  NOs
    Occupation of frontier NOs:
       0.9749   0.9980
    Number of electrons: 26.000000
    Number of unpaired electrons: n_u =  2.79258, n_u,nl =  2.13325
    NO participation ratio (PR_NO):  3.934044
  
  
  Mulliken Population Analysis
  Atom      Charge (e)              h+              e-           Del q
  --------------------------------------------------------------------
   1 C       -0.681315        0.033299       -0.499561       -0.466263
   2 C       -0.681315        0.033299       -0.499561       -0.466263
   3 H        0.113325       -0.002218       -0.035084       -0.037302
   4 H        0.113325       -0.002218       -0.035084       -0.037302
   5 H        0.068537        0.004393       -0.001418        0.002976
   6 H        0.068537        0.004393       -0.001418        0.002976
   7 O       -0.329179        1.228744       -0.521834        0.706910
   8 H        0.328085        0.311594       -0.017325        0.294269
  --------------------------------------------------------------------
  Sum:       -1.000000        1.611284       -1.611284        0.000000
  
  Multipole moment analysis of the density matrix
    Molecular charge:                      -1.000000
    Number of electrons:                   26.000000
      Center of electronic charge [Ang]: [ -0.000000,  -0.000000,   0.086314]
    Total nuclear charge:                  25.000000
      Center of nuclear charge [Ang]:    [ -0.000000,   0.000000,  -0.000000]
    Dipole moment [D]:                     10.779231
      Cartesian components [D]:          [  0.000000,   0.000000, -10.779231]
    RMS size of the density [Ang]:         2.738733
      Cartesian components [Ang]:        [  0.841144,   0.736452,   2.500154]
  
  Exciton analysis of the difference density matrix
    <r_h> [Ang]:                  [  0.000000,   0.000000,  -3.009198]
    <r_e> [Ang]:                  [ -0.000000,  -0.000000,   0.122235]
    |<r_e - r_h>| [Ang]:            3.131433
    Hole size [Ang]:                1.770197
      Cartesian components [Ang]: [  0.793871,   0.771480,   1.381371]
    Electron size [Ang]:            3.959944
      Cartesian components [Ang]: [  1.503596,   2.413362,   2.756091]

  Transition density matrix analysis:
  -----------------------------------
  
  CT numbers (Mulliken)
    omega =     0.8498
    <Phe> =     0.0001
  
  Exciton analysis of the transition density matrix
    Trans. dipole moment [D]:             0.094769
      Cartesian components [D]:         [  0.000000,   0.094769,   0.000000]
    <r_h> [Ang]:                        [ -0.000000,   0.000000,  -3.245235]
    <r_e> [Ang]:                        [ -0.000000,  -0.000000,   1.840130]
    |<r_e - r_h>| [Ang]:                  5.085364
    Hole size [Ang]:                      1.008632
      Cartesian components [Ang]:       [  0.420848,   0.420668,   0.814411]
    Electron size [Ang]:                  3.897006
      Cartesian components [Ang]:       [  1.779002,   3.001147,   1.736354]
    RMS electron-hole separation [Ang]:   6.486654
      Cartesian components [Ang]:       [  1.828723,   3.031557,   5.435266]
    Covariance(r_h, r_e) [Ang^2]:        -0.005880
    Correlation coefficient:             -0.001496
    Center-of-mass size [Ang]:            2.011979
      Cartesian components [Ang]:       [  0.913742,   1.514707,   0.958540]

  Decomposition into state-averaged NTOs
    H- 3 -> L+ 4: -0.6518 ( 85.0%)
                   omega =  85.0%
  ----------------------------------------------------------------------------


  Excited state 9 (singlet, B2)                                    [converged]
  ----------------------------------------------------------------------------
  Term symbol:  9 (1) B2                                    R^2 =  3.17359e-08

  Total energy:                                           -153.6985683817 a.u.
  Excitation energy:                                               7.148937 eV

  Osc. strength:                                                      0.075584
  Trans. dip. moment [a.u.]:           [  -0.000000,   -0.656923,    0.000000]
  <i|r^2|0> [a.u.]:                    [  -0.000000,    0.000000,   -0.000000]

  Dip. moment [a.u.]:                  [   0.000000,   -0.000000,    2.485814]
  Total dipole [Debye]:                                               6.318310
  <r^2> [a.u.]:                        [  65.565286,   25.520522,  633.056529]
  Total <r^2> [a.u.]:                                               724.142337

  V1^2 = 0.9520, V2^2 = 0.0480

  Important amplitudes:
      occ i      occ j       vir a       vir b          v   
    ---------------------------------------------------------
     1 (B2) A               8 (A1) A                  0.6257
     1 (B2) A              10 (A1) A                  0.2086
    ---------------------------------------------------------

  Density matrix analysis:
  ------------------------
  NOs
    Occupation of frontier NOs:
       0.9829   0.9933
    Number of electrons: 26.000000
    Number of unpaired electrons: n_u =  2.59349, n_u,nl =  2.06326
    NO participation ratio (PR_NO):  3.415546
  
  
  Mulliken Population Analysis
  Atom      Charge (e)              h+              e-           Del q
  --------------------------------------------------------------------
   1 C       -0.364237        0.526126       -0.675311       -0.149185
   2 C       -0.364237        0.526126       -0.675311       -0.149185
   3 H        0.214396        0.056817        0.006951        0.063769
   4 H        0.214396        0.056817        0.006951        0.063769
   5 H        0.150565        0.111542       -0.026538        0.085004
   6 H        0.150565        0.111542       -0.026538        0.085004
   7 O       -1.044584        0.009065       -0.017559       -0.008494
   8 H        0.043136        0.008160        0.001159        0.009319
  --------------------------------------------------------------------
  Sum:       -1.000000        1.406196       -1.406196       -0.000000
  
  Multipole moment analysis of the density matrix
    Molecular charge:                      -1.000000
    Number of electrons:                   26.000000
      Center of electronic charge [Ang]: [ -0.000000,   0.000000,  -0.050594]
    Total nuclear charge:                  25.000000
      Center of nuclear charge [Ang]:    [ -0.000000,   0.000000,  -0.000000]
    Dipole moment [D]:                     6.318308
      Cartesian components [D]:          [  0.000000,  -0.000000,   6.318308]
    RMS size of the density [Ang]:         2.792255
      Cartesian components [Ang]:        [  0.840333,   0.524275,   2.610683]
  
  Exciton analysis of the difference density matrix
    <r_h> [Ang]:                  [ -0.000000,  -0.000000,   1.842321]
    <r_e> [Ang]:                  [ -0.000000,   0.000000,   2.899086]
    |<r_e - r_h>| [Ang]:            1.056765
    Hole size [Ang]:                1.673805
      Cartesian components [Ang]: [  1.018989,   0.871909,   1.001529]
    Electron size [Ang]:            2.681962
      Cartesian components [Ang]: [  1.697499,   1.343911,   1.582820]

  Transition density matrix analysis:
  -----------------------------------
  
  CT numbers (Mulliken)
    omega =     0.9207
    <Phe> =    -0.0084
  
  Exciton analysis of the transition density matrix
    Trans. dipole moment [D]:             0.834865
      Cartesian components [D]:         [ -0.000000,  -0.834865,   0.000000]
    <r_h> [Ang]:                        [ -0.000000,  -0.000000,   1.843212]
    <r_e> [Ang]:                        [ -0.000000,   0.000000,   3.410558]
    |<r_e - r_h>| [Ang]:                  1.567346
    Hole size [Ang]:                      1.259593
      Cartesian components [Ang]:       [  0.757392,   0.865464,   0.513718]
    Electron size [Ang]:                  2.848860
      Cartesian components [Ang]:       [  1.915610,   1.547878,   1.431961]
    RMS electron-hole separation [Ang]:   3.479676
      Cartesian components [Ang]:       [  2.053890,   1.767372,   2.183135]
    Covariance(r_h, r_e) [Ang^2]:         0.025504
    Correlation coefficient:              0.007107
    Center-of-mass size [Ang]:            1.561537
      Cartesian components [Ang]:       [  1.032951,   0.889706,   0.761468]

  Decomposition into state-averaged NTOs
    H- 2 -> L+ 0: -0.6781 ( 92.0%)
                   omega =  92.1%
  ----------------------------------------------------------------------------


  Excited state 10 (singlet, B2)                                    [converged]
  ----------------------------------------------------------------------------
  Term symbol:  10 (1) B2                                   R^2 =  1.38098e-06

  Total energy:                                           -153.6782783777 a.u.
  Excitation energy:                                               7.701056 eV

  Osc. strength:                                                      0.000697
  Trans. dip. moment [a.u.]:           [  -0.000000,   -0.060759,   -0.000000]
  <i|r^2|0> [a.u.]:                    [   0.000000,   -0.000000,   -0.000000]

  Dip. moment [a.u.]:                  [   0.000000,    0.000000,   -5.110642]
  Total dipole [Debye]:                                              12.989958
  <r^2> [a.u.]:                        [  62.479242,   23.629031,  603.800179]
  Total <r^2> [a.u.]:                                               689.908452

  V1^2 = 0.8597, V2^2 = 0.1403

  Important amplitudes:
      occ i      occ j       vir a       vir b          v   
    ---------------------------------------------------------
     2 (B2) A              14 (A1) A                  0.4443
     2 (B2) A              12 (A1) A                  0.4432
    ---------------------------------------------------------

  Density matrix analysis:
  ------------------------
  NOs
    Occupation of frontier NOs:
       0.9598   0.9874
    Number of electrons: 26.000000
    Number of unpaired electrons: n_u =  2.75750, n_u,nl =  2.11953
    NO participation ratio (PR_NO):  3.942452
  
  
  Mulliken Population Analysis
  Atom      Charge (e)              h+              e-           Del q
  --------------------------------------------------------------------
   1 C       -0.417319        0.074541       -0.276807       -0.202267
   2 C       -0.417319        0.074541       -0.276807       -0.202267
   3 H        0.110046        0.000045       -0.040626       -0.040581
   4 H        0.110046        0.000045       -0.040626       -0.040581
   5 H       -0.120976        0.020548       -0.207086       -0.186537
   6 H       -0.120976        0.020548       -0.207086       -0.186537
   7 O       -0.173486        1.381792       -0.519188        0.862604
   8 H        0.029983        0.117431       -0.121265       -0.003834
  --------------------------------------------------------------------
  Sum:       -1.000000        1.689492       -1.689492        0.000000
  
  Multipole moment analysis of the density matrix
    Molecular charge:                      -1.000000
    Number of electrons:                   26.000000
      Center of electronic charge [Ang]: [ -0.000000,  -0.000000,   0.104017]
    Total nuclear charge:                  25.000000
      Center of nuclear charge [Ang]:    [ -0.000000,   0.000000,  -0.000000]
    Dipole moment [D]:                     12.989954
      Cartesian components [D]:          [  0.000000,   0.000000, -12.989954]
    RMS size of the density [Ang]:         2.723916
      Cartesian components [Ang]:        [  0.820318,   0.504472,   2.548000]
  
  Exciton analysis of the difference density matrix
    <r_h> [Ang]:                  [  0.000000,   0.000000,  -2.645590]
    <r_e> [Ang]:                  [ -0.000000,  -0.000000,   0.613313]
    |<r_e - r_h>| [Ang]:            3.258903
    Hole size [Ang]:                2.169550
      Cartesian components [Ang]: [  0.814104,   0.869208,   1.813467]
    Electron size [Ang]:            3.671663
      Cartesian components [Ang]: [  1.298215,   1.145649,   3.237782]

  Transition density matrix analysis:
  -----------------------------------
  
  CT numbers (Mulliken)
    omega =     0.8419
    <Phe> =    -0.0024
  
  Exciton analysis of the transition density matrix
    Trans. dipole moment [D]:             0.077218
      Cartesian components [D]:         [ -0.000000,  -0.077218,  -0.000000]
    <r_h> [Ang]:                        [ -0.000000,   0.000000,  -3.196618]
    <r_e> [Ang]:                        [ -0.000000,  -0.000000,   2.335827]
    |<r_e - r_h>| [Ang]:                  5.532445
    Hole size [Ang]:                      1.086408
      Cartesian components [Ang]:       [  0.483266,   0.836870,   0.496372]
    Electron size [Ang]:                  3.333192
      Cartesian components [Ang]:       [  1.471540,   1.341834,   2.672867]
    RMS electron-hole separation [Ang]:   6.549989
      Cartesian components [Ang]:       [  1.548738,   1.581598,   6.164601]
    Covariance(r_h, r_e) [Ang^2]:        -0.001978
    Correlation coefficient:             -0.000546
    Center-of-mass size [Ang]:            1.752605
      Cartesian components [Ang]:       [  0.774493,   0.790615,   1.358938]

  Decomposition into state-averaged NTOs
    H- 0 -> L+ 7: -0.5499 ( 60.5%)
    H- 0 -> L+ 2: -0.2023 (  8.2%)
    H- 0 -> L+ 3: -0.1938 (  7.5%)
    H- 0 -> L+ 1: -0.1716 (  5.9%)
    H- 0 -> L+ 0:  0.0979 (  1.9%)
                   omega =  84.2%
  ----------------------------------------------------------------------------


--------------------------------------------------------------------------------
  Time of ADC calculation:  CPU 205.85 s  wall 55.75 s
================================================================================
 
 --------------------------------------------------------------
             Orbital Energies (a.u.) and Symmetries
 --------------------------------------------------------------
 
 Alpha MOs, Restricted
 -- Occupied --                  
-20.203 -11.129 -11.127  -0.934  -0.908  -0.675  -0.551  -0.460
  1 A1    2 A1    1 B1    3 A1    4 A1    2 B1    5 A1    6 A1                 
 -0.406  -0.270  -0.256  -0.112  -0.112
  3 B1    1 B2    7 A1    2 B2    4 B1                                         
 -- Virtual --                   
  0.146   0.159   0.179   0.183   0.183   0.209   0.246   0.272
  5 B1    8 A1    3 B2    9 A1    1 A2    6 B1   10 A1    2 A2                 
  0.302   0.351   0.377   0.404   0.411   0.419   0.424   0.429
  7 B1   11 A1   12 A1    8 B1   13 A1   14 A1    4 B2    9 B1                 
  0.444   0.453   0.465   0.478   0.504   0.523   0.594   0.663
  5 B2   15 A1   10 B1   11 B1    3 A2   16 A1   17 A1   12 B1                 
  0.718   0.933   0.966   1.030   1.043   1.108   1.146   1.161
 13 B1   18 A1   19 A1   20 A1   14 B1   21 A1   15 B1   22 A1                 
  1.173   1.214   1.219   1.222   1.222   1.265   1.275   1.320
  6 B2    4 A2   23 A1   16 B1    7 B2    8 B2   17 B1   24 A1                 
  1.320   1.376   1.393   1.395   1.525   1.543   1.727   1.727
  5 A2   18 B1    6 A2    9 B2   19 B1   25 A1   10 B2   26 A1                 
  1.736   1.753   1.836   1.978   2.024   2.051   2.063   2.127
 20 B1   21 B1   27 A1    7 A2   28 A1   11 B2   22 B1   12 B2                 
  2.167   2.199   2.286   2.373   2.376   2.434   2.521   2.534
 29 A1   30 A1    8 A2   13 B2   23 B1   24 B1    9 A2   31 A1                 
  2.581   2.683   2.694   2.929   2.945   3.034   3.362   3.449
 32 A1   25 B1   26 B1   33 A1   34 A1   35 A1   27 B1   28 B1                 
  3.926   3.929   3.955   3.955   4.398
 14 B2   29 B1   36 A1   10 A2   37 A1                                         
 
 Beta MOs, Restricted
 -- Occupied --                  
-20.203 -11.129 -11.127  -0.934  -0.908  -0.675  -0.551  -0.460
  1 A1    2 A1    1 B1    3 A1    4 A1    2 B1    5 A1    6 A1                 
 -0.406  -0.270  -0.256  -0.112  -0.112
  3 B1    1 B2    7 A1    2 B2    4 B1                                         
 -- Virtual --                   
  0.146   0.159   0.179   0.183   0.183   0.209   0.246   0.272
  5 B1    8 A1    3 B2    9 A1    1 A2    6 B1   10 A1    2 A2                 
  0.302   0.351   0.377   0.404   0.411   0.419   0.424   0.429
  7 B1   11 A1   12 A1    8 B1   13 A1   14 A1    4 B2    9 B1                 
  0.444   0.453   0.465   0.478   0.504   0.523   0.594   0.663
  5 B2   15 A1   10 B1   11 B1    3 A2   16 A1   17 A1   12 B1                 
  0.718   0.933   0.966   1.030   1.043   1.108   1.146   1.161
 13 B1   18 A1   19 A1   20 A1   14 B1   21 A1   15 B1   22 A1                 
  1.173   1.214   1.219   1.222   1.222   1.265   1.275   1.320
  6 B2    4 A2   23 A1   16 B1    7 B2    8 B2   17 B1   24 A1                 
  1.320   1.376   1.393   1.395   1.525   1.543   1.727   1.727
  5 A2   18 B1    6 A2    9 B2   19 B1   25 A1   10 B2   26 A1                 
  1.736   1.753   1.836   1.978   2.024   2.051   2.063   2.127
 20 B1   21 B1   27 A1    7 A2   28 A1   11 B2   22 B1   12 B2                 
  2.167   2.199   2.286   2.373   2.376   2.434   2.521   2.534
 29 A1   30 A1    8 A2   13 B2   23 B1   24 B1    9 A2   31 A1                 
  2.581   2.683   2.694   2.929   2.945   3.034   3.362   3.449
 32 A1   25 B1   26 B1   33 A1   34 A1   35 A1   27 B1   28 B1                 
  3.926   3.929   3.955   3.955   4.398
 14 B2   29 B1   36 A1   10 A2   37 A1                                         
 --------------------------------------------------------------
 
          Ground-State Mulliken Net Atomic Charges

     Atom                 Charge (a.u.)
  ----------------------------------------
      1 C                    -0.200164
      2 C                    -0.200164
      3 H                     0.143263
      4 H                     0.143263
      5 H                     0.058009
      6 H                     0.058009
      7 O                    -1.049471
      8 H                     0.047255
  ----------------------------------------
  Sum of atomic charges =    -1.000000

 -----------------------------------------------------------------
                    Cartesian Multipole Moments
 -----------------------------------------------------------------
    Charge (ESU x 10^10)
                -4.8032
    Dipole Moment (Debye)
         X       0.0000      Y      -0.0000      Z      13.3657
       Tot      13.3657
    Quadrupole Moments (Debye-Ang)
        XX     -23.1709     XY      -0.0000     YY     -26.3190
        XZ       0.0000     YZ       0.0000     ZZ     -61.7647
    Octopole Moments (Debye-Ang^2)
       XXX       0.0000    XXY      -0.0000    XYY       0.0000
       YYY      -0.0000    XXZ       7.5596    XYZ      -0.0000
       YYZ       2.4845    XZZ       0.0000    YZZ      -0.0000
       ZZZ     112.6170
    Hexadecapole Moments (Debye-Ang^3)
      XXXX     -84.9184   XXXY       0.0000   XXYY     -21.1247
      XYYY      -0.0000   YYYY     -38.1377   XXXZ       0.0000
      XXYZ       0.0000   XYYZ       0.0000   YYYZ       0.0000
      XXZZ    -170.7327   XYZZ      -0.0000   YYZZ    -174.3547
      XZZZ       0.0000   YZZZ       0.0000   ZZZZ   -1081.8217
 -----------------------------------------------------------------
 Total job time:  164.42s(wall), 252.73s(cpu) 
 Thu Mar  3 16:32:44 2022

        *************************************************************
        *                                                           *
        *  Thank you very much for using Q-Chem.  Have a nice day.  *
        *                                                           *
        *************************************************************


