/src/tsommerfeld/qchem/exe/qcprog.exe .input1.993939.5453.qcin.1 /src/jdavis/qchem.scratch/qchem5453/

                  Welcome to Q-Chem
     A Quantum Leap Into The Future Of Chemistry


 Q-Chem 5.4 (devel), Q-Chem, Inc., Pleasanton, CA (2021)

 E. Epifanovsky,  A. T. B. Gilbert,  Xintian Feng,  Joonho Lee,  Yuezhi Mao,  
 N. Mardirossian,  P. Pokhilko,  A. White,  M. Wormit,  M. P. Coons,  
 A. L. Dempwolff,  Zhengting Gan,  D. Hait,  P. R. Horn,  L. D. Jacobson,  
 I. Kaliman,  J. Kussmann,  A. W. Lange,  Ka Un Lao,  D. S. Levine,  Jie Liu,  
 S. C. McKenzie,  A. F. Morrison,  K. Nanda,  F. Plasser,  D. R. Rehn,  
 M. L. Vidal,  Zhi-Qiang You,  Ying Zhu,  B. Alam,  B. Albrecht,  
 A. Aldossary,  E. Alguire,  J. H. Andersen,  D. Barton,  K. Begam,  A. Behn,  
 Y. A. Bernard,  E. J. Berquist,  H. Burton,  A. Carreras,  K. Carter-Fenk,  
 R. Chakraborty,  A. D. Chien,  K. D. Closser,  V. Cofer-Shabica,  
 S. Dasgupta,  Jia Deng,  M. de Wergifosse,  M. Diedenhofen,  Hainam Do,  
 S. Ehlert,  Po-Tung Fang,  S. Fatehi,  Qingguo Feng,  T. Friedhoff,  
 J. Gayvert,  Qinghui Ge,  G. Gidofalvi,  M. Goldey,  J. Gomes,  
 C. Gonzalez-Espinoza,  S. Gulania,  A. Gunina,  M. W. D. Hanson-Heine,  
 P. H. P. Harbach,  A. W. Hauser,  M. F. Herbst,  M. Hernandez Vera,  
 M. Hodecker,  Z. C. Holden,  S. Houck,  Xunkun Huang,  Kerwin Hui,  
 B. C. Huynh,  M. Ivanov,  Hyunjun Ji,  Hanjie Jiang,  B. Kaduk,  S. Kaehler,  
 K. Khistyaev,  Jaehoon Kim,  P. Klunzinger,  Z. Koczor-Benda,  
 Joong Hoon Koh,  D. Kosenkov,  L. Koulias,  T. Kowalczyk,  C. M. Krauter,  
 K. Kue,  A. Kunitsa,  T. Kus,  A. Landau,  K. V. Lawler,  D. Lefrancois,  
 S. Lehtola,  Rain Li,  Yi-Pei Li,  Jiashu Liang,  M. Liebenthal,  
 Hung-Hsuan Lin,  You-Sheng Lin,  Fenglai Liu,  Kuan-Yu Liu,  
 M. Loipersberger,  A. Luenser,  A. Manjanath,  P. Manohar,  E. Mansoor,  
 S. F. Manzer,  Shan-Ping Mao,  A. V. Marenich,  T. Markovich,  S. Mason,  
 S. A. Maurer,  P. F. McLaughlin,  M. F. S. J. Menger,  J.-M. Mewes,  
 S. A. Mewes,  P. Morgante,  J. W. Mullinax,  K. J. Oosterbaan,  G. Paran,  
 Alexander C. Paul,  Suranjan K. Paul,  F. Pavosevic,  Zheng Pei,  S. Prager,  
 E. I. Proynov,  E. Ramos,  B. Rana,  A. E. Rask,  A. Rettig,  R. M. Richard,  
 F. Rob,  E. Rossomme,  T. Scheele,  M. Scheurer,  M. Schneider,  
 N. Sergueev,  S. M. Sharada,  W. Skomorowski,  D. W. Small,  C. J. Stein,  
 Yu-Chuan Su,  E. J. Sundstrom,  Zhen Tao,  J. Thirman,  T. Tsuchimochi,  
 N. M. Tubman,  S. P. Veccham,  O. Vydrov,  J. Wenzel,  J. Witte,  A. Yamada,  
 Kun Yao,  S. Yeganeh,  S. R. Yost,  A. Zech,  Igor Ying Zhang,  Xing Zhang,  
 Yu Zhang,  D. Zuev,  A. Aspuru-Guzik,  A. T. Bell,  N. A. Besley,  
 K. B. Bravaya,  B. R. Brooks,  D. Casanova,  Jeng-Da Chai,  S. Coriani,  
 C. J. Cramer,  A. E. DePrince, III,  R. A. DiStasio Jr.,  A. Dreuw,  
 B. D. Dunietz,  T. R. Furlani,  W. A. Goddard III,  S. Grimme,  
 S. Hammes-Schiffer,  T. Head-Gordon,  W. J. Hehre,  Chao-Ping Hsu,  
 T.-C. Jagau,  Yousung Jung,  A. Klamt,  Jing Kong,  D. S. Lambrecht,  
 WanZhen Liang,  N. J. Mayhall,  C. W. McCurdy,  J. B. Neaton,  
 C. Ochsenfeld,  J. A. Parkhill,  R. Peverati,  V. A. Rassolov,  Yihan Shao,  
 L. V. Slipchenko,  T. Stauch,  R. P. Steele,  J. E. Subotnik,  
 A. J. W. Thom,  A. Tkatchenko,  D. G. Truhlar,  T. Van Voorhis,  
 T. A. Wesolowski,  K. B. Whaley,  H. L. Woodcock III,  P. M. Zimmerman,  
 S. Faraji,  P. M. W. Gill,  M. Head-Gordon,  J. M. Herbert,  A. I. Krylov

 Additional authors for Version 5.4.1: 
 S. Kotaru,  Shaozhi Li,  Xiangyuan Li,  F. Matz,  A. Molle,  Haisheng Ren,  
 Yingli Su,  Hung-Yi Tsai,  C. Utku,  Fang Wang

 Contributors to earlier versions of Q-Chem not listed above: 
 R. D. Adamson,  B. Austin,  R. Baer,  J. Baker,  G. J. O. Beran,  
 K. Brandhorst,  S. T. Brown,  E. F. C. Byrd,  A. K. Chakraborty,  
 G. K. L. Chan,  Chun-Min Chang,  Yunqing Chen,  C.-L. Cheng,  
 Siu Hung Chien,  D. M. Chipman,  D. L. Crittenden,  H. Dachsel,  
 R. J. Doerksen,  A. D. Dutoi,  R. G. Edgar,  J. Fosso-Tande,  
 L. Fusti-Molnar,  D. Ghosh,  A. Ghysels,  A. Golubeva-Zadorozhnaya,  
 J. Gonthier,  M. S. Gordon,  S. R. Gwaltney,  G. Hawkins,  J. E. Herr,  
 A. Heyden,  S. Hirata,  E. G. Hohenstein,  G. Kedziora,  F. J. Keil,  
 C. Kelley,  Jihan Kim,  R. A. King,  R. Z. Khaliullin,  P. P. Korambath,  
 W. Kurlancheek,  A. Laurent,  A. M. Lee,  M. S. Lee,  S. V. Levchenko,  
 Ching Yeh Lin,  D. Liotard,  E. Livshits,  R. C. Lochan,  I. Lotan,  
 L. A. Martinez-Martinez,  P. E. Maslen,  N. Nair,  D. P. O'Neill,  
 D. Neuhauser,  E. Neuscamman,  C. M. Oana,  R. Olivares-Amaya,  R. Olson,  
 T. M. Perrine,  B. Peters,  P. A. Pieniazek,  A. Prociuk,  Y. M. Rhee,  
 J. Ritchie,  M. A. Rohrdanz,  E. Rosta,  N. J. Russ,  H. F. Schaefer III,  
 M. W. Schmidt,  N. E. Schultz,  S. Sharma,  N. Shenvi,  C. D. Sherrill,  
 A. C. Simmonett,  A. Sodt,  T. Stein,  D. Stuck,  K. S. Thanthiriwatte,  
 V. Vanovschi,  L. Vogt,  Tao Wang,  A. Warshel,  M. A. Watson,  
 C. F. Williams,  Q. Wu,  X. Xu,  Jun Yang,  W. Zhang,  Yan Zhao

 Please cite Q-Chem as follows:
 Y. Shao et al., Mol. Phys. 113, 184-215 (2015)
 DOI: 10.1080/00268976.2014.952696

 Q-Chem 5.4.1 for Intel X86 EM64T Linux

 Parts of Q-Chem use Armadillo 9.900.5 (Nocturnal Misbehaviour).
 http://arma.sourceforge.net/

 Q-Chem begins on Thu Mar  3 16:51:49 2022  

 Host: node01
0

     Scratch files written to /src/jdavis/qchem.scratch/qchem5453//
 Processing $rem in /src/tsommerfeld/qchem/config/preferences:
 Processing $rem in /home/jdavis/.qchemrc:

 Checking the input file for inconsistencies... 	...done.

--------------------------------------------------------------
User input:
--------------------------------------------------------------
$molecule
-1 1
C        -0.6645000000    0.0000000000    1.1619088658
C         0.6645000000    0.0000000000    1.1619088658
H        -1.1590800000    0.0000000000    0.1995598658
H         1.1590800000    0.0000000000    0.1995598658
H        -1.1590800000    0.0000000000    2.1242568658
H         1.1590800000    0.0000000000    2.1242568658
O         0.0000000000    0.0000000000   -3.84
H         0.0000000000    0.0000000000   -4.81
$end
$rem
   METHOD adc(2)
   BASIS gen
   PURECART 11
   EE_STATES [0,0,0,10]
   scf_convergence 8
   ADC_DAVIDSON_MAXITER 120
   ADC_DAVIDSON_MAXSUBSPACE 200
   adc_nguess_singles 100
   THRESH 14
   S2THRESH 14
   adc_davidson_conv 5
   adc_davidson_thresh 14
   THREADS 10
   MEM_TOTAL 95000
   STATE_ANALYSIS TRUE
$end
$basis
C 1
S   9   1.00
      6.665000D+03           6.920000D-04
      1.000000D+03           5.329000D-03
      2.280000D+02           2.707700D-02
      6.471000D+01           1.017180D-01
      2.106000D+01           2.747400D-01
      7.495000D+00           4.485640D-01
      2.797000D+00           2.850740D-01
      5.215000D-01           1.520400D-02
      1.596000D-01          -3.191000D-03
S   9   1.00
      6.665000D+03          -1.460000D-04
      1.000000D+03          -1.154000D-03
      2.280000D+02          -5.725000D-03
      6.471000D+01          -2.331200D-02
      2.106000D+01          -6.395500D-02
      7.495000D+00          -1.499810D-01
      2.797000D+00          -1.272620D-01
      5.215000D-01           5.445290D-01
      1.596000D-01           5.804960D-01
S   1   1.00
      1.596000D-01           1.000000D+00
S   1   1.00
      0.0469000              1.0000000
P   4   1.00
      9.439000D+00           3.810900D-02
      2.002000D+00           2.094800D-01
      5.456000D-01           5.085570D-01
      1.517000D-01           4.688420D-01
P   1   1.00
      1.517000D-01           1.000000D+00
P   1   1.00
      0.086423      1.0000000
P   1   1.00
      0.0432115      1.0000000
D   1   1.00
      5.500000D-01           1.0000000
****
C 2
S   9   1.00
      6.665000D+03           6.920000D-04
      1.000000D+03           5.329000D-03
      2.280000D+02           2.707700D-02
      6.471000D+01           1.017180D-01
      2.106000D+01           2.747400D-01
      7.495000D+00           4.485640D-01
      2.797000D+00           2.850740D-01
      5.215000D-01           1.520400D-02
      1.596000D-01          -3.191000D-03
S   9   1.00
      6.665000D+03          -1.460000D-04
      1.000000D+03          -1.154000D-03
      2.280000D+02          -5.725000D-03
      6.471000D+01          -2.331200D-02
      2.106000D+01          -6.395500D-02
      7.495000D+00          -1.499810D-01
      2.797000D+00          -1.272620D-01
      5.215000D-01           5.445290D-01
      1.596000D-01           5.804960D-01
S   1   1.00
      1.596000D-01           1.000000D+00
S   1   1.00
      0.0469000              1.0000000
P   4   1.00
      9.439000D+00           3.810900D-02
      2.002000D+00           2.094800D-01
      5.456000D-01           5.085570D-01
      1.517000D-01           4.688420D-01
P   1   1.00
      1.517000D-01           1.000000D+00
P   1   1.00
      0.086423      1.0000000
P   1   1.00
      0.0432115      1.0000000
D   1   1.00
      5.500000D-01           1.0000000
****
H 3
cc-pVDZ
****
H 4
cc-pVDZ
****
H 5
cc-pVDZ
****
H 6
cc-pVDZ
****
O 7
aug-cc-pVDZ
****
H 8
cc-pVDZ
****
$end
--------------------------------------------------------------
 ----------------------------------------------------------------
             Standard Nuclear Orientation (Angstroms)
    I     Atom           X                Y                Z
 ----------------------------------------------------------------
    1      C      -0.6645000000     0.0000000000     1.8394872717
    2      C       0.6645000000    -0.0000000000     1.8394872717
    3      H      -1.1590800000     0.0000000000     0.8771382717
    4      H       1.1590800000    -0.0000000000     0.8771382717
    5      H      -1.1590800000     0.0000000000     2.8018352717
    6      H       1.1590800000    -0.0000000000     2.8018352717
    7      O      -0.0000000000     0.0000000000    -3.1624215941
    8      H      -0.0000000000     0.0000000000    -4.1324215941
 ----------------------------------------------------------------
 Molecular Point Group                 C2v   NOp =  4
 Largest Abelian Subgroup              C2v   NOp =  4
 Nuclear Repulsion Energy =          52.84282358 hartrees
 There are       13 alpha and       13 beta electrons
 Requested basis set is non-standard
 There are 42 shells and 90 basis functions
 Total memory of 95000 MB is distributed as follows: 
   MEM_STATIC is set to 192 MB
   QALLOC/CCMAN JOB total memory use is  94808 MB
 Warning: actual memory use might exceed 95000 MB

 Total QAlloc Memory Limit  95000 MB
 Mega-Array Size       188 MB
 MEM_STATIC part       192 MB

                       Distance Matrix (Angstroms)
             C (  1)   C (  2)   H (  3)   H (  4)   H (  5)   H (  6)
   C (  2)  1.329000
   H (  3)  1.082000  2.061931
   H (  4)  2.061931  1.082000  2.318160
   H (  5)  1.082000  2.061931  1.924697  3.013026
   H (  6)  2.061931  1.082000  3.013026  1.924697  2.318160
   O (  7)  5.045855  5.045855  4.202560  4.202560  6.075840  6.075840
   H (  8)  6.008765  6.008765  5.141902  5.141902  7.030461  7.030461
             O (  7)
   H (  8)  0.970000
 
 A cutoff of  1.0D-14 yielded    865 shell pairs
 There are      3913 function pairs (      4255 Cartesian)
 Smallest overlap matrix eigenvalue = 2.08E-04

 Scale SEOQF with 1.000000e-01/1.000000e-01/1.000000e-01

 Standard Electronic Orientation quadrupole field applied
 Nucleus-field energy     =    -0.0000000162 hartrees
 ================ Generating on-the-fly SAD Guess ================
Attempting to make child job directory: /src/jdavis/qchem.scratch/qchem5453//Frg1/
Attempting to make child job directory: /src/jdavis/qchem.scratch/qchem5453//Frg2/
Attempting to make child job directory: /src/jdavis/qchem.scratch/qchem5453//Frg3/
Creating input file /src/jdavis/qchem.scratch/qchem5453/Frg1.input
using default PutDataFrgm: nothing
calling putenv with: QCSCRATCH=/src/jdavis/qchem.scratch/qchem5453/ 
Spawning Job For Fragment 0
Done Job For Fragment 0
calling putenv with: QCSCRATCH=/src/jdavis/qchem.scratch 
calling putenv with: QCTHREADS=1 
Creating input file /src/jdavis/qchem.scratch/qchem5453/Frg2.input
using default PutDataFrgm: nothing
calling putenv with: QCSCRATCH=/src/jdavis/qchem.scratch/qchem5453/ 
Spawning Job For Fragment 1
Done Job For Fragment 1
calling putenv with: QCSCRATCH=/src/jdavis/qchem.scratch 
calling putenv with: QCTHREADS=1 
Creating input file /src/jdavis/qchem.scratch/qchem5453/Frg3.input
using default PutDataFrgm: nothing
calling putenv with: QCSCRATCH=/src/jdavis/qchem.scratch/qchem5453/ 
Spawning Job For Fragment 2
Done Job For Fragment 2
calling putenv with: QCSCRATCH=/src/jdavis/qchem.scratch 
calling putenv with: QCTHREADS=1 
 Time for running child jobs:  CPU 1.81 s  wall 80.50 s
 ============= Method Specific SAD Guess Constructed =============
 Guess from on-the-fly superposition of atomic densities
 Warning: Energy on first SCF cycle will be non-variational
 A restricted Hartree-Fock SCF calculation will be
 performed using Pulay DIIS extrapolation
 SCF converges when DIIS error is below 1.0E-08
 using 10 threads for integral computing
 -------------------------------------------------------
 OpenMP Integral computing Module                
 Release: version 1.0, May 2013, Q-Chem Inc. Pittsburgh 
 -------------------------------------------------------
 ---------------------------------------
  Cycle       Energy         DIIS Error
 ---------------------------------------
    1    -153.5110209217      5.93E-02
    2    -153.2844703876      1.22E-02
    3    -153.3471195132      1.06E-02
    4    -153.4354849909      6.58E-04
    5    -153.4362617865      1.86E-04
    6    -153.4363130219      3.97E-05
    7    -153.4363160130      1.00E-05
    8    -153.4363163452      2.85E-06
    9    -153.4363163707      4.67E-07
   10    -153.4363163713      6.87E-08
   11    -153.4363163713      1.89E-08
   12    -153.4363163713      6.58E-09 Convergence criterion met
 ---------------------------------------
 SCF time:  CPU 13.22 s  wall 1.33 s
 SCF   energy in the final basis set = -153.43631637
 Total energy in the final basis set = -153.43631637
================================================================================
|                                                                              |
|                                 A D C  M A N                                 |
|                                                                              |
 ------------------------------------------------------------------------------ 
|                                                                              |
| Components:                                                                  |
|                                                                              |
| - libvmm - 1.3-trunk                                                         |
|   Authors:                                                                   |
|   Evgeny Epifanovsky, Ilya Kaliman                                           |
|                                                                              |
| - libtensor - 2.5-trunk                                                      |
|   Authors:                                                                   |
|   Evgeny Epifanovsky, Michael Wormit, Dmitry Zuev, Sam Manzer,               |
|   Ilya Kaliman                                                               |
|                                                                              |
| - libwfa - 1.1-trunk                                                         |
|   Authors:                                                                   |
|   Felix Plasser, Stefanie Mewes (Baeppler), Benjamin Thomitzni,              |
|   Michael Wormit, Feng Chen, Anna I. Krylov, Pavel Pokhilko                  |
|                                                                              |
| - libadc - 1.1-trunk                                                         |
|   Authors:                                                                   |
|   Michael Wormit, Adrian L. Dempwolff, Philipp H. P. Harbach,                |
|   Caroline Krauter, Dirk Rehn, Matthias Schneider, Jan Wenzel                |
|                                                                              |
| - adcman - 2.6-trunk                                                         |
|   Authors:                                                                   |
|   Michael Wormit, Adrian L. Dempwolff, Philipp H. P. Harbach,                |
|   Caroline Krauter, Daniel Lefrancois, Jan-Michael Mewes, Dirk Rehn,         |
|   Matthias Schneider, Jan Wenzel, Andreas Dreuw                              |
|                                                                              |
| Authors of earlier versions of ADCMAN:                                       |
| Andreas Dreuw, Jan Hendrik Starcke, Dirk Rehn, Michael Wormit                |
|                                                                              |
================================================================================

 
 Alpha MOs, Restricted
 -- Occupied --                  
-20.203 -11.129 -11.127  -0.934  -0.908  -0.675  -0.551  -0.460
  1 A1    2 A1    1 B1    3 A1    4 A1    2 B1    5 A1    6 A1                 
 -0.406  -0.270  -0.256  -0.112  -0.112
  3 B1    1 B2    7 A1    2 B2    4 B1                                         
 -- Virtual --                   
  0.164   0.170   0.197   0.198   0.202   0.232   0.260   0.291
  5 B1    8 A1    1 A2    3 B2    9 A1    6 B1   10 A1    2 A2                 
  0.321   0.351   0.386   0.421   0.438   0.443   0.462   0.463
  7 B1   11 A1   12 A1    8 B1   13 A1    4 B2   14 A1    9 B1                 
  0.471   0.471   0.482   0.511   0.528   0.564   0.593   0.654
 15 A1   10 B1    5 B2   11 B1   16 A1    3 A2   17 A1   12 B1                 
  0.728   0.942   0.964   1.043   1.100   1.135   1.170   1.196
 13 B1   18 A1   19 A1   14 B1   20 A1   15 B1   21 A1   22 A1                 
  1.222   1.231   1.246   1.258   1.268   1.280   1.304   1.320
  6 B2   23 A1   16 B1    7 B2    8 B2   17 B1    4 A2   24 A1                 
  1.320   1.393   1.401   1.411   1.542   1.580   1.727   1.733
  5 A2    6 A2    9 B2   18 B1   25 A1   19 B1   10 B2   26 A1                 
  1.734   1.823   1.846   1.985   2.024   2.052   2.076   2.127
 20 B1   21 B1   27 A1    7 A2   28 A1   11 B2   22 B1   12 B2                 
  2.191   2.210   2.290   2.373   2.376   2.442   2.521   2.533
 29 A1   30 A1    8 A2   13 B2   23 B1   24 B1    9 A2   31 A1                 
  2.592   2.671   2.692   2.960   2.972   3.034   3.382   3.455
 32 A1   25 B1   26 B1   33 A1   34 A1   35 A1   27 B1   28 B1                 
  3.926   3.929   3.955   3.955   4.398
 14 B2   29 B1   36 A1   10 A2   37 A1                                         
 
 Beta MOs, Restricted
 -- Occupied --                  
-20.203 -11.129 -11.127  -0.934  -0.908  -0.675  -0.551  -0.460
  1 A1    2 A1    1 B1    3 A1    4 A1    2 B1    5 A1    6 A1                 
 -0.406  -0.270  -0.256  -0.112  -0.112
  3 B1    1 B2    7 A1    2 B2    4 B1                                         
 -- Virtual --                   
  0.164   0.170   0.197   0.198   0.202   0.232   0.260   0.291
  5 B1    8 A1    1 A2    3 B2    9 A1    6 B1   10 A1    2 A2                 
  0.321   0.351   0.386   0.421   0.438   0.443   0.462   0.463
  7 B1   11 A1   12 A1    8 B1   13 A1    4 B2   14 A1    9 B1                 
  0.471   0.471   0.482   0.511   0.528   0.564   0.593   0.654
 15 A1   10 B1    5 B2   11 B1   16 A1    3 A2   17 A1   12 B1                 
  0.728   0.942   0.964   1.043   1.100   1.135   1.170   1.196
 13 B1   18 A1   19 A1   14 B1   20 A1   15 B1   21 A1   22 A1                 
  1.222   1.231   1.246   1.258   1.268   1.280   1.304   1.320
  6 B2   23 A1   16 B1    7 B2    8 B2   17 B1    4 A2   24 A1                 
  1.320   1.393   1.401   1.411   1.542   1.580   1.727   1.733
  5 A2    6 A2    9 B2   18 B1   25 A1   19 B1   10 B2   26 A1                 
  1.734   1.823   1.846   1.985   2.024   2.052   2.076   2.127
 20 B1   21 B1   27 A1    7 A2   28 A1   11 B2   22 B1   12 B2                 
  2.191   2.210   2.290   2.373   2.376   2.442   2.521   2.533
 29 A1   30 A1    8 A2   13 B2   23 B1   24 B1    9 A2   31 A1                 
  2.592   2.671   2.692   2.960   2.972   3.034   3.382   3.455
 32 A1   25 B1   26 B1   33 A1   34 A1   35 A1   27 B1   28 B1                 
  3.926   3.929   3.955   3.955   4.398
 14 B2   29 B1   36 A1   10 A2   37 A1                                         

--------------------------------------------------------------------------------
                                   HF Summary                                   
--------------------------------------------------------------------------------
  Energy:                                                 -153.4363163713 a.u.
  Dip. moment [a.u.]:                  [  -0.000000,    0.000000,    5.258821]
  Total dipole [Debye]:                                              13.366592
  <r^2> [a.u.]:                        [  55.329528,   19.580032,  599.175592]
  Total <r^2> [a.u.]:                                               674.085152
--------------------------------------------------------------------------------

--------------------------------------------------------------------------------
                                 MP(2) Summary                                  
--------------------------------------------------------------------------------
  MP energy contribution:                                   -0.5258200828 a.u.
  Total energy:                                           -153.9621364541 a.u.
  Dip. moment [a.u.]:                  [  -0.000000,   -0.000000,    5.294973]
  Total dipole [Debye]:                                              13.458482
  <r^2> [a.u.]:                        [  56.293732,   20.278710,  600.353572]
  Total <r^2> [a.u.]:                                               676.926013

  Density matrix analysis:
  ------------------------
  NOs
    Occupation of frontier NOs:
       0.0447   1.9369
    Number of electrons: 26.000000
    Number of unpaired electrons: n_u =  0.71442, n_u,nl =  0.08552
    NO participation ratio (PR_NO): 22.918809
  
  
  Mulliken Population Analysis
  Atom      Charge (e)              h+              e-           Del q
  --------------------------------------------------------------------
   1 C       -0.246534        0.087397       -0.102764       -0.015367
   2 C       -0.246534        0.087397       -0.102764       -0.015367
   3 H        0.166567        0.017857       -0.010135        0.007722
   4 H        0.166567        0.017857       -0.010135        0.007722
   5 H        0.081306        0.018839       -0.010984        0.007855
   6 H        0.081306        0.018839       -0.010984        0.007855
   7 O       -1.036681        0.283735       -0.270657        0.013077
   8 H        0.034003        0.016847       -0.030345       -0.013497
  --------------------------------------------------------------------
  Sum:       -1.000000        0.548769       -0.548769       -0.000000
  
  Multipole moment analysis of the density matrix
    Molecular charge:                      -1.000000
    Number of electrons:                   26.000000
      Center of electronic charge [Ang]: [  0.000000,   0.000000,  -0.107768]
    Total nuclear charge:                  25.000000
      Center of nuclear charge [Ang]:    [ -0.000000,   0.000000,  -0.000000]
    Dipole moment [D]:                     13.458478
      Cartesian components [D]:          [ -0.000000,  -0.000000,  13.458478]
    RMS size of the density [Ang]:         2.697981
      Cartesian components [Ang]:        [  0.778654,   0.467342,   2.540549]
  
  Exciton analysis of the difference density matrix
    <r_h> [Ang]:                  [ -0.000000,  -0.000000,  -0.908425]
    <r_e> [Ang]:                  [  0.000000,   0.000000,  -0.943287]
    |<r_e - r_h>| [Ang]:            0.034862
    Hole size [Ang]:                2.813221
      Cartesian components [Ang]: [  0.825823,   0.713608,   2.592874]
    Electron size [Ang]:            3.049477
      Cartesian components [Ang]: [  1.083514,   0.930463,   2.694354]
--------------------------------------------------------------------------------
  Starting Davidson for singlet states of irrep B2 ... 
--------------------------------------------------------------------------------
   It NVec Conv  Avg. Norm  Max. Norm  Conv. states           Remark
--------------------------------------------------------------------------------
       100    0  1.549e-01  6.145e-01  0.2720 n n n n n n n n Guess.
    1  110    0  1.696e-02  8.018e-02  0.0912 n n n n n n n n 
    2  120    0  1.265e-02  1.164e-01  0.0896 n n n n n n n n 
    3  130    0  1.661e-02  1.658e-01  0.0895 n n n n n n n n 
    4  140    0  5.715e-03  5.099e-02  0.0895 n n n n n n n n 
    5  150    4  9.346e-04  8.374e-03  0.0895 y y y n n y n n 
    6  160    6  1.222e-04  1.110e-03  0.0895 y y y y y y n n 
    7  170    8  1.654e-05  1.574e-04  0.0895 y y y y y y y n 
    8  180    9  1.677e-06  1.578e-05  0.0895 y y y y y y y y 
    9  190   10  1.515e-07  1.408e-06  0.0895 y y y y y y y y Converged.
--------------------------------------------------------------------------------
  Davidson Summary: 
 ------------------------------------------------------------
  State  0: excitation energy =   0.0895 a.u.   (converged)
  State  1: excitation energy =   0.1004 a.u.   (converged)
  State  2: excitation energy =   0.1030 a.u.   (converged)
  State  3: excitation energy =   0.1486 a.u.   (converged)
  State  4: excitation energy =   0.1743 a.u.   (converged)
  State  5: excitation energy =   0.1772 a.u.   (converged)
  State  6: excitation energy =   0.2321 a.u.   (converged)
  State  7: excitation energy =   0.2628 a.u.   (converged)
  State  8: excitation energy =   0.2652 a.u.   (converged)
  State  9: excitation energy =   0.3105 a.u.   (converged)
 ------------------------------------------------------------


--------------------------------------------------------------------------------
                   State-averaged natural transition orbitals
--------------------------------------------------------------------------------
--------------------------------------------------------------------------------

--------------------------------------------------------------------------------
                             Excited State Summary
--------------------------------------------------------------------------------
--------------------------------------------------------------------------------

  Excited state 1 (singlet, B2)                                    [converged]
  ----------------------------------------------------------------------------
  Term symbol:  1 (1) B2                                    R^2 =  1.27290e-10

  Total energy:                                           -153.8725886086 a.u.
  Excitation energy:                                               2.436721 eV

  Osc. strength:                                                      0.001112
  Trans. dip. moment [a.u.]:           [   0.000000,   -0.136460,    0.000000]
  <i|r^2|0> [a.u.]:                    [   0.000000,   -0.000000,   -0.000000]

  Dip. moment [a.u.]:                  [  -0.000000,   -0.000000,   -6.264682]
  Total dipole [Debye]:                                              15.923236
  <r^2> [a.u.]:                        [  78.187750,   25.643782,  601.178890]
  Total <r^2> [a.u.]:                                               705.010422

  V1^2 = 0.8571, V2^2 = 0.1429

  Important amplitudes:
      occ i      occ j       vir a       vir b          v   
    ---------------------------------------------------------
     2 (B2) A               8 (A1) A                 -0.6498
     2 (B2) A   2 (B2) B    8 (A1) A    4 (B2) B     -0.0627
    ---------------------------------------------------------

  Density matrix analysis:
  ------------------------
  NOs
    Occupation of frontier NOs:
       0.9580   0.9949
    Number of electrons: 26.000000
    Number of unpaired electrons: n_u =  2.75689, n_u,nl =  2.12025
    NO participation ratio (PR_NO):  3.917102
  
  
  Mulliken Population Analysis
  Atom      Charge (e)              h+              e-           Del q
  --------------------------------------------------------------------
   1 C       -0.770686        0.037928       -0.562080       -0.524152
   2 C       -0.770686        0.037928       -0.562080       -0.524152
   3 H        0.142721       -0.002344       -0.021502       -0.023847
   4 H        0.142721       -0.002344       -0.021502       -0.023847
   5 H        0.136689        0.028943        0.026439        0.055383
   6 H        0.136689        0.028943        0.026439        0.055383
   7 O       -0.183789        1.404681       -0.551788        0.852892
   8 H        0.166343        0.136683       -0.004343        0.132340
  --------------------------------------------------------------------
  Sum:       -1.000000        1.670417       -1.670417        0.000000
  
  Multipole moment analysis of the density matrix
    Molecular charge:                      -1.000000
    Number of electrons:                   26.000000
      Center of electronic charge [Ang]: [  0.000000,   0.000000,   0.127505]
    Total nuclear charge:                  25.000000
      Center of nuclear charge [Ang]:    [ -0.000000,   0.000000,  -0.000000]
    Dipole moment [D]:                     15.923231
      Cartesian components [D]:          [ -0.000000,  -0.000000, -15.923231]
    RMS size of the density [Ang]:         2.752623
      Cartesian components [Ang]:        [  0.917664,   0.525540,   2.541385]
  
  Exciton analysis of the difference density matrix
    <r_h> [Ang]:                  [ -0.000000,   0.000000,  -2.820468]
    <r_e> [Ang]:                  [  0.000000,   0.000000,   0.841555]
    |<r_e - r_h>| [Ang]:            3.662023
    Hole size [Ang]:                2.026963
      Cartesian components [Ang]: [  0.827857,   0.880958,   1.627005]
    Electron size [Ang]:            4.007926
      Cartesian components [Ang]: [  2.087021,   1.294406,   3.167385]

  Transition density matrix analysis:
  -----------------------------------
  
  CT numbers (Mulliken)
    omega =     0.8416
    <Phe> =    -0.0002
  
  Exciton analysis of the transition density matrix
    Trans. dipole moment [D]:             0.173423
      Cartesian components [D]:         [  0.000000,  -0.173423,   0.000000]
    <r_h> [Ang]:                        [ -0.000000,   0.000000,  -3.197351]
    <r_e> [Ang]:                        [  0.000000,  -0.000000,   2.969916]
    |<r_e - r_h>| [Ang]:                  6.167267
    Hole size [Ang]:                      1.088776
      Cartesian components [Ang]:       [  0.484774,   0.839588,   0.495499]
    Electron size [Ang]:                  3.504267
      Cartesian components [Ang]:       [  2.599317,   1.559549,   1.758192]
    RMS electron-hole separation [Ang]:   7.176269
      Cartesian components [Ang]:       [  2.644033,   1.770546,   6.432192]
    Covariance(r_h, r_e) [Ang^2]:         0.000833
    Correlation coefficient:              0.000218
    Center-of-mass size [Ang]:            1.834869
      Cartesian components [Ang]:       [  1.322120,   0.885914,   0.913182]

  Decomposition into state-averaged NTOs
    H- 0 -> L+ 0: -0.6059 ( 73.4%)
    H- 0 -> L+ 6: -0.1973 (  7.8%)
    H- 0 -> L+ 7: -0.0735 (  1.1%)
                   omega =  84.2%
  ----------------------------------------------------------------------------


  Excited state 2 (singlet, B2)                                    [converged]
  ----------------------------------------------------------------------------
  Term symbol:  2 (1) B2                                    R^2 =  1.68987e-10

  Total energy:                                           -153.8617431138 a.u.
  Excitation energy:                                               2.731842 eV

  Osc. strength:                                                      0.000430
  Trans. dip. moment [a.u.]:           [   0.000000,    0.080193,   -0.000000]
  <i|r^2|0> [a.u.]:                    [  -0.000000,   -0.000000,    0.000000]

  Dip. moment [a.u.]:                  [  -0.000000,   -0.000000,   -4.224794]
  Total dipole [Debye]:                                              10.738358
  <r^2> [a.u.]:                        [  67.470080,   31.483450,  576.744693]
  Total <r^2> [a.u.]:                                               675.698223

  V1^2 = 0.8554, V2^2 = 0.1446

  Important amplitudes:
      occ i      occ j       vir a       vir b          v   
    ---------------------------------------------------------
     4 (B1) A               1 (A2) A                 -0.6324
     4 (B1) A               2 (A2) A                  0.1610
    ---------------------------------------------------------

  Density matrix analysis:
  ------------------------
  NOs
    Occupation of frontier NOs:
       0.9610   0.9940
    Number of electrons: 26.000000
    Number of unpaired electrons: n_u =  2.74499, n_u,nl =  2.11271
    NO participation ratio (PR_NO):  3.879390
  
  
  Mulliken Population Analysis
  Atom      Charge (e)              h+              e-           Del q
  --------------------------------------------------------------------
   1 C       -0.688141        0.081612       -0.523219       -0.441607
   2 C       -0.688141        0.081612       -0.523219       -0.441607
   3 H        0.119494        0.001787       -0.048860       -0.047074
   4 H        0.119494        0.001787       -0.048860       -0.047074
   5 H        0.069370        0.004172       -0.016107       -0.011935
   6 H        0.069370        0.004172       -0.016107       -0.011935
   7 O       -0.141790        1.398427       -0.503536        0.894891
   8 H        0.140345        0.128485       -0.022143        0.106342
  --------------------------------------------------------------------
  Sum:       -1.000000        1.702053       -1.702053       -0.000000
  
  Multipole moment analysis of the density matrix
    Molecular charge:                      -1.000000
    Number of electrons:                   26.000000
      Center of electronic charge [Ang]: [  0.000000,   0.000000,   0.085987]
    Total nuclear charge:                  25.000000
      Center of nuclear charge [Ang]:    [ -0.000000,   0.000000,  -0.000000]
    Dipole moment [D]:                     10.738355
      Cartesian components [D]:          [ -0.000000,  -0.000000, -10.738355]
    RMS size of the density [Ang]:         2.696312
      Cartesian components [Ang]:        [  0.852452,   0.582312,   2.490850]
  
  Exciton analysis of the difference density matrix
    <r_h> [Ang]:                  [ -0.000000,   0.000000,  -2.709150]
    <r_e> [Ang]:                  [  0.000000,   0.000000,   0.250595]
    |<r_e - r_h>| [Ang]:            2.959745
    Hole size [Ang]:                2.091787
      Cartesian components [Ang]: [  0.915044,   0.786489,   1.708714]
    Electron size [Ang]:            3.383825
      Cartesian components [Ang]: [  1.635874,   1.569081,   2.512404]

  Transition density matrix analysis:
  -----------------------------------
  
  CT numbers (Mulliken)
    omega =     0.8335
    <Phe> =     0.0000
  
  Exciton analysis of the transition density matrix
    Trans. dipole moment [D]:             0.101915
      Cartesian components [D]:         [  0.000000,   0.101915,  -0.000000]
    <r_h> [Ang]:                        [ -0.000000,   0.000000,  -3.197554]
    <r_e> [Ang]:                        [  0.000000,   0.000000,   1.837146]
    |<r_e - r_h>| [Ang]:                  5.034700
    Hole size [Ang]:                      1.089318
      Cartesian components [Ang]:       [  0.839349,   0.485960,   0.495934]
    Electron size [Ang]:                  2.986237
      Cartesian components [Ang]:       [  1.993691,   1.919776,   1.121280]
    RMS electron-hole separation [Ang]:   5.953682
      Cartesian components [Ang]:       [  2.161866,   1.980198,   5.181841]
    Covariance(r_h, r_e) [Ang^2]:         0.003050
    Correlation coefficient:              0.000938
    Center-of-mass size [Ang]:            1.589837
      Cartesian components [Ang]:       [  1.082238,   0.990228,   0.613018]

  Decomposition into state-averaged NTOs
    H- 1 -> L+ 5:  0.4931 ( 48.6%)
    H- 1 -> L+ 8: -0.4154 ( 34.5%)
                   omega =  83.4%
  ----------------------------------------------------------------------------


  Excited state 3 (singlet, B2)                                    [converged]
  ----------------------------------------------------------------------------
  Term symbol:  3 (1) B2                                    R^2 =  5.55174e-10

  Total energy:                                           -153.8591188114 a.u.
  Excitation energy:                                               2.803253 eV

  Osc. strength:                                                      0.012229
  Trans. dip. moment [a.u.]:           [   0.000000,   -0.421977,   -0.000000]
  <i|r^2|0> [a.u.]:                    [  -0.000000,   -0.000000,   -0.000000]

  Dip. moment [a.u.]:                  [   0.000000,   -0.000000,   -2.603053]
  Total dipole [Debye]:                                               6.616302
  <r^2> [a.u.]:                        [  72.507545,   25.775837,  586.484592]
  Total <r^2> [a.u.]:                                               684.767973

  V1^2 = 0.8698, V2^2 = 0.1302

  Important amplitudes:
      occ i      occ j       vir a       vir b          v   
    ---------------------------------------------------------
     2 (B2) A               9 (A1) A                 -0.6042
     2 (B2) A              10 (A1) A                  0.2309
    ---------------------------------------------------------

  Density matrix analysis:
  ------------------------
  NOs
    Occupation of frontier NOs:
       0.9623   0.9927
    Number of electrons: 26.000000
    Number of unpaired electrons: n_u =  2.74893, n_u,nl =  2.11706
    NO participation ratio (PR_NO):  3.888623
  
  
  Mulliken Population Analysis
  Atom      Charge (e)              h+              e-           Del q
  --------------------------------------------------------------------
   1 C       -0.735204        0.014107       -0.502776       -0.488669
   2 C       -0.735204        0.014107       -0.502776       -0.488669
   3 H        0.156820        0.000390       -0.010137       -0.009747
   4 H        0.156820        0.000390       -0.010137       -0.009747
   5 H        0.076750        0.005801       -0.010357       -0.004556
   6 H        0.076750        0.005801       -0.010357       -0.004556
   7 O       -0.182743        1.389907       -0.535969        0.853938
   8 H        0.186011        0.129000        0.023008        0.152008
  --------------------------------------------------------------------
  Sum:       -1.000000        1.559502       -1.559502        0.000000
  
  Multipole moment analysis of the density matrix
    Molecular charge:                      -1.000000
    Number of electrons:                   26.000000
      Center of electronic charge [Ang]: [ -0.000000,   0.000000,   0.052980]
    Total nuclear charge:                  25.000000
      Center of nuclear charge [Ang]:    [ -0.000000,   0.000000,  -0.000000]
    Dipole moment [D]:                     6.616300
      Cartesian components [D]:          [  0.000000,  -0.000000,  -6.616300]
    RMS size of the density [Ang]:         2.715211
      Cartesian components [Ang]:        [  0.883702,   0.526891,   2.512732]
  
  Exciton analysis of the difference density matrix
    <r_h> [Ang]:                  [ -0.000000,   0.000000,  -3.081397]
    <r_e> [Ang]:                  [ -0.000000,   0.000000,  -0.401404]
    |<r_e - r_h>| [Ang]:            2.679993
    Hole size [Ang]:                1.673697
      Cartesian components [Ang]: [  0.804569,   0.897414,   1.161283]
    Electron size [Ang]:            3.680118
      Cartesian components [Ang]: [  1.886459,   1.338817,   2.862186]

  Transition density matrix analysis:
  -----------------------------------
  
  CT numbers (Mulliken)
    omega =     0.8540
    <Phe> =    -0.0025
  
  Exciton analysis of the transition density matrix
    Trans. dipole moment [D]:             0.536279
      Cartesian components [D]:         [  0.000000,  -0.536279,  -0.000000]
    <r_h> [Ang]:                        [ -0.000000,   0.000000,  -3.196911]
    <r_e> [Ang]:                        [ -0.000000,   0.000000,   0.930451]
    |<r_e - r_h>| [Ang]:                  4.127362
    Hole size [Ang]:                      1.086008
      Cartesian components [Ang]:       [  0.484682,   0.836680,   0.494432]
    Electron size [Ang]:                  3.753363
      Cartesian components [Ang]:       [  2.261368,   1.570557,   2.550942]
    RMS electron-hole separation [Ang]:   5.683094
      Cartesian components [Ang]:       [  2.312552,   1.778035,   4.877320]
    Covariance(r_h, r_e) [Ang^2]:         0.002353
    Correlation coefficient:              0.000577
    Center-of-mass size [Ang]:            1.953961
      Cartesian components [Ang]:       [  1.156450,   0.890499,   1.299076]

  Decomposition into state-averaged NTOs
    H- 0 -> L+ 2: -0.4042 ( 32.7%)
    H- 0 -> L+ 4:  0.3511 ( 24.7%)
    H- 0 -> L+ 6:  0.2942 ( 17.3%)
    H- 0 -> L+ 7:  0.1700 (  5.8%)
    H- 0 -> L+ 1:  0.1192 (  2.8%)
    H- 0 -> L+ 0: -0.0977 (  1.9%)
                   omega =  85.4%
  ----------------------------------------------------------------------------


  Excited state 4 (singlet, B2)                                    [converged]
  ----------------------------------------------------------------------------
  Term symbol:  4 (1) B2                                    R^2 =  9.76671e-10

  Total energy:                                           -153.8135325652 a.u.
  Excitation energy:                                               4.043717 eV

  Osc. strength:                                                      0.009827
  Trans. dip. moment [a.u.]:           [  -0.000000,    0.314953,    0.000000]
  <i|r^2|0> [a.u.]:                    [  -0.000000,    0.000000,   -0.000000]

  Dip. moment [a.u.]:                  [  -0.000000,    0.000000,   -3.437719]
  Total dipole [Debye]:                                               8.737811
  <r^2> [a.u.]:                        [  70.102552,   27.784757,  580.667879]
  Total <r^2> [a.u.]:                                               678.555188

  V1^2 = 0.8670, V2^2 = 0.1330

  Important amplitudes:
      occ i      occ j       vir a       vir b          v   
    ---------------------------------------------------------
     2 (B2) A              10 (A1) A                 -0.5919
     2 (B2) A               9 (A1) A                 -0.2458
    ---------------------------------------------------------

  Density matrix analysis:
  ------------------------
  NOs
    Occupation of frontier NOs:
       0.9598   0.9937
    Number of electrons: 26.000000
    Number of unpaired electrons: n_u =  2.74884, n_u,nl =  2.11610
    NO participation ratio (PR_NO):  3.894735
  
  
  Mulliken Population Analysis
  Atom      Charge (e)              h+              e-           Del q
  --------------------------------------------------------------------
   1 C       -0.747072        0.037491       -0.538029       -0.500538
   2 C       -0.747072        0.037491       -0.538029       -0.500538
   3 H        0.158625       -0.000660       -0.007282       -0.007942
   4 H        0.158625       -0.000660       -0.007282       -0.007942
   5 H        0.110197        0.002777        0.026114        0.028891
   6 H        0.110197        0.002777        0.026114        0.028891
   7 O       -0.183042        1.392225       -0.538587        0.853639
   8 H        0.139543        0.126123       -0.020583        0.105539
  --------------------------------------------------------------------
  Sum:       -1.000000        1.597564       -1.597564       -0.000000
  
  Multipole moment analysis of the density matrix
    Molecular charge:                      -1.000000
    Number of electrons:                   26.000000
      Center of electronic charge [Ang]: [  0.000000,  -0.000000,   0.069968]
    Total nuclear charge:                  25.000000
      Center of nuclear charge [Ang]:    [ -0.000000,   0.000000,  -0.000000]
    Dipole moment [D]:                     8.737809
      Cartesian components [D]:          [ -0.000000,   0.000000,  -8.737809]
    RMS size of the density [Ang]:         2.702474
      Cartesian components [Ang]:        [  0.868923,   0.547038,   2.499818]
  
  Exciton analysis of the difference density matrix
    <r_h> [Ang]:                  [ -0.000000,   0.000000,  -2.971290]
    <r_e> [Ang]:                  [  0.000000,  -0.000000,  -0.078673]
    |<r_e - r_h>| [Ang]:            2.892617
    Hole size [Ang]:                1.812371
      Cartesian components [Ang]: [  0.812665,   0.897938,   1.348322]
    Electron size [Ang]:            3.520318
      Cartesian components [Ang]: [  1.755249,   1.456704,   2.681371]

  Transition density matrix analysis:
  -----------------------------------
  
  CT numbers (Mulliken)
    omega =     0.8512
    <Phe> =    -0.0021
  
  Exciton analysis of the transition density matrix
    Trans. dipole moment [D]:             0.400266
      Cartesian components [D]:         [ -0.000000,   0.400266,   0.000000]
    <r_h> [Ang]:                        [ -0.000000,   0.000000,  -3.196800]
    <r_e> [Ang]:                        [  0.000000,  -0.000000,   1.386358]
    |<r_e - r_h>| [Ang]:                  4.583158
    Hole size [Ang]:                      1.086298
      Cartesian components [Ang]:       [  0.483541,   0.837421,   0.494933]
    Electron size [Ang]:                  3.345262
      Cartesian components [Ang]:       [  2.091475,   1.734150,   1.951727]
    RMS electron-hole separation [Ang]:   5.776635
      Cartesian components [Ang]:       [  2.146526,   1.923729,   5.006117]
    Covariance(r_h, r_e) [Ang^2]:         0.003324
    Correlation coefficient:              0.000915
    Center-of-mass size [Ang]:            1.759082
      Cartesian components [Ang]:       [  1.073380,   0.963894,   1.006544]

  Decomposition into state-averaged NTOs
    H- 0 -> L+ 6:  0.5165 ( 53.4%)
    H- 0 -> L+ 2:  0.3252 ( 21.1%)
    H- 0 -> L+ 0: -0.1862 (  6.9%)
    H- 0 -> L+ 1: -0.0898 (  1.6%)
    H- 0 -> L+ 7: -0.0896 (  1.6%)
                   omega =  85.1%
  ----------------------------------------------------------------------------


  Excited state 5 (singlet, B2)                                    [converged]
  ----------------------------------------------------------------------------
  Term symbol:  5 (1) B2                                    R^2 =  2.75516e-09

  Total energy:                                           -153.7877950704 a.u.
  Excitation energy:                                               4.744070 eV

  Osc. strength:                                                      0.064211
  Trans. dip. moment [a.u.]:           [   0.000000,   -0.743277,    0.000000]
  <i|r^2|0> [a.u.]:                    [  -0.000000,   -0.000000,    0.000000]

  Dip. moment [a.u.]:                  [  -0.000000,    0.000000,    5.609313]
  Total dipole [Debye]:                                              14.257455
  <r^2> [a.u.]:                        [  60.174341,   22.521273,  616.935050]
  Total <r^2> [a.u.]:                                               699.630664

  V1^2 = 0.9041, V2^2 = 0.0959

  Important amplitudes:
      occ i      occ j       vir a       vir b          v   
    ---------------------------------------------------------
     2 (B2) A              12 (A1) A                  0.4705
     2 (B2) A              11 (A1) A                 -0.4432
    ---------------------------------------------------------

  Density matrix analysis:
  ------------------------
  NOs
    Occupation of frontier NOs:
       0.9659   0.9986
    Number of electrons: 26.000000
    Number of unpaired electrons: n_u =  2.69846, n_u,nl =  2.09622
    NO participation ratio (PR_NO):  3.722618
  
  
  Mulliken Population Analysis
  Atom      Charge (e)              h+              e-           Del q
  --------------------------------------------------------------------
   1 C       -0.241445        0.005837       -0.000748        0.005089
   2 C       -0.241445        0.005837       -0.000748        0.005089
   3 H        0.122910        0.001433       -0.045091       -0.043658
   4 H        0.122910        0.001433       -0.045091       -0.043658
   5 H        0.082687        0.000228        0.001153        0.001381
   6 H        0.082687        0.000228        0.001153        0.001381
   7 O       -1.674909        1.244058       -1.882287       -0.638229
   8 H        0.746606        0.165877        0.546725        0.712603
  --------------------------------------------------------------------
  Sum:       -1.000000        1.424932       -1.424932       -0.000000
  
  Multipole moment analysis of the density matrix
    Molecular charge:                      -1.000000
    Number of electrons:                   26.000000
      Center of electronic charge [Ang]: [  0.000000,  -0.000000,  -0.114166]
    Total nuclear charge:                  25.000000
      Center of nuclear charge [Ang]:    [ -0.000000,   0.000000,  -0.000000]
    Dipole moment [D]:                     14.257451
      Cartesian components [D]:          [ -0.000000,   0.000000,  14.257451]
    RMS size of the density [Ang]:         2.742666
      Cartesian components [Ang]:        [  0.805045,   0.492505,   2.575181]
  
  Exciton analysis of the difference density matrix
    <r_h> [Ang]:                  [ -0.000000,   0.000000,  -3.193893]
    <r_e> [Ang]:                  [  0.000000,  -0.000000,  -3.310630]
    |<r_e - r_h>| [Ang]:            0.116737
    Hole size [Ang]:                1.450897
      Cartesian components [Ang]: [  0.749981,   0.889372,   0.866976]
    Electron size [Ang]:            2.409921
      Cartesian components [Ang]: [  1.151126,   1.109816,   1.803035]

  Transition density matrix analysis:
  -----------------------------------
  
  CT numbers (Mulliken)
    omega =     0.8845
    <Phe> =    -0.0145
  
  Exciton analysis of the transition density matrix
    Trans. dipole moment [D]:             0.944611
      Cartesian components [D]:         [  0.000000,  -0.944611,   0.000000]
    <r_h> [Ang]:                        [ -0.000000,   0.000000,  -3.197930]
    <r_e> [Ang]:                        [  0.000000,  -0.000000,  -3.490191]
    |<r_e - r_h>| [Ang]:                  0.292262
    Hole size [Ang]:                      1.075135
      Cartesian components [Ang]:       [  0.478795,   0.828972,   0.489363]
    Electron size [Ang]:                  2.659812
      Cartesian components [Ang]:       [  1.267413,   1.235102,   1.985646]
    RMS electron-hole separation [Ang]:   2.881829
      Cartesian components [Ang]:       [  1.354611,   1.484714,   2.065332]
    Covariance(r_h, r_e) [Ang^2]:         0.005497
    Correlation coefficient:              0.001922
    Center-of-mass size [Ang]:            1.435402
      Cartesian components [Ang]:       [  0.677530,   0.745146,   1.022785]

  Decomposition into state-averaged NTOs
    H- 0 -> L+ 1:  0.5943 ( 70.6%)
    H- 0 -> L+ 2:  0.2245 ( 10.1%)
    H- 0 -> L+ 4:  0.1528 (  4.7%)
    H- 0 -> L+ 7: -0.1089 (  2.4%)
                   omega =  88.4%
  ----------------------------------------------------------------------------


  Excited state 6 (singlet, B2)                                    [converged]
  ----------------------------------------------------------------------------
  Term symbol:  6 (1) B2                                    R^2 =  6.33032e-10

  Total energy:                                           -153.7849457308 a.u.
  Excitation energy:                                               4.821605 eV

  Osc. strength:                                                      0.000737
  Trans. dip. moment [a.u.]:           [  -0.000000,   -0.078967,    0.000000]
  <i|r^2|0> [a.u.]:                    [  -0.000000,   -0.000000,    0.000000]

  Dip. moment [a.u.]:                  [  -0.000000,    0.000000,   -4.230267]
  Total dipole [Debye]:                                              10.752269
  <r^2> [a.u.]:                        [  69.943514,   34.011432,  577.722149]
  Total <r^2> [a.u.]:                                               681.677095

  V1^2 = 0.8511, V2^2 = 0.1489

  Important amplitudes:
      occ i      occ j       vir a       vir b          v   
    ---------------------------------------------------------
     4 (B1) A               2 (A2) A                  0.6266
     4 (B1) A               1 (A2) A                  0.1697
    ---------------------------------------------------------

  Density matrix analysis:
  ------------------------
  NOs
    Occupation of frontier NOs:
       0.9588   0.9932
    Number of electrons: 26.000000
    Number of unpaired electrons: n_u =  2.74768, n_u,nl =  2.11257
    NO participation ratio (PR_NO):  3.898822
  
  
  Mulliken Population Analysis
  Atom      Charge (e)              h+              e-           Del q
  --------------------------------------------------------------------
   1 C       -0.660717        0.098727       -0.512909       -0.414183
   2 C       -0.660717        0.098727       -0.512909       -0.414183
   3 H        0.106619        0.000595       -0.060543       -0.059948
   4 H        0.106619        0.000595       -0.060543       -0.059948
   5 H        0.054922        0.003030       -0.029414       -0.026384
   6 H        0.054922        0.003030       -0.029414       -0.026384
   7 O       -0.141365        1.393053       -0.497737        0.895316
   8 H        0.139716        0.127703       -0.021990        0.105713
  --------------------------------------------------------------------
  Sum:       -1.000000        1.725459       -1.725459       -0.000000
  
  Multipole moment analysis of the density matrix
    Molecular charge:                      -1.000000
    Number of electrons:                   26.000000
      Center of electronic charge [Ang]: [  0.000000,  -0.000000,   0.086099]
    Total nuclear charge:                  25.000000
      Center of nuclear charge [Ang]:    [ -0.000000,   0.000000,  -0.000000]
    Dipole moment [D]:                     10.752266
      Cartesian components [D]:          [ -0.000000,   0.000000, -10.752266]
    RMS size of the density [Ang]:         2.708223
      Cartesian components [Ang]:        [  0.867937,   0.605239,   2.492959]
  
  Exciton analysis of the difference density matrix
    <r_h> [Ang]:                  [ -0.000000,   0.000000,  -2.630419]
    <r_e> [Ang]:                  [  0.000000,  -0.000000,   0.290855]
    |<r_e - r_h>| [Ang]:            2.921274
    Hole size [Ang]:                2.148400
      Cartesian components [Ang]: [  0.905720,   0.763540,   1.792289]
    Electron size [Ang]:            3.495882
      Cartesian components [Ang]: [  1.742292,   1.676814,   2.524660]

  Transition density matrix analysis:
  -----------------------------------
  
  CT numbers (Mulliken)
    omega =     0.8286
    <Phe> =     0.0000
  
  Exciton analysis of the transition density matrix
    Trans. dipole moment [D]:             0.100357
      Cartesian components [D]:         [ -0.000000,  -0.100357,   0.000000]
    <r_h> [Ang]:                        [ -0.000000,   0.000000,  -3.197548]
    <r_e> [Ang]:                        [  0.000000,  -0.000000,   1.838487]
    |<r_e - r_h>| [Ang]:                  5.036035
    Hole size [Ang]:                      1.088983
      Cartesian components [Ang]:       [  0.839745,   0.484652,   0.495807]
    Electron size [Ang]:                  3.251610
      Cartesian components [Ang]:       [  2.157496,   2.103660,   1.221801]
    RMS electron-hole separation [Ang]:   6.092180
      Cartesian components [Ang]:       [  2.313955,   2.158693,   5.205795]
    Covariance(r_h, r_e) [Ang^2]:         0.002923
    Correlation coefficient:              0.000825
    Center-of-mass size [Ang]:            1.714985
      Cartesian components [Ang]:       [  1.158181,   1.079419,   0.659277]

  Decomposition into state-averaged NTOs
    H- 1 -> L+ 8: -0.4836 ( 46.8%)
    H- 1 -> L+ 5: -0.4246 ( 36.1%)
                   omega =  82.9%
  ----------------------------------------------------------------------------


  Excited state 7 (singlet, B2)                                    [converged]
  ----------------------------------------------------------------------------
  Term symbol:  7 (1) B2                                    R^2 =  9.69095e-09

  Total energy:                                           -153.7299993294 a.u.
  Excitation energy:                                               6.316772 eV

  Osc. strength:                                                      0.021746
  Trans. dip. moment [a.u.]:           [  -0.000000,    0.374852,    0.000000]
  <i|r^2|0> [a.u.]:                    [   0.000000,    0.000000,    0.000000]

  Dip. moment [a.u.]:                  [  -0.000000,    0.000000,   -2.246624]
  Total dipole [Debye]:                                               5.710349
  <r^2> [a.u.]:                        [  60.013000,   25.360247,  581.813728]
  Total <r^2> [a.u.]:                                               667.186976

  V1^2 = 0.8737, V2^2 = 0.1263

  Important amplitudes:
      occ i      occ j       vir a       vir b          v   
    ---------------------------------------------------------
     2 (B2) A              11 (A1) A                 -0.4680
     2 (B2) A              12 (A1) A                 -0.3715
    ---------------------------------------------------------

  Density matrix analysis:
  ------------------------
  NOs
    Occupation of frontier NOs:
       0.9617   0.9891
    Number of electrons: 26.000000
    Number of unpaired electrons: n_u =  2.74275, n_u,nl =  2.11388
    NO participation ratio (PR_NO):  3.889319
  
  
  Mulliken Population Analysis
  Atom      Charge (e)              h+              e-           Del q
  --------------------------------------------------------------------
   1 C       -0.341506        0.051560       -0.146532       -0.094972
   2 C       -0.341506        0.051560       -0.146532       -0.094972
   3 H        0.042699        0.003068       -0.126937       -0.123868
   4 H        0.042699        0.003068       -0.126937       -0.123868
   5 H       -0.045646        0.005580       -0.132531       -0.126952
   6 H       -0.045646        0.005580       -0.132531       -0.126952
   7 O       -0.343582        1.356565       -0.663466        0.693099
   8 H        0.032488        0.114478       -0.115993       -0.001515
  --------------------------------------------------------------------
  Sum:       -1.000000        1.591458       -1.591458        0.000000
  
  Multipole moment analysis of the density matrix
    Molecular charge:                      -1.000000
    Number of electrons:                   26.000000
      Center of electronic charge [Ang]: [  0.000000,  -0.000000,   0.045725]
    Total nuclear charge:                  25.000000
      Center of nuclear charge [Ang]:    [ -0.000000,   0.000000,  -0.000000]
    Dipole moment [D]:                     5.710348
      Cartesian components [D]:          [ -0.000000,   0.000000,  -5.710348]
    RMS size of the density [Ang]:         2.680248
      Cartesian components [Ang]:        [  0.803965,   0.522626,   2.502845]
  
  Exciton analysis of the difference density matrix
    <r_h> [Ang]:                  [ -0.000000,   0.000000,  -2.855993]
    <r_e> [Ang]:                  [  0.000000,  -0.000000,  -0.348329]
    |<r_e - r_h>| [Ang]:            2.507663
    Hole size [Ang]:                1.936301
      Cartesian components [Ang]: [  0.804933,   0.891593,   1.518686]
    Electron size [Ang]:            3.173479
      Cartesian components [Ang]: [  1.141205,   1.299643,   2.660742]

  Transition density matrix analysis:
  -----------------------------------
  
  CT numbers (Mulliken)
    omega =     0.8559
    <Phe> =    -0.0071
  
  Exciton analysis of the transition density matrix
    Trans. dipole moment [D]:             0.476389
      Cartesian components [D]:         [ -0.000000,   0.476389,   0.000000]
    <r_h> [Ang]:                        [ -0.000000,   0.000000,  -3.196381]
    <r_e> [Ang]:                        [  0.000000,  -0.000000,   0.715528]
    |<r_e - r_h>| [Ang]:                  3.911910
    Hole size [Ang]:                      1.083277
      Cartesian components [Ang]:       [  0.482025,   0.834692,   0.494399]
    Electron size [Ang]:                  3.045004
      Cartesian components [Ang]:       [  1.224635,   1.510811,   2.343026]
    RMS electron-hole separation [Ang]:   5.073609
      Cartesian components [Ang]:       [  1.315904,   1.723910,   4.586725]
    Covariance(r_h, r_e) [Ang^2]:         0.003532
    Correlation coefficient:              0.001071
    Center-of-mass size [Ang]:            1.616524
      Cartesian components [Ang]:       [  0.658133,   0.864096,   1.197225]

  Decomposition into state-averaged NTOs
    H- 0 -> L+ 4:  0.4664 ( 43.5%)
    H- 0 -> L+ 2:  0.3133 ( 19.6%)
    H- 0 -> L+ 1: -0.2170 (  9.4%)
    H- 0 -> L+ 7:  0.1823 (  6.6%)
    H- 0 -> L+ 6: -0.1724 (  5.9%)
                   omega =  85.6%
  ----------------------------------------------------------------------------


  Excited state 8 (singlet, B2)                                    [converged]
  ----------------------------------------------------------------------------
  Term symbol:  8 (1) B2                                    R^2 =  5.58340e-07

  Total energy:                                           -153.6993372885 a.u.
  Excitation energy:                                               7.151129 eV

  Osc. strength:                                                      0.000418
  Trans. dip. moment [a.u.]:           [   0.000000,   -0.048825,    0.000000]
  <i|r^2|0> [a.u.]:                    [  -0.000000,    0.000000,    0.000000]

  Dip. moment [a.u.]:                  [   0.000000,   -0.000000,   -4.187140]
  Total dipole [Debye]:                                              10.642649
  <r^2> [a.u.]:                        [  64.178416,   45.769319,  579.636753]
  Total <r^2> [a.u.]:                                               689.584489

  V1^2 = 0.8674, V2^2 = 0.1326

  Important amplitudes:
      occ i      occ j       vir a       vir b          v   
    ---------------------------------------------------------
     7 (A1) A               3 (B2) A                  0.6552
     7 (A1) A   2 (B2) B    3 (B2) A    4 (B2) B      0.0522
    ---------------------------------------------------------

  Density matrix analysis:
  ------------------------
  NOs
    Occupation of frontier NOs:
       0.9761   0.9962
    Number of electrons: 26.000000
    Number of unpaired electrons: n_u =  2.79459, n_u,nl =  2.13359
    NO participation ratio (PR_NO):  3.942367
  
  
  Mulliken Population Analysis
  Atom      Charge (e)              h+              e-           Del q
  --------------------------------------------------------------------
   1 C       -0.704174        0.037453       -0.495093       -0.457640
   2 C       -0.704174        0.037453       -0.495093       -0.457640
   3 H        0.126189       -0.002605       -0.037773       -0.040378
   4 H        0.126189       -0.002605       -0.037773       -0.040378
   5 H        0.080823        0.002289       -0.002773       -0.000483
   6 H        0.080823        0.002289       -0.002773       -0.000483
   7 O       -0.332988        1.225594       -0.521901        0.703693
   8 H        0.327313        0.310470       -0.017160        0.293310
  --------------------------------------------------------------------
  Sum:       -1.000000        1.610339       -1.610339       -0.000000
  
  Multipole moment analysis of the density matrix
    Molecular charge:                      -1.000000
    Number of electrons:                   26.000000
      Center of electronic charge [Ang]: [ -0.000000,   0.000000,   0.085221]
    Total nuclear charge:                  25.000000
      Center of nuclear charge [Ang]:    [ -0.000000,   0.000000,  -0.000000]
    Dipole moment [D]:                     10.642646
      Cartesian components [D]:          [  0.000000,  -0.000000, -10.642646]
    RMS size of the density [Ang]:         2.723929
      Cartesian components [Ang]:        [  0.831398,   0.702104,   2.497121]
  
  Exciton analysis of the difference density matrix
    <r_h> [Ang]:                  [ -0.000000,   0.000000,  -2.998996]
    <r_e> [Ang]:                  [ -0.000000,   0.000000,   0.116942]
    |<r_e - r_h>| [Ang]:            3.115938
    Hole size [Ang]:                1.776376
      Cartesian components [Ang]: [  0.791231,   0.769604,   1.391824]
    Electron size [Ang]:            3.786430
      Cartesian components [Ang]: [  1.413204,   2.241642,   2.704615]

  Transition density matrix analysis:
  -----------------------------------
  
  CT numbers (Mulliken)
    omega =     0.8498
    <Phe> =     0.0001
  
  Exciton analysis of the transition density matrix
    Trans. dipole moment [D]:             0.062050
      Cartesian components [D]:         [  0.000000,  -0.062050,   0.000000]
    <r_h> [Ang]:                        [ -0.000000,   0.000000,  -3.238565]
    <r_e> [Ang]:                        [ -0.000000,   0.000000,   1.818079]
    |<r_e - r_h>| [Ang]:                  5.056644
    Hole size [Ang]:                      1.024647
      Cartesian components [Ang]:       [  0.421400,   0.421554,   0.833437]
    Electron size [Ang]:                  3.622000
      Cartesian components [Ang]:       [  1.652996,   2.778139,   1.633532]
    RMS electron-hole separation [Ang]:   6.303248
      Cartesian components [Ang]:       [  1.706547,   2.810785,   5.377558]
    Covariance(r_h, r_e) [Ang^2]:         0.003746
    Correlation coefficient:              0.001009
    Center-of-mass size [Ang]:            1.882570
      Cartesian components [Ang]:       [  0.852591,   1.404548,   0.918914]

  Decomposition into state-averaged NTOs
    H- 3 -> L+ 3:  0.6513 ( 84.8%)
                   omega =  85.0%
  ----------------------------------------------------------------------------


  Excited state 9 (singlet, B2)                                    [converged]
  ----------------------------------------------------------------------------
  Term symbol:  9 (1) B2                                    R^2 =  2.16002e-08

  Total energy:                                           -153.6969162474 a.u.
  Excitation energy:                                               7.217009 eV

  Osc. strength:                                                      0.087072
  Trans. dip. moment [a.u.]:           [  -0.000000,    0.701747,    0.000000]
  <i|r^2|0> [a.u.]:                    [   0.000000,    0.000000,   -0.000000]

  Dip. moment [a.u.]:                  [  -0.000000,   -0.000000,    2.631463]
  Total dipole [Debye]:                                               6.688513
  <r^2> [a.u.]:                        [  64.868462,   25.140406,  630.086119]
  Total <r^2> [a.u.]:                                               720.094987

  V1^2 = 0.9521, V2^2 = 0.0479

  Important amplitudes:
      occ i      occ j       vir a       vir b          v   
    ---------------------------------------------------------
     1 (B2) A               8 (A1) A                 -0.6392
     1 (B2) A              10 (A1) A                 -0.1677
    ---------------------------------------------------------

  Density matrix analysis:
  ------------------------
  NOs
    Occupation of frontier NOs:
       0.9838   0.9916
    Number of electrons: 26.000000
    Number of unpaired electrons: n_u =  2.59620, n_u,nl =  2.06381
    NO participation ratio (PR_NO):  3.425104
  
  
  Mulliken Population Analysis
  Atom      Charge (e)              h+              e-           Del q
  --------------------------------------------------------------------
   1 C       -0.390969        0.528675       -0.673110       -0.144435
   2 C       -0.390969        0.528675       -0.673110       -0.144435
   3 H        0.225641        0.053162        0.005912        0.059074
   4 H        0.225641        0.053162        0.005912        0.059074
   5 H        0.167830        0.108235       -0.021711        0.086524
   6 H        0.167830        0.108235       -0.021711        0.086524
   7 O       -1.048203        0.009195       -0.020717       -0.011522
   8 H        0.043198        0.008279        0.000916        0.009195
  --------------------------------------------------------------------
  Sum:       -1.000000        1.397619       -1.397619       -0.000000
  
  Multipole moment analysis of the density matrix
    Molecular charge:                      -1.000000
    Number of electrons:                   26.000000
      Center of electronic charge [Ang]: [  0.000000,   0.000000,  -0.053558]
    Total nuclear charge:                  25.000000
      Center of nuclear charge [Ang]:    [ -0.000000,   0.000000,  -0.000000]
    Dipole moment [D]:                     6.688511
      Cartesian components [D]:          [ -0.000000,  -0.000000,   6.688511]
    RMS size of the density [Ang]:         2.784383
      Cartesian components [Ang]:        [  0.835856,   0.520356,   2.604489]
  
  Exciton analysis of the difference density matrix
    <r_h> [Ang]:                  [  0.000000,  -0.000000,   1.841307]
    <r_e> [Ang]:                  [  0.000000,  -0.000000,   2.849786]
    |<r_e - r_h>| [Ang]:            1.008479
    Hole size [Ang]:                1.668292
      Cartesian components [Ang]: [  1.013597,   0.871273,   0.998349]
    Electron size [Ang]:            2.588767
      Cartesian components [Ang]: [  1.656931,   1.316515,   1.491000]

  Transition density matrix analysis:
  -----------------------------------
  
  CT numbers (Mulliken)
    omega =     0.9207
    <Phe> =    -0.0092
  
  Exciton analysis of the transition density matrix
    Trans. dipole moment [D]:             0.891831
      Cartesian components [D]:         [ -0.000000,   0.891831,   0.000000]
    <r_h> [Ang]:                        [  0.000000,  -0.000000,   1.837780]
    <r_e> [Ang]:                        [  0.000000,  -0.000000,   3.329944]
    |<r_e - r_h>| [Ang]:                  1.492164
    Hole size [Ang]:                      1.270148
      Cartesian components [Ang]:       [  0.757188,   0.864959,   0.540176]
    Electron size [Ang]:                  2.742351
      Cartesian components [Ang]:       [  1.862945,   1.511751,   1.328357]
    RMS electron-hole separation [Ang]:   3.359988
      Cartesian components [Ang]:       [  2.004545,   1.734820,   2.064392]
    Covariance(r_h, r_e) [Ang^2]:         0.035401
    Correlation coefficient:              0.010163
    Center-of-mass size [Ang]:            1.516952
      Cartesian components [Ang]:       [  1.008662,   0.874284,   0.720674]

  Decomposition into state-averaged NTOs
    H- 2 -> L+ 0: -0.6768 ( 91.6%)
                   omega =  92.1%
  ----------------------------------------------------------------------------


  Excited state 10 (singlet, B2)                                    [converged]
  ----------------------------------------------------------------------------
  Term symbol:  10 (1) B2                                   R^2 =  1.40786e-06

  Total energy:                                           -153.6516348525 a.u.
  Excitation energy:                                               8.449178 eV

  Osc. strength:                                                      0.005377
  Trans. dip. moment [a.u.]:           [   0.000000,   -0.161167,    0.000000]
  <i|r^2|0> [a.u.]:                    [   0.000000,    0.000000,    0.000000]

  Dip. moment [a.u.]:                  [   0.000000,   -0.000000,   -3.422500]
  Total dipole [Debye]:                                               8.699130
  <r^2> [a.u.]:                        [  62.747855,   21.624436,  588.290352]
  Total <r^2> [a.u.]:                                               672.662642

  V1^2 = 0.8614, V2^2 = 0.1386

  Important amplitudes:
      occ i      occ j       vir a       vir b          v   
    ---------------------------------------------------------
     2 (B2) A              13 (A1) A                 -0.5669
     2 (B2) A              12 (A1) A                  0.1876
    ---------------------------------------------------------

  Density matrix analysis:
  ------------------------
  NOs
    Occupation of frontier NOs:
       0.9611   0.9859
    Number of electrons: 26.000000
    Number of unpaired electrons: n_u =  2.75604, n_u,nl =  2.11836
    NO participation ratio (PR_NO):  3.940132
  
  
  Mulliken Population Analysis
  Atom      Charge (e)              h+              e-           Del q
  --------------------------------------------------------------------
   1 C       -0.186891        0.068679       -0.009036        0.059643
   2 C       -0.186891        0.068679       -0.009036        0.059643
   3 H       -0.103847        0.009322       -0.279735       -0.270414
   4 H       -0.103847        0.009322       -0.279735       -0.270414
   5 H       -0.169106        0.012600       -0.263012       -0.250412
   6 H       -0.169106        0.012600       -0.263012       -0.250412
   7 O       -0.097433        1.379625       -0.440378        0.939248
   8 H        0.017121        0.108632       -0.125514       -0.016882
  --------------------------------------------------------------------
  Sum:       -1.000000        1.669458       -1.669458        0.000000
  
  Multipole moment analysis of the density matrix
    Molecular charge:                      -1.000000
    Number of electrons:                   26.000000
      Center of electronic charge [Ang]: [ -0.000000,   0.000000,   0.069658]
    Total nuclear charge:                  25.000000
      Center of nuclear charge [Ang]:    [ -0.000000,   0.000000,  -0.000000]
    Dipole moment [D]:                     8.699127
      Cartesian components [D]:          [  0.000000,  -0.000000,  -8.699127]
    RMS size of the density [Ang]:         2.690715
      Cartesian components [Ang]:        [  0.822080,   0.482599,   2.516193]
  
  Exciton analysis of the difference density matrix
    <r_h> [Ang]:                  [ -0.000000,   0.000000,  -2.665115]
    <r_e> [Ang]:                  [ -0.000000,   0.000000,   0.098110]
    |<r_e - r_h>| [Ang]:            2.763225
    Hole size [Ang]:                2.123812
      Cartesian components [Ang]: [  0.812168,   0.872028,   1.757989]
    Electron size [Ang]:            3.299798
      Cartesian components [Ang]: [  1.319927,   0.993056,   2.856624]

  Transition density matrix analysis:
  -----------------------------------
  
  CT numbers (Mulliken)
    omega =     0.8423
    <Phe> =    -0.0014
  
  Exciton analysis of the transition density matrix
    Trans. dipole moment [D]:             0.204823
      Cartesian components [D]:         [  0.000000,  -0.204823,   0.000000]
    <r_h> [Ang]:                        [ -0.000000,   0.000000,  -3.194691]
    <r_e> [Ang]:                        [ -0.000000,   0.000000,   1.360931]
    |<r_e - r_h>| [Ang]:                  4.555622
    Hole size [Ang]:                      1.089023
      Cartesian components [Ang]:       [  0.482676,   0.835601,   0.504743]
    Electron size [Ang]:                  3.078754
      Cartesian components [Ang]:       [  1.488076,   1.094769,   2.462891]
    RMS electron-hole separation [Ang]:   5.605219
      Cartesian components [Ang]:       [  1.564184,   1.376480,   5.203567]
    Covariance(r_h, r_e) [Ang^2]:        -0.000049
    Correlation coefficient:             -0.000015
    Center-of-mass size [Ang]:            1.632835
      Cartesian components [Ang]:       [  0.782308,   0.688984,   1.256759]

  Decomposition into state-averaged NTOs
    H- 0 -> L+ 7: -0.5756 ( 66.3%)
    H- 0 -> L+ 4:  0.2360 ( 11.1%)
    H- 0 -> L+ 1: -0.1396 (  3.9%)
    H- 0 -> L+ 2: -0.1073 (  2.3%)
                   omega =  84.2%
  ----------------------------------------------------------------------------


--------------------------------------------------------------------------------
  Time of ADC calculation:  CPU 228.26 s  wall 62.50 s
================================================================================
 
 --------------------------------------------------------------
             Orbital Energies (a.u.) and Symmetries
 --------------------------------------------------------------
 
 Alpha MOs, Restricted
 -- Occupied --                  
-20.203 -11.129 -11.127  -0.934  -0.908  -0.675  -0.551  -0.460
  1 A1    2 A1    1 B1    3 A1    4 A1    2 B1    5 A1    6 A1                 
 -0.406  -0.270  -0.256  -0.112  -0.112
  3 B1    1 B2    7 A1    2 B2    4 B1                                         
 -- Virtual --                   
  0.164   0.170   0.197   0.198   0.202   0.232   0.260   0.291
  5 B1    8 A1    1 A2    3 B2    9 A1    6 B1   10 A1    2 A2                 
  0.321   0.351   0.386   0.421   0.438   0.443   0.462   0.463
  7 B1   11 A1   12 A1    8 B1   13 A1    4 B2   14 A1    9 B1                 
  0.471   0.471   0.482   0.511   0.528   0.564   0.593   0.654
 15 A1   10 B1    5 B2   11 B1   16 A1    3 A2   17 A1   12 B1                 
  0.728   0.942   0.964   1.043   1.100   1.135   1.170   1.196
 13 B1   18 A1   19 A1   14 B1   20 A1   15 B1   21 A1   22 A1                 
  1.222   1.231   1.246   1.258   1.268   1.280   1.304   1.320
  6 B2   23 A1   16 B1    7 B2    8 B2   17 B1    4 A2   24 A1                 
  1.320   1.393   1.401   1.411   1.542   1.580   1.727   1.733
  5 A2    6 A2    9 B2   18 B1   25 A1   19 B1   10 B2   26 A1                 
  1.734   1.823   1.846   1.985   2.024   2.052   2.076   2.127
 20 B1   21 B1   27 A1    7 A2   28 A1   11 B2   22 B1   12 B2                 
  2.191   2.210   2.290   2.373   2.376   2.442   2.521   2.533
 29 A1   30 A1    8 A2   13 B2   23 B1   24 B1    9 A2   31 A1                 
  2.592   2.671   2.692   2.960   2.972   3.034   3.382   3.455
 32 A1   25 B1   26 B1   33 A1   34 A1   35 A1   27 B1   28 B1                 
  3.926   3.929   3.955   3.955   4.398
 14 B2   29 B1   36 A1   10 A2   37 A1                                         
 
 Beta MOs, Restricted
 -- Occupied --                  
-20.203 -11.129 -11.127  -0.934  -0.908  -0.675  -0.551  -0.460
  1 A1    2 A1    1 B1    3 A1    4 A1    2 B1    5 A1    6 A1                 
 -0.406  -0.270  -0.256  -0.112  -0.112
  3 B1    1 B2    7 A1    2 B2    4 B1                                         
 -- Virtual --                   
  0.164   0.170   0.197   0.198   0.202   0.232   0.260   0.291
  5 B1    8 A1    1 A2    3 B2    9 A1    6 B1   10 A1    2 A2                 
  0.321   0.351   0.386   0.421   0.438   0.443   0.462   0.463
  7 B1   11 A1   12 A1    8 B1   13 A1    4 B2   14 A1    9 B1                 
  0.471   0.471   0.482   0.511   0.528   0.564   0.593   0.654
 15 A1   10 B1    5 B2   11 B1   16 A1    3 A2   17 A1   12 B1                 
  0.728   0.942   0.964   1.043   1.100   1.135   1.170   1.196
 13 B1   18 A1   19 A1   14 B1   20 A1   15 B1   21 A1   22 A1                 
  1.222   1.231   1.246   1.258   1.268   1.280   1.304   1.320
  6 B2   23 A1   16 B1    7 B2    8 B2   17 B1    4 A2   24 A1                 
  1.320   1.393   1.401   1.411   1.542   1.580   1.727   1.733
  5 A2    6 A2    9 B2   18 B1   25 A1   19 B1   10 B2   26 A1                 
  1.734   1.823   1.846   1.985   2.024   2.052   2.076   2.127
 20 B1   21 B1   27 A1    7 A2   28 A1   11 B2   22 B1   12 B2                 
  2.191   2.210   2.290   2.373   2.376   2.442   2.521   2.533
 29 A1   30 A1    8 A2   13 B2   23 B1   24 B1    9 A2   31 A1                 
  2.592   2.671   2.692   2.960   2.972   3.034   3.382   3.455
 32 A1   25 B1   26 B1   33 A1   34 A1   35 A1   27 B1   28 B1                 
  3.926   3.929   3.955   3.955   4.398
 14 B2   29 B1   36 A1   10 A2   37 A1                                         
 --------------------------------------------------------------
 
          Ground-State Mulliken Net Atomic Charges

     Atom                 Charge (a.u.)
  ----------------------------------------
      1 C                    -0.231168
      2 C                    -0.231168
      3 H                     0.158845
      4 H                     0.158845
      5 H                     0.073451
      6 H                     0.073451
      7 O                    -1.049758
      8 H                     0.047501
  ----------------------------------------
  Sum of atomic charges =    -1.000000

 -----------------------------------------------------------------
                    Cartesian Multipole Moments
 -----------------------------------------------------------------
    Charge (ESU x 10^10)
                -4.8032
    Dipole Moment (Debye)
         X      -0.0000      Y       0.0000      Z      13.3666
       Tot      13.3666
    Quadrupole Moments (Debye-Ang)
        XX     -23.1575     XY      -0.0000     YY     -26.3358
        XZ      -0.0000     YZ       0.0000     ZZ     -61.7606
    Octopole Moments (Debye-Ang^2)
       XXX      -0.0000    XXY       0.0000    XYY      -0.0000
       YYY       0.0000    XXZ       7.5887    XYZ      -0.0000
       YYZ       2.4559    XZZ      -0.0000    YZZ       0.0000
       ZZZ     112.6765
    Hexadecapole Moments (Debye-Ang^3)
      XXXX     -84.7574   XXXY       0.0000   XXYY     -21.1483
      XYYY      -0.0000   YYYY     -38.2077   XXXZ      -0.0000
      XXYZ       0.0000   XYYZ      -0.0000   YYYZ       0.0000
      XXZZ    -170.6153   XYZZ      -0.0000   YYZZ    -174.4436
      XZZZ      -0.0000   YZZZ       0.0000   ZZZZ   -1081.6517
 -----------------------------------------------------------------
 Total job time:  171.13s(wall), 275.26s(cpu) 
 Thu Mar  3 16:54:40 2022

        *************************************************************
        *                                                           *
        *  Thank you very much for using Q-Chem.  Have a nice day.  *
        *                                                           *
        *************************************************************


