/src/tsommerfeld/qchem/exe/qcprog.exe .input1.824242.5139.qcin.1 /src/jdavis/qchem.scratch/qchem5139/

                  Welcome to Q-Chem
     A Quantum Leap Into The Future Of Chemistry


 Q-Chem 5.4 (devel), Q-Chem, Inc., Pleasanton, CA (2021)

 E. Epifanovsky,  A. T. B. Gilbert,  Xintian Feng,  Joonho Lee,  Yuezhi Mao,  
 N. Mardirossian,  P. Pokhilko,  A. White,  M. Wormit,  M. P. Coons,  
 A. L. Dempwolff,  Zhengting Gan,  D. Hait,  P. R. Horn,  L. D. Jacobson,  
 I. Kaliman,  J. Kussmann,  A. W. Lange,  Ka Un Lao,  D. S. Levine,  Jie Liu,  
 S. C. McKenzie,  A. F. Morrison,  K. Nanda,  F. Plasser,  D. R. Rehn,  
 M. L. Vidal,  Zhi-Qiang You,  Ying Zhu,  B. Alam,  B. Albrecht,  
 A. Aldossary,  E. Alguire,  J. H. Andersen,  D. Barton,  K. Begam,  A. Behn,  
 Y. A. Bernard,  E. J. Berquist,  H. Burton,  A. Carreras,  K. Carter-Fenk,  
 R. Chakraborty,  A. D. Chien,  K. D. Closser,  V. Cofer-Shabica,  
 S. Dasgupta,  Jia Deng,  M. de Wergifosse,  M. Diedenhofen,  Hainam Do,  
 S. Ehlert,  Po-Tung Fang,  S. Fatehi,  Qingguo Feng,  T. Friedhoff,  
 J. Gayvert,  Qinghui Ge,  G. Gidofalvi,  M. Goldey,  J. Gomes,  
 C. Gonzalez-Espinoza,  S. Gulania,  A. Gunina,  M. W. D. Hanson-Heine,  
 P. H. P. Harbach,  A. W. Hauser,  M. F. Herbst,  M. Hernandez Vera,  
 M. Hodecker,  Z. C. Holden,  S. Houck,  Xunkun Huang,  Kerwin Hui,  
 B. C. Huynh,  M. Ivanov,  Hyunjun Ji,  Hanjie Jiang,  B. Kaduk,  S. Kaehler,  
 K. Khistyaev,  Jaehoon Kim,  P. Klunzinger,  Z. Koczor-Benda,  
 Joong Hoon Koh,  D. Kosenkov,  L. Koulias,  T. Kowalczyk,  C. M. Krauter,  
 K. Kue,  A. Kunitsa,  T. Kus,  A. Landau,  K. V. Lawler,  D. Lefrancois,  
 S. Lehtola,  Rain Li,  Yi-Pei Li,  Jiashu Liang,  M. Liebenthal,  
 Hung-Hsuan Lin,  You-Sheng Lin,  Fenglai Liu,  Kuan-Yu Liu,  
 M. Loipersberger,  A. Luenser,  A. Manjanath,  P. Manohar,  E. Mansoor,  
 S. F. Manzer,  Shan-Ping Mao,  A. V. Marenich,  T. Markovich,  S. Mason,  
 S. A. Maurer,  P. F. McLaughlin,  M. F. S. J. Menger,  J.-M. Mewes,  
 S. A. Mewes,  P. Morgante,  J. W. Mullinax,  K. J. Oosterbaan,  G. Paran,  
 Alexander C. Paul,  Suranjan K. Paul,  F. Pavosevic,  Zheng Pei,  S. Prager,  
 E. I. Proynov,  E. Ramos,  B. Rana,  A. E. Rask,  A. Rettig,  R. M. Richard,  
 F. Rob,  E. Rossomme,  T. Scheele,  M. Scheurer,  M. Schneider,  
 N. Sergueev,  S. M. Sharada,  W. Skomorowski,  D. W. Small,  C. J. Stein,  
 Yu-Chuan Su,  E. J. Sundstrom,  Zhen Tao,  J. Thirman,  T. Tsuchimochi,  
 N. M. Tubman,  S. P. Veccham,  O. Vydrov,  J. Wenzel,  J. Witte,  A. Yamada,  
 Kun Yao,  S. Yeganeh,  S. R. Yost,  A. Zech,  Igor Ying Zhang,  Xing Zhang,  
 Yu Zhang,  D. Zuev,  A. Aspuru-Guzik,  A. T. Bell,  N. A. Besley,  
 K. B. Bravaya,  B. R. Brooks,  D. Casanova,  Jeng-Da Chai,  S. Coriani,  
 C. J. Cramer,  A. E. DePrince, III,  R. A. DiStasio Jr.,  A. Dreuw,  
 B. D. Dunietz,  T. R. Furlani,  W. A. Goddard III,  S. Grimme,  
 S. Hammes-Schiffer,  T. Head-Gordon,  W. J. Hehre,  Chao-Ping Hsu,  
 T.-C. Jagau,  Yousung Jung,  A. Klamt,  Jing Kong,  D. S. Lambrecht,  
 WanZhen Liang,  N. J. Mayhall,  C. W. McCurdy,  J. B. Neaton,  
 C. Ochsenfeld,  J. A. Parkhill,  R. Peverati,  V. A. Rassolov,  Yihan Shao,  
 L. V. Slipchenko,  T. Stauch,  R. P. Steele,  J. E. Subotnik,  
 A. J. W. Thom,  A. Tkatchenko,  D. G. Truhlar,  T. Van Voorhis,  
 T. A. Wesolowski,  K. B. Whaley,  H. L. Woodcock III,  P. M. Zimmerman,  
 S. Faraji,  P. M. W. Gill,  M. Head-Gordon,  J. M. Herbert,  A. I. Krylov

 Additional authors for Version 5.4.1: 
 S. Kotaru,  Shaozhi Li,  Xiangyuan Li,  F. Matz,  A. Molle,  Haisheng Ren,  
 Yingli Su,  Hung-Yi Tsai,  C. Utku,  Fang Wang

 Contributors to earlier versions of Q-Chem not listed above: 
 R. D. Adamson,  B. Austin,  R. Baer,  J. Baker,  G. J. O. Beran,  
 K. Brandhorst,  S. T. Brown,  E. F. C. Byrd,  A. K. Chakraborty,  
 G. K. L. Chan,  Chun-Min Chang,  Yunqing Chen,  C.-L. Cheng,  
 Siu Hung Chien,  D. M. Chipman,  D. L. Crittenden,  H. Dachsel,  
 R. J. Doerksen,  A. D. Dutoi,  R. G. Edgar,  J. Fosso-Tande,  
 L. Fusti-Molnar,  D. Ghosh,  A. Ghysels,  A. Golubeva-Zadorozhnaya,  
 J. Gonthier,  M. S. Gordon,  S. R. Gwaltney,  G. Hawkins,  J. E. Herr,  
 A. Heyden,  S. Hirata,  E. G. Hohenstein,  G. Kedziora,  F. J. Keil,  
 C. Kelley,  Jihan Kim,  R. A. King,  R. Z. Khaliullin,  P. P. Korambath,  
 W. Kurlancheek,  A. Laurent,  A. M. Lee,  M. S. Lee,  S. V. Levchenko,  
 Ching Yeh Lin,  D. Liotard,  E. Livshits,  R. C. Lochan,  I. Lotan,  
 L. A. Martinez-Martinez,  P. E. Maslen,  N. Nair,  D. P. O'Neill,  
 D. Neuhauser,  E. Neuscamman,  C. M. Oana,  R. Olivares-Amaya,  R. Olson,  
 T. M. Perrine,  B. Peters,  P. A. Pieniazek,  A. Prociuk,  Y. M. Rhee,  
 J. Ritchie,  M. A. Rohrdanz,  E. Rosta,  N. J. Russ,  H. F. Schaefer III,  
 M. W. Schmidt,  N. E. Schultz,  S. Sharma,  N. Shenvi,  C. D. Sherrill,  
 A. C. Simmonett,  A. Sodt,  T. Stein,  D. Stuck,  K. S. Thanthiriwatte,  
 V. Vanovschi,  L. Vogt,  Tao Wang,  A. Warshel,  M. A. Watson,  
 C. F. Williams,  Q. Wu,  X. Xu,  Jun Yang,  W. Zhang,  Yan Zhao

 Please cite Q-Chem as follows:
 Y. Shao et al., Mol. Phys. 113, 184-215 (2015)
 DOI: 10.1080/00268976.2014.952696

 Q-Chem 5.4.1 for Intel X86 EM64T Linux

 Parts of Q-Chem use Armadillo 9.900.5 (Nocturnal Misbehaviour).
 http://arma.sourceforge.net/

 Q-Chem begins on Thu Mar  3 16:40:55 2022  

 Host: node01
0

     Scratch files written to /src/jdavis/qchem.scratch/qchem5139//
 Processing $rem in /src/tsommerfeld/qchem/config/preferences:
 Processing $rem in /home/jdavis/.qchemrc:

 Checking the input file for inconsistencies... 	...done.

--------------------------------------------------------------
User input:
--------------------------------------------------------------
$molecule
-1 1
C        -0.6645000000    0.0000000000    1.1619088658
C         0.6645000000    0.0000000000    1.1619088658
H        -1.1590800000    0.0000000000    0.1995598658
H         1.1590800000    0.0000000000    0.1995598658
H        -1.1590800000    0.0000000000    2.1242568658
H         1.1590800000    0.0000000000    2.1242568658
O         0.0000000000    0.0000000000   -3.84
H         0.0000000000    0.0000000000   -4.81
$end
$rem
   METHOD adc(2)
   BASIS gen
   PURECART 11
   EE_STATES [0,0,0,10]
   scf_convergence 8
   ADC_DAVIDSON_MAXITER 120
   ADC_DAVIDSON_MAXSUBSPACE 200
   adc_nguess_singles 100
   THRESH 14
   S2THRESH 14
   adc_davidson_conv 5
   adc_davidson_thresh 14
   THREADS 10
   MEM_TOTAL 95000
   STATE_ANALYSIS TRUE
$end
$basis
C 1
S   9   1.00
      6.665000D+03           6.920000D-04
      1.000000D+03           5.329000D-03
      2.280000D+02           2.707700D-02
      6.471000D+01           1.017180D-01
      2.106000D+01           2.747400D-01
      7.495000D+00           4.485640D-01
      2.797000D+00           2.850740D-01
      5.215000D-01           1.520400D-02
      1.596000D-01          -3.191000D-03
S   9   1.00
      6.665000D+03          -1.460000D-04
      1.000000D+03          -1.154000D-03
      2.280000D+02          -5.725000D-03
      6.471000D+01          -2.331200D-02
      2.106000D+01          -6.395500D-02
      7.495000D+00          -1.499810D-01
      2.797000D+00          -1.272620D-01
      5.215000D-01           5.445290D-01
      1.596000D-01           5.804960D-01
S   1   1.00
      1.596000D-01           1.000000D+00
S   1   1.00
      0.0469000              1.0000000
P   4   1.00
      9.439000D+00           3.810900D-02
      2.002000D+00           2.094800D-01
      5.456000D-01           5.085570D-01
      1.517000D-01           4.688420D-01
P   1   1.00
      1.517000D-01           1.000000D+00
P   1   1.00
      0.0790679      1.0000000
P   1   1.00
      0.0395339      1.0000000
D   1   1.00
      5.500000D-01           1.0000000
****
C 2
S   9   1.00
      6.665000D+03           6.920000D-04
      1.000000D+03           5.329000D-03
      2.280000D+02           2.707700D-02
      6.471000D+01           1.017180D-01
      2.106000D+01           2.747400D-01
      7.495000D+00           4.485640D-01
      2.797000D+00           2.850740D-01
      5.215000D-01           1.520400D-02
      1.596000D-01          -3.191000D-03
S   9   1.00
      6.665000D+03          -1.460000D-04
      1.000000D+03          -1.154000D-03
      2.280000D+02          -5.725000D-03
      6.471000D+01          -2.331200D-02
      2.106000D+01          -6.395500D-02
      7.495000D+00          -1.499810D-01
      2.797000D+00          -1.272620D-01
      5.215000D-01           5.445290D-01
      1.596000D-01           5.804960D-01
S   1   1.00
      1.596000D-01           1.000000D+00
S   1   1.00
      0.0469000              1.0000000
P   4   1.00
      9.439000D+00           3.810900D-02
      2.002000D+00           2.094800D-01
      5.456000D-01           5.085570D-01
      1.517000D-01           4.688420D-01
P   1   1.00
      1.517000D-01           1.000000D+00
P   1   1.00
      0.0790679      1.0000000
P   1   1.00
      0.0395339      1.0000000
D   1   1.00
      5.500000D-01           1.0000000
****
H 3
cc-pVDZ
****
H 4
cc-pVDZ
****
H 5
cc-pVDZ
****
H 6
cc-pVDZ
****
O 7
aug-cc-pVDZ
****
H 8
cc-pVDZ
****
$end
--------------------------------------------------------------
 ----------------------------------------------------------------
             Standard Nuclear Orientation (Angstroms)
    I     Atom           X                Y                Z
 ----------------------------------------------------------------
    1      C      -0.6645000000     0.0000000000     1.8394872717
    2      C       0.6645000000    -0.0000000000     1.8394872717
    3      H      -1.1590800000     0.0000000000     0.8771382717
    4      H       1.1590800000    -0.0000000000     0.8771382717
    5      H      -1.1590800000     0.0000000000     2.8018352717
    6      H       1.1590800000    -0.0000000000     2.8018352717
    7      O      -0.0000000000     0.0000000000    -3.1624215941
    8      H      -0.0000000000     0.0000000000    -4.1324215941
 ----------------------------------------------------------------
 Molecular Point Group                 C2v   NOp =  4
 Largest Abelian Subgroup              C2v   NOp =  4
 Nuclear Repulsion Energy =          52.84282358 hartrees
 There are       13 alpha and       13 beta electrons
 Requested basis set is non-standard
 There are 42 shells and 90 basis functions
 Total memory of 95000 MB is distributed as follows: 
   MEM_STATIC is set to 192 MB
   QALLOC/CCMAN JOB total memory use is  94808 MB
 Warning: actual memory use might exceed 95000 MB

 Total QAlloc Memory Limit  95000 MB
 Mega-Array Size       188 MB
 MEM_STATIC part       192 MB

                       Distance Matrix (Angstroms)
             C (  1)   C (  2)   H (  3)   H (  4)   H (  5)   H (  6)
   C (  2)  1.329000
   H (  3)  1.082000  2.061931
   H (  4)  2.061931  1.082000  2.318160
   H (  5)  1.082000  2.061931  1.924697  3.013026
   H (  6)  2.061931  1.082000  3.013026  1.924697  2.318160
   O (  7)  5.045855  5.045855  4.202560  4.202560  6.075840  6.075840
   H (  8)  6.008765  6.008765  5.141902  5.141902  7.030461  7.030461
             O (  7)
   H (  8)  0.970000
 
 A cutoff of  1.0D-14 yielded    865 shell pairs
 There are      3913 function pairs (      4255 Cartesian)
 Smallest overlap matrix eigenvalue = 2.38E-04

 Scale SEOQF with 1.000000e-01/1.000000e-01/1.000000e-01

 Standard Electronic Orientation quadrupole field applied
 Nucleus-field energy     =    -0.0000000162 hartrees
 ================ Generating on-the-fly SAD Guess ================
Attempting to make child job directory: /src/jdavis/qchem.scratch/qchem5139//Frg1/
Attempting to make child job directory: /src/jdavis/qchem.scratch/qchem5139//Frg2/
Attempting to make child job directory: /src/jdavis/qchem.scratch/qchem5139//Frg3/
Creating input file /src/jdavis/qchem.scratch/qchem5139/Frg1.input
using default PutDataFrgm: nothing
calling putenv with: QCSCRATCH=/src/jdavis/qchem.scratch/qchem5139/ 
Spawning Job For Fragment 0
Done Job For Fragment 0
calling putenv with: QCSCRATCH=/src/jdavis/qchem.scratch 
calling putenv with: QCTHREADS=1 
Creating input file /src/jdavis/qchem.scratch/qchem5139/Frg2.input
using default PutDataFrgm: nothing
calling putenv with: QCSCRATCH=/src/jdavis/qchem.scratch/qchem5139/ 
Spawning Job For Fragment 1
Done Job For Fragment 1
calling putenv with: QCSCRATCH=/src/jdavis/qchem.scratch 
calling putenv with: QCTHREADS=1 
Creating input file /src/jdavis/qchem.scratch/qchem5139/Frg3.input
using default PutDataFrgm: nothing
calling putenv with: QCSCRATCH=/src/jdavis/qchem.scratch/qchem5139/ 
Spawning Job For Fragment 2
Done Job For Fragment 2
calling putenv with: QCSCRATCH=/src/jdavis/qchem.scratch 
calling putenv with: QCTHREADS=1 
 Time for running child jobs:  CPU 1.81 s  wall 80.51 s
 ============= Method Specific SAD Guess Constructed =============
 Guess from on-the-fly superposition of atomic densities
 Warning: Energy on first SCF cycle will be non-variational
 A restricted Hartree-Fock SCF calculation will be
 performed using Pulay DIIS extrapolation
 SCF converges when DIIS error is below 1.0E-08
 using 10 threads for integral computing
 -------------------------------------------------------
 OpenMP Integral computing Module                
 Release: version 1.0, May 2013, Q-Chem Inc. Pittsburgh 
 -------------------------------------------------------
 ---------------------------------------
  Cycle       Energy         DIIS Error
 ---------------------------------------
    1    -153.5105086684      5.93E-02
    2    -153.2843799261      1.22E-02
    3    -153.3469686173      1.06E-02
    4    -153.4353917779      6.59E-04
    5    -153.4361695748      1.86E-04
    6    -153.4362208175      3.97E-05
    7    -153.4362238104      1.00E-05
    8    -153.4362241431      2.86E-06
    9    -153.4362241686      4.66E-07
   10    -153.4362241692      6.73E-08
   11    -153.4362241692      1.79E-08
   12    -153.4362241692      6.10E-09 Convergence criterion met
 ---------------------------------------
 SCF time:  CPU 13.20 s  wall 1.33 s
 SCF   energy in the final basis set = -153.43622417
 Total energy in the final basis set = -153.43622417
================================================================================
|                                                                              |
|                                 A D C  M A N                                 |
|                                                                              |
 ------------------------------------------------------------------------------ 
|                                                                              |
| Components:                                                                  |
|                                                                              |
| - libvmm - 1.3-trunk                                                         |
|   Authors:                                                                   |
|   Evgeny Epifanovsky, Ilya Kaliman                                           |
|                                                                              |
| - libtensor - 2.5-trunk                                                      |
|   Authors:                                                                   |
|   Evgeny Epifanovsky, Michael Wormit, Dmitry Zuev, Sam Manzer,               |
|   Ilya Kaliman                                                               |
|                                                                              |
| - libwfa - 1.1-trunk                                                         |
|   Authors:                                                                   |
|   Felix Plasser, Stefanie Mewes (Baeppler), Benjamin Thomitzni,              |
|   Michael Wormit, Feng Chen, Anna I. Krylov, Pavel Pokhilko                  |
|                                                                              |
| - libadc - 1.1-trunk                                                         |
|   Authors:                                                                   |
|   Michael Wormit, Adrian L. Dempwolff, Philipp H. P. Harbach,                |
|   Caroline Krauter, Dirk Rehn, Matthias Schneider, Jan Wenzel                |
|                                                                              |
| - adcman - 2.6-trunk                                                         |
|   Authors:                                                                   |
|   Michael Wormit, Adrian L. Dempwolff, Philipp H. P. Harbach,                |
|   Caroline Krauter, Daniel Lefrancois, Jan-Michael Mewes, Dirk Rehn,         |
|   Matthias Schneider, Jan Wenzel, Andreas Dreuw                              |
|                                                                              |
| Authors of earlier versions of ADCMAN:                                       |
| Andreas Dreuw, Jan Hendrik Starcke, Dirk Rehn, Michael Wormit                |
|                                                                              |
================================================================================

 
 Alpha MOs, Restricted
 -- Occupied --                  
-20.203 -11.129 -11.127  -0.934  -0.908  -0.675  -0.551  -0.460
  1 A1    2 A1    1 B1    3 A1    4 A1    2 B1    5 A1    6 A1                 
 -0.406  -0.270  -0.256  -0.112  -0.112
  3 B1    1 B2    7 A1    2 B2    4 B1                                         
 -- Virtual --                   
  0.154   0.165   0.189   0.191   0.193   0.221   0.253   0.281
  5 B1    8 A1    3 B2    1 A2    9 A1    6 B1   10 A1    2 A2                 
  0.313   0.351   0.383   0.413   0.431   0.438   0.442   0.455
  7 B1   11 A1   12 A1    8 B1   13 A1   14 A1    4 B2    5 B2                 
  0.458   0.458   0.471   0.483   0.525   0.535   0.593   0.660
 15 A1    9 B1   10 B1   11 B1   16 A1    3 A2   17 A1   12 B1                 
  0.724   0.939   0.965   1.045   1.066   1.134   1.152   1.166
 13 B1   18 A1   19 A1   14 B1   20 A1   15 B1   21 A1   22 A1                 
  1.216   1.223   1.223   1.238   1.259   1.266   1.278   1.320
  6 B2   23 A1    7 B2   16 B1    4 A2    8 B2   17 B1   24 A1                 
  1.320   1.388   1.393   1.397   1.542   1.556   1.727   1.730
  5 A2   18 B1    6 A2    9 B2   25 A1   19 B1   10 B2   26 A1                 
  1.735   1.783   1.841   1.982   2.024   2.052   2.070   2.127
 20 B1   21 B1   27 A1    7 A2   28 A1   11 B2   22 B1   12 B2                 
  2.180   2.205   2.288   2.373   2.376   2.438   2.521   2.534
 29 A1   30 A1    8 A2   13 B2   23 B1   24 B1    9 A2   31 A1                 
  2.587   2.679   2.692   2.944   2.957   3.034   3.371   3.451
 32 A1   25 B1   26 B1   33 A1   34 A1   35 A1   27 B1   28 B1                 
  3.926   3.929   3.955   3.955   4.398
 14 B2   29 B1   36 A1   10 A2   37 A1                                         
 
 Beta MOs, Restricted
 -- Occupied --                  
-20.203 -11.129 -11.127  -0.934  -0.908  -0.675  -0.551  -0.460
  1 A1    2 A1    1 B1    3 A1    4 A1    2 B1    5 A1    6 A1                 
 -0.406  -0.270  -0.256  -0.112  -0.112
  3 B1    1 B2    7 A1    2 B2    4 B1                                         
 -- Virtual --                   
  0.154   0.165   0.189   0.191   0.193   0.221   0.253   0.281
  5 B1    8 A1    3 B2    1 A2    9 A1    6 B1   10 A1    2 A2                 
  0.313   0.351   0.383   0.413   0.431   0.438   0.442   0.455
  7 B1   11 A1   12 A1    8 B1   13 A1   14 A1    4 B2    5 B2                 
  0.458   0.458   0.471   0.483   0.525   0.535   0.593   0.660
 15 A1    9 B1   10 B1   11 B1   16 A1    3 A2   17 A1   12 B1                 
  0.724   0.939   0.965   1.045   1.066   1.134   1.152   1.166
 13 B1   18 A1   19 A1   14 B1   20 A1   15 B1   21 A1   22 A1                 
  1.216   1.223   1.223   1.238   1.259   1.266   1.278   1.320
  6 B2   23 A1    7 B2   16 B1    4 A2    8 B2   17 B1   24 A1                 
  1.320   1.388   1.393   1.397   1.542   1.556   1.727   1.730
  5 A2   18 B1    6 A2    9 B2   25 A1   19 B1   10 B2   26 A1                 
  1.735   1.783   1.841   1.982   2.024   2.052   2.070   2.127
 20 B1   21 B1   27 A1    7 A2   28 A1   11 B2   22 B1   12 B2                 
  2.180   2.205   2.288   2.373   2.376   2.438   2.521   2.534
 29 A1   30 A1    8 A2   13 B2   23 B1   24 B1    9 A2   31 A1                 
  2.587   2.679   2.692   2.944   2.957   3.034   3.371   3.451
 32 A1   25 B1   26 B1   33 A1   34 A1   35 A1   27 B1   28 B1                 
  3.926   3.929   3.955   3.955   4.398
 14 B2   29 B1   36 A1   10 A2   37 A1                                         

--------------------------------------------------------------------------------
                                   HF Summary                                   
--------------------------------------------------------------------------------
  Energy:                                                 -153.4362241692 a.u.
  Dip. moment [a.u.]:                  [   0.000000,   -0.000000,    5.258604]
  Total dipole [Debye]:                                              13.366042
  <r^2> [a.u.]:                        [  55.334879,   19.574170,  599.178005]
  Total <r^2> [a.u.]:                                               674.087054
--------------------------------------------------------------------------------

--------------------------------------------------------------------------------
                                 MP(2) Summary                                  
--------------------------------------------------------------------------------
  MP energy contribution:                                   -0.5254734884 a.u.
  Total energy:                                           -153.9616976576 a.u.
  Dip. moment [a.u.]:                  [   0.000000,    0.000000,    5.294436]
  Total dipole [Debye]:                                              13.457116
  <r^2> [a.u.]:                        [  56.301945,   20.273823,  600.353991]
  Total <r^2> [a.u.]:                                               676.929760

  Density matrix analysis:
  ------------------------
  NOs
    Occupation of frontier NOs:
       0.0447   1.9370
    Number of electrons: 26.000000
    Number of unpaired electrons: n_u =  0.71424, n_u,nl =  0.08549
    NO participation ratio (PR_NO): 22.914974
  
  
  Mulliken Population Analysis
  Atom      Charge (e)              h+              e-           Del q
  --------------------------------------------------------------------
   1 C       -0.231040        0.087727       -0.102749       -0.015022
   2 C       -0.231040        0.087727       -0.102749       -0.015022
   3 H        0.158873        0.017748       -0.010242        0.007506
   4 H        0.158873        0.017748       -0.010242        0.007506
   5 H        0.073433        0.018640       -0.010987        0.007653
   6 H        0.073433        0.018640       -0.010987        0.007653
   7 O       -1.036405        0.283734       -0.270540        0.013195
   8 H        0.033872        0.016873       -0.030342       -0.013469
  --------------------------------------------------------------------
  Sum:       -1.000000        0.548837       -0.548837       -0.000000
  
  Multipole moment analysis of the density matrix
    Molecular charge:                      -1.000000
    Number of electrons:                   26.000000
      Center of electronic charge [Ang]: [ -0.000000,  -0.000000,  -0.107757]
    Total nuclear charge:                  25.000000
      Center of nuclear charge [Ang]:    [ -0.000000,   0.000000,  -0.000000]
    Dipole moment [D]:                     13.457112
      Cartesian components [D]:          [  0.000000,   0.000000,  13.457112]
    RMS size of the density [Ang]:         2.697989
      Cartesian components [Ang]:        [  0.778711,   0.467285,   2.540551]
  
  Exciton analysis of the difference density matrix
    <r_h> [Ang]:                  [  0.000000,   0.000000,  -0.908963]
    <r_e> [Ang]:                  [ -0.000000,  -0.000000,  -0.943511]
    |<r_e - r_h>| [Ang]:            0.034548
    Hole size [Ang]:                2.813982
      Cartesian components [Ang]: [  0.828435,   0.714520,   2.592615]
    Electron size [Ang]:            3.050395
      Cartesian components [Ang]: [  1.086150,   0.931405,   2.694006]
--------------------------------------------------------------------------------
  Starting Davidson for singlet states of irrep B2 ... 
--------------------------------------------------------------------------------
   It NVec Conv  Avg. Norm  Max. Norm  Conv. states           Remark
--------------------------------------------------------------------------------
       100    0  1.544e-01  6.123e-01  0.2654 n n n n n n n n Guess.
    1  110    0  1.684e-02  8.203e-02  0.0870 n n n n n n n n 
    2  120    0  1.467e-02  1.377e-01  0.0854 n n n n n n n n 
    3  130    0  1.265e-02  9.603e-02  0.0854 n n n n n n n n 
    4  140    0  1.988e-03  1.637e-02  0.0854 n n n n n n n n 
    5  150    4  2.391e-04  2.261e-03  0.0854 y y y n y n n n 
    6  160    7  3.530e-05  3.110e-04  0.0854 y y y y y y n n 
    7  170    8  4.050e-06  3.360e-05  0.0854 y y y y y y y n 
    8  180   10  4.486e-07  4.071e-06  0.0854 y y y y y y y y Converged.
--------------------------------------------------------------------------------
  Davidson Summary: 
 ------------------------------------------------------------
  State  0: excitation energy =   0.0854 a.u.   (converged)
  State  1: excitation energy =   0.0971 a.u.   (converged)
  State  2: excitation energy =   0.0975 a.u.   (converged)
  State  3: excitation energy =   0.1422 a.u.   (converged)
  State  4: excitation energy =   0.1672 a.u.   (converged)
  State  5: excitation energy =   0.1743 a.u.   (converged)
  State  6: excitation energy =   0.2315 a.u.   (converged)
  State  7: excitation energy =   0.2548 a.u.   (converged)
  State  8: excitation energy =   0.2639 a.u.   (converged)
  State  9: excitation energy =   0.3001 a.u.   (converged)
 ------------------------------------------------------------


--------------------------------------------------------------------------------
                   State-averaged natural transition orbitals
--------------------------------------------------------------------------------
--------------------------------------------------------------------------------

--------------------------------------------------------------------------------
                             Excited State Summary
--------------------------------------------------------------------------------
--------------------------------------------------------------------------------

  Excited state 1 (singlet, B2)                                    [converged]
  ----------------------------------------------------------------------------
  Term symbol:  1 (1) B2                                    R^2 =  1.45408e-09

  Total energy:                                           -153.8763254840 a.u.
  Excitation energy:                                               2.323095 eV

  Osc. strength:                                                      0.002622
  Trans. dip. moment [a.u.]:           [  -0.000000,   -0.214617,   -0.000000]
  <i|r^2|0> [a.u.]:                    [   0.000000,    0.000000,    0.000000]

  Dip. moment [a.u.]:                  [  -0.000000,   -0.000000,   -6.512389]
  Total dipole [Debye]:                                              16.552846
  <r^2> [a.u.]:                        [  77.524922,   26.086561,  607.008952]
  Total <r^2> [a.u.]:                                               710.620435

  V1^2 = 0.8576, V2^2 = 0.1424

  Important amplitudes:
      occ i      occ j       vir a       vir b          v   
    ---------------------------------------------------------
     2 (B2) A               8 (A1) A                 -0.6517
     2 (B2) A   2 (B2) B    8 (A1) A    4 (B2) B     -0.0599
    ---------------------------------------------------------

  Density matrix analysis:
  ------------------------
  NOs
    Occupation of frontier NOs:
       0.9579   0.9956
    Number of electrons: 26.000000
    Number of unpaired electrons: n_u =  2.75557, n_u,nl =  2.11994
    NO participation ratio (PR_NO):  3.910975
  
  
  Mulliken Population Analysis
  Atom      Charge (e)              h+              e-           Del q
  --------------------------------------------------------------------
   1 C       -0.743415        0.035944       -0.548320       -0.512375
   2 C       -0.743415        0.035944       -0.548320       -0.512375
   3 H        0.127904       -0.002178       -0.028791       -0.030969
   4 H        0.127904       -0.002178       -0.028791       -0.030969
   5 H        0.118427        0.031770        0.013224        0.044994
   6 H        0.118427        0.031770        0.013224        0.044994
   7 O       -0.181148        1.404331       -0.549075        0.855256
   8 H        0.175317        0.137649        0.003796        0.141445
  --------------------------------------------------------------------
  Sum:       -1.000000        1.673052       -1.673052        0.000000
  
  Multipole moment analysis of the density matrix
    Molecular charge:                      -1.000000
    Number of electrons:                   26.000000
      Center of electronic charge [Ang]: [  0.000000,   0.000000,   0.132546]
    Total nuclear charge:                  25.000000
      Center of nuclear charge [Ang]:    [ -0.000000,   0.000000,  -0.000000]
    Dipole moment [D]:                     16.552841
      Cartesian components [D]:          [ -0.000000,  -0.000000, -16.552841]
    RMS size of the density [Ang]:         2.763340
      Cartesian components [Ang]:        [  0.913766,   0.530057,   2.553452]
  
  Exciton analysis of the difference density matrix
    <r_h> [Ang]:                  [ -0.000000,  -0.000000,  -2.811188]
    <r_e> [Ang]:                  [  0.000000,   0.000000,   0.923247]
    |<r_e - r_h>| [Ang]:            3.734434
    Hole size [Ang]:                2.042664
      Cartesian components [Ang]: [  0.829020,   0.879961,   1.646472]
    Electron size [Ang]:            4.106321
      Cartesian components [Ang]: [  2.059001,   1.321833,   3.297748]

  Transition density matrix analysis:
  -----------------------------------
  
  CT numbers (Mulliken)
    omega =     0.8422
    <Phe> =    -0.0004
  
  Exciton analysis of the transition density matrix
    Trans. dipole moment [D]:             0.272750
      Cartesian components [D]:         [ -0.000000,  -0.272750,  -0.000000]
    <r_h> [Ang]:                        [ -0.000000,  -0.000000,  -3.197341]
    <r_e> [Ang]:                        [  0.000000,   0.000000,   3.102206]
    |<r_e - r_h>| [Ang]:                  6.299547
    Hole size [Ang]:                      1.088883
      Cartesian components [Ang]:       [  0.484820,   0.839676,   0.495539]
    Electron size [Ang]:                  3.616958
      Cartesian components [Ang]:       [  2.561813,   1.600768,   1.989231]
    RMS electron-hole separation [Ang]:   7.345142
      Cartesian components [Ang]:       [  2.607191,   1.807137,   6.624796]
    Covariance(r_h, r_e) [Ang^2]:         0.000617
    Correlation coefficient:              0.000157
    Center-of-mass size [Ang]:            1.888735
      Cartesian components [Ang]:       [  1.303690,   0.904058,   1.024886]

  Decomposition into state-averaged NTOs
    H- 0 -> L+ 0: -0.6036 ( 72.9%)
    H- 0 -> L+ 6:  0.1795 (  6.4%)
    H- 0 -> L+ 7: -0.1174 (  2.8%)
    H- 0 -> L+ 1:  0.0710 (  1.0%)
                   omega =  84.2%
  ----------------------------------------------------------------------------


  Excited state 2 (singlet, B2)                                    [converged]
  ----------------------------------------------------------------------------
  Term symbol:  2 (1) B2                                    R^2 =  6.19001e-09

  Total energy:                                           -153.8645640918 a.u.
  Excitation energy:                                               2.643139 eV

  Osc. strength:                                                      0.009149
  Trans. dip. moment [a.u.]:           [  -0.000000,   -0.375880,   -0.000000]
  <i|r^2|0> [a.u.]:                    [   0.000000,    0.000000,   -0.000000]

  Dip. moment [a.u.]:                  [   0.000000,    0.000000,   -2.879313]
  Total dipole [Debye]:                                               7.318485
  <r^2> [a.u.]:                        [  77.115313,   27.021255,  582.378574]
  Total <r^2> [a.u.]:                                               686.515142

  V1^2 = 0.8668, V2^2 = 0.1332

  Important amplitudes:
      occ i      occ j       vir a       vir b          v   
    ---------------------------------------------------------
     2 (B2) A               9 (A1) A                 -0.5690
     4 (B1) A               1 (A2) A                  0.2362
    ---------------------------------------------------------

  Density matrix analysis:
  ------------------------
  NOs
    Occupation of frontier NOs:
       0.8577   1.0929
    Number of electrons: 26.000000
    Number of unpaired electrons: n_u =  2.82709, n_u,nl =  2.26036
    NO participation ratio (PR_NO):  4.838624
  
  
  Mulliken Population Analysis
  Atom      Charge (e)              h+              e-           Del q
  --------------------------------------------------------------------
   1 C       -0.723806        0.021000       -0.513767       -0.492767
   2 C       -0.723806        0.021000       -0.513767       -0.492767
   3 H        0.147235        0.000512       -0.012149       -0.011638
   4 H        0.147235        0.000512       -0.012149       -0.011638
   5 H        0.074098        0.003444       -0.002778        0.000665
   6 H        0.074098        0.003444       -0.002778        0.000665
   7 O       -0.159657        1.351828       -0.475080        0.876748
   8 H        0.164602        0.129153        0.001577        0.130730
  --------------------------------------------------------------------
  Sum:       -1.000000        1.530893       -1.530893        0.000000
  
  Multipole moment analysis of the density matrix
    Molecular charge:                      -1.000000
    Number of electrons:                   26.000000
      Center of electronic charge [Ang]: [ -0.000000,  -0.000000,   0.058603]
    Total nuclear charge:                  25.000000
      Center of nuclear charge [Ang]:    [ -0.000000,   0.000000,  -0.000000]
    Dipole moment [D]:                     7.318483
      Cartesian components [D]:          [  0.000000,   0.000000,  -7.318483]
    RMS size of the density [Ang]:         2.718558
      Cartesian components [Ang]:        [  0.911349,   0.539470,   2.503792]
  
  Exciton analysis of the difference density matrix
    <r_h> [Ang]:                  [ -0.000000,  -0.000000,  -3.056374]
    <r_e> [Ang]:                  [ -0.000000,  -0.000000,  -0.230990]
    |<r_e - r_h>| [Ang]:            2.825384
    Hole size [Ang]:                1.730991
      Cartesian components [Ang]: [  0.844889,   0.900492,   1.213098]
    Electron size [Ang]:            3.746697
      Cartesian components [Ang]: [  2.126261,   1.430075,   2.733430]

  Transition density matrix analysis:
  -----------------------------------
  
  CT numbers (Mulliken)
    omega =     0.8504
    <Phe> =    -0.0017
  
  Exciton analysis of the transition density matrix
    Trans. dipole moment [D]:             0.477696
      Cartesian components [D]:         [ -0.000000,  -0.477696,  -0.000000]
    <r_h> [Ang]:                        [ -0.000000,  -0.000000,  -3.196991]
    <r_e> [Ang]:                        [ -0.000000,   0.000000,   1.084193]
    |<r_e - r_h>| [Ang]:                  4.281184
    Hole size [Ang]:                      1.087013
      Cartesian components [Ang]:       [  0.546333,   0.798870,   0.494899]
    Electron size [Ang]:                  3.779988
      Cartesian components [Ang]:       [  2.541144,   1.663440,   2.250303]
    RMS electron-hole separation [Ang]:   5.812986
      Cartesian components [Ang]:       [  2.598511,   1.843918,   4.861946]
    Covariance(r_h, r_e) [Ang^2]:         0.003818
    Correlation coefficient:              0.000929
    Center-of-mass size [Ang]:            1.967075
      Cartesian components [Ang]:       [  1.299955,   0.923365,   1.151912]

  Decomposition into state-averaged NTOs
    H- 0 -> L+ 3: -0.4432 ( 39.3%)
    H- 0 -> L+ 6: -0.3093 ( 19.1%)
    H- 0 -> L+ 2: -0.2388 ( 11.4%)
    H- 1 -> L+ 5:  0.1923 (  7.4%)
    H- 1 -> L+ 8: -0.1451 (  4.2%)
    H- 0 -> L+ 1:  0.1114 (  2.5%)
                   omega =  85.0%
  ----------------------------------------------------------------------------


  Excited state 3 (singlet, B2)                                    [converged]
  ----------------------------------------------------------------------------
  Term symbol:  3 (1) B2                                    R^2 =  3.09402e-09

  Total energy:                                           -153.8641572957 a.u.
  Excitation energy:                                               2.654208 eV

  Osc. strength:                                                      0.000386
  Trans. dip. moment [a.u.]:           [   0.000000,    0.077018,    0.000000]
  <i|r^2|0> [a.u.]:                    [  -0.000000,   -0.000000,    0.000000]

  Dip. moment [a.u.]:                  [   0.000000,    0.000000,   -4.013383]
  Total dipole [Debye]:                                              10.201004
  <r^2> [a.u.]:                        [  70.672439,   32.456436,  578.121308]
  Total <r^2> [a.u.]:                                               681.250184

  V1^2 = 0.8580, V2^2 = 0.1420

  Important amplitudes:
      occ i      occ j       vir a       vir b          v   
    ---------------------------------------------------------
     4 (B1) A               1 (A2) A                  0.5872
     2 (B2) A               9 (A1) A                  0.2289
    ---------------------------------------------------------

  Density matrix analysis:
  ------------------------
  NOs
    Occupation of frontier NOs:
       0.8605   1.0919
    Number of electrons: 26.000000
    Number of unpaired electrons: n_u =  2.82578, n_u,nl =  2.24951
    NO participation ratio (PR_NO):  4.827157
  
  
  Mulliken Population Analysis
  Atom      Charge (e)              h+              e-           Del q
  --------------------------------------------------------------------
   1 C       -0.685283        0.063095       -0.517338       -0.454243
   2 C       -0.685283        0.063095       -0.517338       -0.454243
   3 H        0.119442        0.000448       -0.039879       -0.039431
   4 H        0.119442        0.000448       -0.039879       -0.039431
   5 H        0.066030        0.003630       -0.011034       -0.007403
   6 H        0.066030        0.003630       -0.011034       -0.007403
   7 O       -0.145062        1.355566       -0.464224        0.891343
   8 H        0.144683        0.129890       -0.019078        0.110811
  --------------------------------------------------------------------
  Sum:       -1.000000        1.619803       -1.619803       -0.000000
  
  Multipole moment analysis of the density matrix
    Molecular charge:                      -1.000000
    Number of electrons:                   26.000000
      Center of electronic charge [Ang]: [ -0.000000,  -0.000000,   0.081684]
    Total nuclear charge:                  25.000000
      Center of nuclear charge [Ang]:    [ -0.000000,   0.000000,  -0.000000]
    Dipole moment [D]:                     10.201001
      Cartesian components [D]:          [  0.000000,   0.000000, -10.201001]
    RMS size of the density [Ang]:         2.707511
      Cartesian components [Ang]:        [  0.872448,   0.591241,   2.493969]
  
  Exciton analysis of the difference density matrix
    <r_h> [Ang]:                  [ -0.000000,  -0.000000,  -2.805191]
    <r_e> [Ang]:                  [ -0.000000,  -0.000000,   0.235601]
    |<r_e - r_h>| [Ang]:            3.040792
    Hole size [Ang]:                2.026141
      Cartesian components [Ang]: [  0.918075,   0.824515,   1.607035]
    Electron size [Ang]:            3.558896
      Cartesian components [Ang]: [  1.824063,   1.669111,   2.559806]

  Transition density matrix analysis:
  -----------------------------------
  
  CT numbers (Mulliken)
    omega =     0.8379
    <Phe> =    -0.0002
  
  Exciton analysis of the transition density matrix
    Trans. dipole moment [D]:             0.097881
      Cartesian components [D]:         [  0.000000,   0.097881,   0.000000]
    <r_h> [Ang]:                        [ -0.000000,   0.000000,  -3.197432]
    <r_e> [Ang]:                        [  0.000000,  -0.000000,   1.716535]
    |<r_e - r_h>| [Ang]:                  4.913967
    Hole size [Ang]:                      1.089241
      Cartesian components [Ang]:       [  0.799703,   0.548764,   0.495760]
    Electron size [Ang]:                  3.315432
      Cartesian components [Ang]:       [  2.204783,   2.005838,   1.451770]
    RMS electron-hole separation [Ang]:   6.026818
      Cartesian components [Ang]:       [  2.344648,   2.079520,   5.147888]
    Covariance(r_h, r_e) [Ang^2]:         0.001537
    Correlation coefficient:              0.000426
    Center-of-mass size [Ang]:            1.745108
      Cartesian components [Ang]:       [  1.173010,   1.039790,   0.766998]

  Decomposition into state-averaged NTOs
    H- 1 -> L+ 5:  0.4770 ( 45.5%)
    H- 1 -> L+ 8: -0.3636 ( 26.4%)
    H- 0 -> L+ 3:  0.1777 (  6.3%)
    H- 0 -> L+ 6:  0.1249 (  3.1%)
    H- 0 -> L+ 2:  0.0954 (  1.8%)
                   omega =  83.8%
  ----------------------------------------------------------------------------


  Excited state 4 (singlet, B2)                                    [converged]
  ----------------------------------------------------------------------------
  Term symbol:  4 (1) B2                                    R^2 =  1.44085e-08

  Total energy:                                           -153.8194981746 a.u.
  Excitation energy:                                               3.869445 eV

  Osc. strength:                                                      0.010163
  Trans. dip. moment [a.u.]:           [   0.000000,    0.327419,    0.000000]
  <i|r^2|0> [a.u.]:                    [   0.000000,   -0.000000,   -0.000000]

  Dip. moment [a.u.]:                  [   0.000000,   -0.000000,   -3.379633]
  Total dipole [Debye]:                                               8.590173
  <r^2> [a.u.]:                        [  69.369984,   28.652861,  580.618887]
  Total <r^2> [a.u.]:                                               678.641732

  V1^2 = 0.8671, V2^2 = 0.1329

  Important amplitudes:
      occ i      occ j       vir a       vir b          v   
    ---------------------------------------------------------
     2 (B2) A              10 (A1) A                 -0.5992
     2 (B2) A               9 (A1) A                 -0.2292
    ---------------------------------------------------------

  Density matrix analysis:
  ------------------------
  NOs
    Occupation of frontier NOs:
       0.9598   0.9937
    Number of electrons: 26.000000
    Number of unpaired electrons: n_u =  2.74843, n_u,nl =  2.11601
    NO participation ratio (PR_NO):  3.893319
  
  
  Mulliken Population Analysis
  Atom      Charge (e)              h+              e-           Del q
  --------------------------------------------------------------------
   1 C       -0.744915        0.038379       -0.552254       -0.513875
   2 C       -0.744915        0.038379       -0.552254       -0.513875
   3 H        0.156160       -0.000839       -0.001874       -0.002713
   4 H        0.156160       -0.000839       -0.001874       -0.002713
   5 H        0.107138        0.002215        0.031489        0.033705
   6 H        0.107138        0.002215        0.031489        0.033705
   7 O       -0.177437        1.391869       -0.532902        0.858967
   8 H        0.140672        0.126042       -0.019242        0.106800
  --------------------------------------------------------------------
  Sum:       -1.000000        1.597421       -1.597421        0.000000
  
  Multipole moment analysis of the density matrix
    Molecular charge:                      -1.000000
    Number of electrons:                   26.000000
      Center of electronic charge [Ang]: [ -0.000000,   0.000000,   0.068786]
    Total nuclear charge:                  25.000000
      Center of nuclear charge [Ang]:    [ -0.000000,   0.000000,  -0.000000]
    Dipole moment [D]:                     8.590171
      Cartesian components [D]:          [  0.000000,  -0.000000,  -8.590171]
    RMS size of the density [Ang]:         2.702677
      Cartesian components [Ang]:        [  0.864371,   0.555518,   2.499745]
  
  Exciton analysis of the difference density matrix
    <r_h> [Ang]:                  [ -0.000000,  -0.000000,  -2.970091]
    <r_e> [Ang]:                  [ -0.000000,   0.000000,  -0.096635]
    |<r_e - r_h>| [Ang]:            2.873456
    Hole size [Ang]:                1.814474
      Cartesian components [Ang]: [  0.813363,   0.899127,   1.349936]
    Electron size [Ang]:            3.522006
      Cartesian components [Ang]: [  1.718252,   1.509065,   2.678593]

  Transition density matrix analysis:
  -----------------------------------
  
  CT numbers (Mulliken)
    omega =     0.8512
    <Phe> =    -0.0021
  
  Exciton analysis of the transition density matrix
    Trans. dipole moment [D]:             0.416108
      Cartesian components [D]:         [  0.000000,   0.416108,   0.000000]
    <r_h> [Ang]:                        [ -0.000000,  -0.000000,  -3.196741]
    <r_e> [Ang]:                        [  0.000000,   0.000000,   1.353222]
    |<r_e - r_h>| [Ang]:                  4.549963
    Hole size [Ang]:                      1.086353
      Cartesian components [Ang]:       [  0.483549,   0.837426,   0.495037]
    Electron size [Ang]:                  3.359663
      Cartesian components [Ang]:       [  2.040695,   1.802924,   1.967832]
    RMS electron-hole separation [Ang]:   5.758641
      Cartesian components [Ang]:       [  2.097090,   1.985645,   4.982106]
    Covariance(r_h, r_e) [Ang^2]:         0.003853
    Correlation coefficient:              0.001056
    Center-of-mass size [Ang]:            1.766013
      Cartesian components [Ang]:       [  1.048657,   0.995094,   1.014351]

  Decomposition into state-averaged NTOs
    H- 0 -> L+ 6: -0.4973 ( 49.5%)
    H- 0 -> L+ 2:  0.2935 ( 17.2%)
    H- 0 -> L+ 0: -0.2057 (  8.5%)
    H- 0 -> L+ 3:  0.1847 (  6.8%)
    H- 0 -> L+ 1: -0.1221 (  3.0%)
                   omega =  85.1%
  ----------------------------------------------------------------------------


  Excited state 5 (singlet, B2)                                    [converged]
  ----------------------------------------------------------------------------
  Term symbol:  5 (1) B2                                    R^2 =  7.68457e-09

  Total energy:                                           -153.7944818705 a.u.
  Excitation energy:                                               4.550173 eV

  Osc. strength:                                                      0.000543
  Trans. dip. moment [a.u.]:           [  -0.000000,    0.069771,    0.000000]
  <i|r^2|0> [a.u.]:                    [  -0.000000,    0.000000,    0.000000]

  Dip. moment [a.u.]:                  [   0.000000,   -0.000000,   -4.232281]
  Total dipole [Debye]:                                              10.757387
  <r^2> [a.u.]:                        [  70.082711,   34.088412,  577.791463]
  Total <r^2> [a.u.]:                                               681.962586

  V1^2 = 0.8506, V2^2 = 0.1494

  Important amplitudes:
      occ i      occ j       vir a       vir b          v   
    ---------------------------------------------------------
     4 (B1) A               2 (A2) A                  0.6254
     4 (B1) A               1 (A2) A                 -0.1716
    ---------------------------------------------------------

  Density matrix analysis:
  ------------------------
  NOs
    Occupation of frontier NOs:
       0.9587   0.9940
    Number of electrons: 26.000000
    Number of unpaired electrons: n_u =  2.74503, n_u,nl =  2.11154
    NO participation ratio (PR_NO):  3.889140
  
  
  Mulliken Population Analysis
  Atom      Charge (e)              h+              e-           Del q
  --------------------------------------------------------------------
   1 C       -0.642606        0.103513       -0.515079       -0.411566
   2 C       -0.642606        0.103513       -0.515079       -0.411566
   3 H        0.097816        0.001106       -0.062163       -0.061057
   4 H        0.097816        0.001106       -0.062163       -0.061057
   5 H        0.045519        0.003415       -0.031330       -0.027915
   6 H        0.045519        0.003415       -0.031330       -0.027915
   7 O       -0.140898        1.392445       -0.496938        0.895507
   8 H        0.139440        0.127522       -0.021954        0.105568
  --------------------------------------------------------------------
  Sum:       -1.000000        1.736035       -1.736035       -0.000000
  
  Multipole moment analysis of the density matrix
    Molecular charge:                      -1.000000
    Number of electrons:                   26.000000
      Center of electronic charge [Ang]: [ -0.000000,   0.000000,   0.086139]
    Total nuclear charge:                  25.000000
      Center of nuclear charge [Ang]:    [ -0.000000,   0.000000,  -0.000000]
    Dipole moment [D]:                     10.757383
      Cartesian components [D]:          [  0.000000,  -0.000000, -10.757383]
    RMS size of the density [Ang]:         2.708789
      Cartesian components [Ang]:        [  0.868800,   0.605924,   2.493107]
  
  Exciton analysis of the difference density matrix
    <r_h> [Ang]:                  [ -0.000000,  -0.000000,  -2.601251]
    <r_e> [Ang]:                  [ -0.000000,  -0.000000,   0.302678]
    |<r_e - r_h>| [Ang]:            2.903929
    Hole size [Ang]:                2.174737
      Cartesian components [Ang]: [  0.907043,   0.763432,   1.823164]
    Electron size [Ang]:            3.495166
      Cartesian components [Ang]: [  1.745168,   1.676655,   2.521786]

  Transition density matrix analysis:
  -----------------------------------
  
  CT numbers (Mulliken)
    omega =     0.8275
    <Phe> =     0.0000
  
  Exciton analysis of the transition density matrix
    Trans. dipole moment [D]:             0.088670
      Cartesian components [D]:         [ -0.000000,   0.088670,   0.000000]
    <r_h> [Ang]:                        [ -0.000000,   0.000000,  -3.197442]
    <r_e> [Ang]:                        [  0.000000,   0.000000,   1.839158]
    |<r_e - r_h>| [Ang]:                  5.036599
    Hole size [Ang]:                      1.089271
      Cartesian components [Ang]:       [  0.840010,   0.484698,   0.495947]
    Electron size [Ang]:                  3.259294
      Cartesian components [Ang]:       [  2.163939,   2.108014,   1.223373]
    RMS electron-hole separation [Ang]:   6.096811
      Cartesian components [Ang]:       [  2.320080,   2.162952,   5.206724]
    Covariance(r_h, r_e) [Ang^2]:         0.002864
    Correlation coefficient:              0.000807
    Center-of-mass size [Ang]:            1.718665
      Cartesian components [Ang]:       [  1.161220,   1.081544,   0.660030]

  Decomposition into state-averaged NTOs
    H- 1 -> L+ 8: -0.5041 ( 50.8%)
    H- 1 -> L+ 5: -0.3994 ( 31.9%)
                   omega =  82.7%
  ----------------------------------------------------------------------------


  Excited state 6 (singlet, B2)                                    [converged]
  ----------------------------------------------------------------------------
  Term symbol:  6 (1) B2                                    R^2 =  3.25435e-08

  Total energy:                                           -153.7873557137 a.u.
  Excitation energy:                                               4.744086 eV

  Osc. strength:                                                      0.064667
  Trans. dip. moment [a.u.]:           [  -0.000000,   -0.745910,   -0.000000]
  <i|r^2|0> [a.u.]:                    [  -0.000000,    0.000000,   -0.000000]

  Dip. moment [a.u.]:                  [  -0.000000,   -0.000000,    5.629714]
  Total dipole [Debye]:                                              14.309307
  <r^2> [a.u.]:                        [  60.186962,   22.514711,  617.047546]
  Total <r^2> [a.u.]:                                               699.749219

  V1^2 = 0.9041, V2^2 = 0.0959

  Important amplitudes:
      occ i      occ j       vir a       vir b          v   
    ---------------------------------------------------------
     2 (B2) A              12 (A1) A                  0.4536
     2 (B2) A              11 (A1) A                 -0.4422
    ---------------------------------------------------------

  Density matrix analysis:
  ------------------------
  NOs
    Occupation of frontier NOs:
       0.9658   0.9987
    Number of electrons: 26.000000
    Number of unpaired electrons: n_u =  2.69794, n_u,nl =  2.09606
    NO participation ratio (PR_NO):  3.721147
  
  
  Mulliken Population Analysis
  Atom      Charge (e)              h+              e-           Del q
  --------------------------------------------------------------------
   1 C       -0.225055        0.005690        0.000294        0.005984
   2 C       -0.225055        0.005690        0.000294        0.005984
   3 H        0.115373        0.001450       -0.044949       -0.043500
   4 H        0.115373        0.001450       -0.044949       -0.043500
   5 H        0.074674        0.000251        0.000990        0.001241
   6 H        0.074674        0.000251        0.000990        0.001241
   7 O       -1.678109        1.243827       -1.885531       -0.641705
   8 H        0.748125        0.165970        0.548283        0.714253
  --------------------------------------------------------------------
  Sum:       -1.000000        1.424580       -1.424580       -0.000000
  
  Multipole moment analysis of the density matrix
    Molecular charge:                      -1.000000
    Number of electrons:                   26.000000
      Center of electronic charge [Ang]: [  0.000000,   0.000000,  -0.114581]
    Total nuclear charge:                  25.000000
      Center of nuclear charge [Ang]:    [ -0.000000,   0.000000,  -0.000000]
    Dipole moment [D]:                     14.309303
      Cartesian components [D]:          [ -0.000000,  -0.000000,  14.309303]
    RMS size of the density [Ang]:         2.742882
      Cartesian components [Ang]:        [  0.805129,   0.492434,   2.575398]
  
  Exciton analysis of the difference density matrix
    <r_h> [Ang]:                  [ -0.000000,  -0.000000,  -3.194745]
    <r_e> [Ang]:                  [  0.000000,   0.000000,  -3.319288]
    |<r_e - r_h>| [Ang]:            0.124543
    Hole size [Ang]:                1.449624
      Cartesian components [Ang]: [  0.750048,   0.889378,   0.864780]
    Electron size [Ang]:            2.403276
      Cartesian components [Ang]: [  1.151628,   1.109722,   1.793880]

  Transition density matrix analysis:
  -----------------------------------
  
  CT numbers (Mulliken)
    omega =     0.8846
    <Phe> =    -0.0145
  
  Exciton analysis of the transition density matrix
    Trans. dipole moment [D]:             0.947957
      Cartesian components [D]:         [ -0.000000,  -0.947957,  -0.000000]
    <r_h> [Ang]:                        [ -0.000000,  -0.000000,  -3.197899]
    <r_e> [Ang]:                        [  0.000000,   0.000000,  -3.500971]
    |<r_e - r_h>| [Ang]:                  0.303072
    Hole size [Ang]:                      1.075182
      Cartesian components [Ang]:       [  0.478747,   0.829032,   0.489411]
    Electron size [Ang]:                  2.651780
      Cartesian components [Ang]:       [  1.267892,   1.234946,   1.974663]
    RMS electron-hole separation [Ang]:   2.875562
      Cartesian components [Ang]:       [  1.355066,   1.484605,   2.056356]
    Covariance(r_h, r_e) [Ang^2]:         0.005475
    Correlation coefficient:              0.001920
    Center-of-mass size [Ang]:            1.431686
      Cartesian components [Ang]:       [  0.677735,   0.745104,   1.017459]

  Decomposition into state-averaged NTOs
    H- 0 -> L+ 1:  0.5549 ( 61.6%)
    H- 0 -> L+ 2:  0.3533 ( 25.0%)
    H- 0 -> L+ 3: -0.0779 (  1.2%)
                   omega =  88.5%
  ----------------------------------------------------------------------------


  Excited state 7 (singlet, B2)                                    [converged]
  ----------------------------------------------------------------------------
  Term symbol:  7 (1) B2                                    R^2 =  1.40633e-07

  Total energy:                                           -153.7301761631 a.u.
  Excitation energy:                                               6.300020 eV

  Osc. strength:                                                      0.022432
  Trans. dip. moment [a.u.]:           [  -0.000000,   -0.381230,    0.000000]
  <i|r^2|0> [a.u.]:                    [   0.000000,    0.000000,    0.000000]

  Dip. moment [a.u.]:                  [  -0.000000,   -0.000000,   -2.047799]
  Total dipole [Debye]:                                               5.204986
  <r^2> [a.u.]:                        [  60.236665,   25.247722,  581.689635]
  Total <r^2> [a.u.]:                                               667.174022

  V1^2 = 0.8751, V2^2 = 0.1249

  Important amplitudes:
      occ i      occ j       vir a       vir b          v   
    ---------------------------------------------------------
     2 (B2) A              11 (A1) A                  0.4671
     2 (B2) A              12 (A1) A                  0.3397
    ---------------------------------------------------------

  Density matrix analysis:
  ------------------------
  NOs
    Occupation of frontier NOs:
       0.9620   0.9892
    Number of electrons: 26.000000
    Number of unpaired electrons: n_u =  2.74114, n_u,nl =  2.11330
    NO participation ratio (PR_NO):  3.884031
  
  
  Mulliken Population Analysis
  Atom      Charge (e)              h+              e-           Del q
  --------------------------------------------------------------------
   1 C       -0.324338        0.049411       -0.142710       -0.093299
   2 C       -0.324338        0.049411       -0.142710       -0.093299
   3 H        0.030970        0.003497       -0.131400       -0.127902
   4 H        0.030970        0.003497       -0.131400       -0.127902
   5 H       -0.039297        0.005139       -0.117870       -0.112731
   6 H       -0.039297        0.005139       -0.117870       -0.112731
   7 O       -0.360373        1.353550       -0.677519        0.676032
   8 H        0.025703        0.113641       -0.121810       -0.008169
  --------------------------------------------------------------------
  Sum:       -1.000000        1.583287       -1.583287        0.000000
  
  Multipole moment analysis of the density matrix
    Molecular charge:                      -1.000000
    Number of electrons:                   26.000000
      Center of electronic charge [Ang]: [  0.000000,   0.000000,   0.041679]
    Total nuclear charge:                  25.000000
      Center of nuclear charge [Ang]:    [ -0.000000,   0.000000,  -0.000000]
    Dipole moment [D]:                     5.204985
      Cartesian components [D]:          [ -0.000000,  -0.000000,  -5.204985]
    RMS size of the density [Ang]:         2.680288
      Cartesian components [Ang]:        [  0.805462,   0.521465,   2.502649]
  
  Exciton analysis of the difference density matrix
    <r_h> [Ang]:                  [ -0.000000,  -0.000000,  -2.870191]
    <r_e> [Ang]:                  [  0.000000,   0.000000,  -0.416218]
    |<r_e - r_h>| [Ang]:            2.453973
    Hole size [Ang]:                1.918491
      Cartesian components [Ang]: [  0.804412,   0.892393,   1.495715]
    Electron size [Ang]:            3.165425
      Cartesian components [Ang]: [  1.158876,   1.294633,   2.645911]

  Transition density matrix analysis:
  -----------------------------------
  
  CT numbers (Mulliken)
    omega =     0.8573
    <Phe> =    -0.0076
  
  Exciton analysis of the transition density matrix
    Trans. dipole moment [D]:             0.484495
      Cartesian components [D]:         [ -0.000000,  -0.484495,   0.000000]
    <r_h> [Ang]:                        [ -0.000000,  -0.000000,  -3.196316]
    <r_e> [Ang]:                        [  0.000000,   0.000000,   0.602912]
    |<r_e - r_h>| [Ang]:                  3.799228
    Hole size [Ang]:                      1.083015
      Cartesian components [Ang]:       [  0.481899,   0.834464,   0.494333]
    Electron size [Ang]:                  3.065152
      Cartesian components [Ang]:       [  1.249355,   1.500438,   2.362828]
    RMS electron-hole separation [Ang]:   4.999446
      Cartesian components [Ang]:       [  1.338887,   1.714607,   4.501330]
    Covariance(r_h, r_e) [Ang^2]:         0.003872
    Correlation coefficient:              0.001166
    Center-of-mass size [Ang]:            1.626024
      Cartesian components [Ang]:       [  0.669629,   0.859565,   1.206938]

  Decomposition into state-averaged NTOs
    H- 0 -> L+ 2: -0.3472 ( 24.1%)
    H- 0 -> L+ 3:  0.3223 ( 20.8%)
    H- 0 -> L+ 7: -0.3130 ( 19.6%)
    H- 0 -> L+ 1:  0.2692 ( 14.5%)
    H- 0 -> L+ 6: -0.1786 (  6.4%)
                   omega =  85.7%
  ----------------------------------------------------------------------------


  Excited state 8 (singlet, B2)                                    [converged]
  ----------------------------------------------------------------------------
  Term symbol:  8 (1) B2                                    R^2 =  4.07109e-06

  Total energy:                                           -153.7069407263 a.u.
  Excitation energy:                                               6.932289 eV

  Osc. strength:                                                      0.000818
  Trans. dip. moment [a.u.]:           [   0.000000,   -0.069383,    0.000000]
  <i|r^2|0> [a.u.]:                    [  -0.000000,   -0.000000,    0.000000]

  Dip. moment [a.u.]:                  [   0.000000,    0.000000,   -4.216807]
  Total dipole [Debye]:                                              10.718057
  <r^2> [a.u.]:                        [  64.862816,   47.857114,  580.253421]
  Total <r^2> [a.u.]:                                               692.973351

  V1^2 = 0.8673, V2^2 = 0.1327

  Important amplitudes:
      occ i      occ j       vir a       vir b          v   
    ---------------------------------------------------------
     7 (A1) A               3 (B2) A                  0.6556
     7 (A1) A   2 (B2) B    3 (B2) A    4 (B2) B      0.0498
    ---------------------------------------------------------

  Density matrix analysis:
  ------------------------
  NOs
    Occupation of frontier NOs:
       0.9750   0.9977
    Number of electrons: 26.000000
    Number of unpaired electrons: n_u =  2.79252, n_u,nl =  2.13310
    NO participation ratio (PR_NO):  3.935244
  
  
  Mulliken Population Analysis
  Atom      Charge (e)              h+              e-           Del q
  --------------------------------------------------------------------
   1 C       -0.692930        0.035330       -0.497220       -0.461890
   2 C       -0.692930        0.035330       -0.497220       -0.461890
   3 H        0.119806       -0.002425       -0.036642       -0.039067
   4 H        0.119806       -0.002425       -0.036642       -0.039067
   5 H        0.074549        0.003183       -0.002068        0.001116
   6 H        0.074549        0.003183       -0.002068        0.001116
   7 O       -0.330647        1.227839       -0.522081        0.705758
   8 H        0.327797        0.311175       -0.017250        0.293925
  --------------------------------------------------------------------
  Sum:       -1.000000        1.611190       -1.611190        0.000000
  
  Multipole moment analysis of the density matrix
    Molecular charge:                      -1.000000
    Number of electrons:                   26.000000
      Center of electronic charge [Ang]: [ -0.000000,  -0.000000,   0.085825]
    Total nuclear charge:                  25.000000
      Center of nuclear charge [Ang]:    [ -0.000000,   0.000000,  -0.000000]
    Dipole moment [D]:                     10.718053
      Cartesian components [D]:          [  0.000000,   0.000000, -10.718053]
    RMS size of the density [Ang]:         2.730601
      Cartesian components [Ang]:        [  0.835819,   0.717939,   2.498430]
  
  Exciton analysis of the difference density matrix
    <r_h> [Ang]:                  [ -0.000000,  -0.000000,  -3.005534]
    <r_e> [Ang]:                  [ -0.000000,  -0.000000,   0.118326]
    |<r_e - r_h>| [Ang]:            3.123860
    Hole size [Ang]:                1.770890
      Cartesian components [Ang]: [  0.792303,   0.770417,   1.383750]
    Electron size [Ang]:            3.865708
      Cartesian components [Ang]: [  1.454525,   2.321116,   2.727724]

  Transition density matrix analysis:
  -----------------------------------
  
  CT numbers (Mulliken)
    omega =     0.8498
    <Phe> =     0.0001
  
  Exciton analysis of the transition density matrix
    Trans. dipole moment [D]:             0.088177
      Cartesian components [D]:         [  0.000000,  -0.088177,   0.000000]
    <r_h> [Ang]:                        [ -0.000000,   0.000000,  -3.244730]
    <r_e> [Ang]:                        [ -0.000000,  -0.000000,   1.827963]
    |<r_e - r_h>| [Ang]:                  5.072693
    Hole size [Ang]:                      1.009369
      Cartesian components [Ang]:       [  0.420848,   0.420714,   0.815299]
    Electron size [Ang]:                  3.748998
      Cartesian components [Ang]:       [  1.711123,   2.881850,   1.679878]
    RMS electron-hole separation [Ang]:   6.388763
      Cartesian components [Ang]:       [  1.762772,   2.913333,   5.405683]
    Covariance(r_h, r_e) [Ang^2]:        -0.005129
    Correlation coefficient:             -0.001355
    Center-of-mass size [Ang]:            1.940590
      Cartesian components [Ang]:       [  0.880730,   1.455731,   0.933302]

  Decomposition into state-averaged NTOs
    H- 3 -> L+ 4:  0.6517 ( 85.0%)
                   omega =  85.0%
  ----------------------------------------------------------------------------


  Excited state 9 (singlet, B2)                                    [converged]
  ----------------------------------------------------------------------------
  Term symbol:  9 (1) B2                                    R^2 =  5.59769e-08

  Total energy:                                           -153.6978437456 a.u.
  Excitation energy:                                               7.179830 eV

  Osc. strength:                                                      0.080881
  Trans. dip. moment [a.u.]:           [   0.000000,   -0.678090,   -0.000000]
  <i|r^2|0> [a.u.]:                    [  -0.000000,   -0.000000,    0.000000]

  Dip. moment [a.u.]:                  [  -0.000000,   -0.000000,    2.557351]
  Total dipole [Debye]:                                               6.500139
  <r^2> [a.u.]:                        [  65.249607,   25.272260,  631.559628]
  Total <r^2> [a.u.]:                                               722.081495

  V1^2 = 0.9521, V2^2 = 0.0479

  Important amplitudes:
      occ i      occ j       vir a       vir b          v   
    ---------------------------------------------------------
     1 (B2) A               8 (A1) A                  0.6335
     1 (B2) A              10 (A1) A                  0.1870
    ---------------------------------------------------------

  Density matrix analysis:
  ------------------------
  NOs
    Occupation of frontier NOs:
       0.9829   0.9929
    Number of electrons: 26.000000
    Number of unpaired electrons: n_u =  2.59366, n_u,nl =  2.06330
    NO participation ratio (PR_NO):  3.417193
  
  
  Mulliken Population Analysis
  Atom      Charge (e)              h+              e-           Del q
  --------------------------------------------------------------------
   1 C       -0.377364        0.527344       -0.673668       -0.146324
   2 C       -0.377364        0.527344       -0.673668       -0.146324
   3 H        0.220567        0.055112        0.006583        0.061695
   4 H        0.220567        0.055112        0.006583        0.061695
   5 H        0.158825        0.110237       -0.024845        0.085392
   6 H        0.158825        0.110237       -0.024845        0.085392
   7 O       -1.047169        0.008953       -0.019718       -0.010765
   8 H        0.043111        0.008043        0.001196        0.009239
  --------------------------------------------------------------------
  Sum:       -1.000000        1.402382       -1.402382       -0.000000
  
  Multipole moment analysis of the density matrix
    Molecular charge:                      -1.000000
    Number of electrons:                   26.000000
      Center of electronic charge [Ang]: [  0.000000,   0.000000,  -0.052050]
    Total nuclear charge:                  25.000000
      Center of nuclear charge [Ang]:    [ -0.000000,   0.000000,  -0.000000]
    Dipole moment [D]:                     6.500137
      Cartesian components [D]:          [ -0.000000,  -0.000000,   6.500137]
    RMS size of the density [Ang]:         2.788251
      Cartesian components [Ang]:        [  0.838308,   0.521719,   2.607565]
  
  Exciton analysis of the difference density matrix
    <r_h> [Ang]:                  [ -0.000000,  -0.000000,   1.843444]
    <r_e> [Ang]:                  [  0.000000,   0.000000,   2.876261]
    |<r_e - r_h>| [Ang]:            1.032816
    Hole size [Ang]:                1.668588
      Cartesian components [Ang]: [  1.016503,   0.871600,   0.995600]
    Electron size [Ang]:            2.631639
      Cartesian components [Ang]: [  1.679272,   1.325812,   1.532251]

  Transition density matrix analysis:
  -----------------------------------
  
  CT numbers (Mulliken)
    omega =     0.9207
    <Phe> =    -0.0088
  
  Exciton analysis of the transition density matrix
    Trans. dipole moment [D]:             0.861766
      Cartesian components [D]:         [  0.000000,  -0.861766,  -0.000000]
    <r_h> [Ang]:                        [ -0.000000,  -0.000000,   1.842929]
    <r_e> [Ang]:                        [ -0.000000,   0.000000,   3.373660]
    |<r_e - r_h>| [Ang]:                  1.530730
    Hole size [Ang]:                      1.260141
      Cartesian components [Ang]:       [  0.757428,   0.865408,   0.515099]
    Electron size [Ang]:                  2.789944
      Cartesian components [Ang]:       [  1.891970,   1.524731,   1.370924]
    RMS electron-hole separation [Ang]:   3.414866
      Cartesian components [Ang]:       [  2.031740,   1.746761,   2.117113]
    Covariance(r_h, r_e) [Ang^2]:         0.026786
    Correlation coefficient:              0.007619
    Center-of-mass size [Ang]:            1.535034
      Cartesian components [Ang]:       [  1.022073,   0.879815,   0.733227]

  Decomposition into state-averaged NTOs
    H- 2 -> L+ 0:  0.6779 ( 91.9%)
                   omega =  92.1%
  ----------------------------------------------------------------------------


  Excited state 10 (singlet, B2)                                    [converged]
  ----------------------------------------------------------------------------
  Term symbol:  10 (1) B2                                   R^2 =  1.87666e-06

  Total energy:                                           -153.6616358010 a.u.
  Excitation energy:                                               8.165098 eV

  Osc. strength:                                                      0.000808
  Trans. dip. moment [a.u.]:           [   0.000000,    0.063559,   -0.000000]
  <i|r^2|0> [a.u.]:                    [  -0.000000,   -0.000000,    0.000000]

  Dip. moment [a.u.]:                  [   0.000000,    0.000000,   -4.795983]
  Total dipole [Debye]:                                              12.190175
  <r^2> [a.u.]:                        [  62.718647,   23.044417,  601.118630]
  Total <r^2> [a.u.]:                                               686.881693

  V1^2 = 0.8594, V2^2 = 0.1406

  Important amplitudes:
      occ i      occ j       vir a       vir b          v   
    ---------------------------------------------------------
     2 (B2) A              13 (A1) A                 -0.4525
     2 (B2) A              12 (A1) A                  0.3253
    ---------------------------------------------------------

  Density matrix analysis:
  ------------------------
  NOs
    Occupation of frontier NOs:
       0.9602   0.9855
    Number of electrons: 26.000000
    Number of unpaired electrons: n_u =  2.75915, n_u,nl =  2.12002
    NO participation ratio (PR_NO):  3.953011
  
  
  Mulliken Population Analysis
  Atom      Charge (e)              h+              e-           Del q
  --------------------------------------------------------------------
   1 C       -0.275675        0.076767       -0.121402       -0.044635
   2 C       -0.275675        0.076767       -0.121402       -0.044635
   3 H        0.056878        0.001052       -0.103047       -0.101995
   4 H        0.056878        0.001052       -0.103047       -0.101995
   5 H       -0.201401        0.019359       -0.294194       -0.274834
   6 H       -0.201401        0.019359       -0.294194       -0.274834
   7 O       -0.151990        1.379441       -0.495027        0.884414
   8 H       -0.007613        0.113306       -0.154791       -0.041485
  --------------------------------------------------------------------
  Sum:       -1.000000        1.687103       -1.687103       -0.000000
  
  Multipole moment analysis of the density matrix
    Molecular charge:                      -1.000000
    Number of electrons:                   26.000000
      Center of electronic charge [Ang]: [ -0.000000,  -0.000000,   0.097612]
    Total nuclear charge:                  25.000000
      Center of nuclear charge [Ang]:    [ -0.000000,   0.000000,  -0.000000]
    Dipole moment [D]:                     12.190171
      Cartesian components [D]:          [  0.000000,   0.000000, -12.190171]
    RMS size of the density [Ang]:         2.718163
      Cartesian components [Ang]:        [  0.821888,   0.498193,   2.542581]
  
  Exciton analysis of the difference density matrix
    <r_h> [Ang]:                  [ -0.000000,  -0.000000,  -2.636861]
    <r_e> [Ang]:                  [ -0.000000,  -0.000000,   0.528102]
    |<r_e - r_h>| [Ang]:            3.164963
    Hole size [Ang]:                2.169592
      Cartesian components [Ang]: [  0.812372,   0.867930,   1.814904]
    Electron size [Ang]:            3.610140
      Cartesian components [Ang]: [  1.313394,   1.101440,   3.177253]

  Transition density matrix analysis:
  -----------------------------------
  
  CT numbers (Mulliken)
    omega =     0.8412
    <Phe> =    -0.0028
  
  Exciton analysis of the transition density matrix
    Trans. dipole moment [D]:             0.080775
      Cartesian components [D]:         [  0.000000,   0.080775,  -0.000000]
    <r_h> [Ang]:                        [ -0.000000,  -0.000000,  -3.196081]
    <r_e> [Ang]:                        [ -0.000000,  -0.000000,   2.152174]
    |<r_e - r_h>| [Ang]:                  5.348255
    Hole size [Ang]:                      1.087125
      Cartesian components [Ang]:       [  0.483022,   0.836356,   0.499038]
    Electron size [Ang]:                  3.317901
      Cartesian components [Ang]:       [  1.490377,   1.272400,   2.677357]
    RMS electron-hole separation [Ang]:   6.387421
      Cartesian components [Ang]:       [  1.566554,   1.522827,   6.002171]
    Covariance(r_h, r_e) [Ang^2]:        -0.002504
    Correlation coefficient:             -0.000694
    Center-of-mass size [Ang]:            1.745373
      Cartesian components [Ang]:       [  0.783419,   0.761247,   1.361281]

  Decomposition into state-averaged NTOs
    H- 0 -> L+ 7: -0.5468 ( 59.8%)
    H- 0 -> L+ 3: -0.2246 ( 10.1%)
    H- 0 -> L+ 2:  0.1795 (  6.4%)
    H- 0 -> L+ 1: -0.1780 (  6.3%)
    H- 0 -> L+ 0:  0.0842 (  1.4%)
                   omega =  84.1%
  ----------------------------------------------------------------------------


--------------------------------------------------------------------------------
  Time of ADC calculation:  CPU 201.14 s  wall 55.06 s
================================================================================
 
 --------------------------------------------------------------
             Orbital Energies (a.u.) and Symmetries
 --------------------------------------------------------------
 
 Alpha MOs, Restricted
 -- Occupied --                  
-20.203 -11.129 -11.127  -0.934  -0.908  -0.675  -0.551  -0.460
  1 A1    2 A1    1 B1    3 A1    4 A1    2 B1    5 A1    6 A1                 
 -0.406  -0.270  -0.256  -0.112  -0.112
  3 B1    1 B2    7 A1    2 B2    4 B1                                         
 -- Virtual --                   
  0.154   0.165   0.189   0.191   0.193   0.221   0.253   0.281
  5 B1    8 A1    3 B2    1 A2    9 A1    6 B1   10 A1    2 A2                 
  0.313   0.351   0.383   0.413   0.431   0.438   0.442   0.455
  7 B1   11 A1   12 A1    8 B1   13 A1   14 A1    4 B2    5 B2                 
  0.458   0.458   0.471   0.483   0.525   0.535   0.593   0.660
 15 A1    9 B1   10 B1   11 B1   16 A1    3 A2   17 A1   12 B1                 
  0.724   0.939   0.965   1.045   1.066   1.134   1.152   1.166
 13 B1   18 A1   19 A1   14 B1   20 A1   15 B1   21 A1   22 A1                 
  1.216   1.223   1.223   1.238   1.259   1.266   1.278   1.320
  6 B2   23 A1    7 B2   16 B1    4 A2    8 B2   17 B1   24 A1                 
  1.320   1.388   1.393   1.397   1.542   1.556   1.727   1.730
  5 A2   18 B1    6 A2    9 B2   25 A1   19 B1   10 B2   26 A1                 
  1.735   1.783   1.841   1.982   2.024   2.052   2.070   2.127
 20 B1   21 B1   27 A1    7 A2   28 A1   11 B2   22 B1   12 B2                 
  2.180   2.205   2.288   2.373   2.376   2.438   2.521   2.534
 29 A1   30 A1    8 A2   13 B2   23 B1   24 B1    9 A2   31 A1                 
  2.587   2.679   2.692   2.944   2.957   3.034   3.371   3.451
 32 A1   25 B1   26 B1   33 A1   34 A1   35 A1   27 B1   28 B1                 
  3.926   3.929   3.955   3.955   4.398
 14 B2   29 B1   36 A1   10 A2   37 A1                                         
 
 Beta MOs, Restricted
 -- Occupied --                  
-20.203 -11.129 -11.127  -0.934  -0.908  -0.675  -0.551  -0.460
  1 A1    2 A1    1 B1    3 A1    4 A1    2 B1    5 A1    6 A1                 
 -0.406  -0.270  -0.256  -0.112  -0.112
  3 B1    1 B2    7 A1    2 B2    4 B1                                         
 -- Virtual --                   
  0.154   0.165   0.189   0.191   0.193   0.221   0.253   0.281
  5 B1    8 A1    3 B2    1 A2    9 A1    6 B1   10 A1    2 A2                 
  0.313   0.351   0.383   0.413   0.431   0.438   0.442   0.455
  7 B1   11 A1   12 A1    8 B1   13 A1   14 A1    4 B2    5 B2                 
  0.458   0.458   0.471   0.483   0.525   0.535   0.593   0.660
 15 A1    9 B1   10 B1   11 B1   16 A1    3 A2   17 A1   12 B1                 
  0.724   0.939   0.965   1.045   1.066   1.134   1.152   1.166
 13 B1   18 A1   19 A1   14 B1   20 A1   15 B1   21 A1   22 A1                 
  1.216   1.223   1.223   1.238   1.259   1.266   1.278   1.320
  6 B2   23 A1    7 B2   16 B1    4 A2    8 B2   17 B1   24 A1                 
  1.320   1.388   1.393   1.397   1.542   1.556   1.727   1.730
  5 A2   18 B1    6 A2    9 B2   25 A1   19 B1   10 B2   26 A1                 
  1.735   1.783   1.841   1.982   2.024   2.052   2.070   2.127
 20 B1   21 B1   27 A1    7 A2   28 A1   11 B2   22 B1   12 B2                 
  2.180   2.205   2.288   2.373   2.376   2.438   2.521   2.534
 29 A1   30 A1    8 A2   13 B2   23 B1   24 B1    9 A2   31 A1                 
  2.587   2.679   2.692   2.944   2.957   3.034   3.371   3.451
 32 A1   25 B1   26 B1   33 A1   34 A1   35 A1   27 B1   28 B1                 
  3.926   3.929   3.955   3.955   4.398
 14 B2   29 B1   36 A1   10 A2   37 A1                                         
 --------------------------------------------------------------
 
          Ground-State Mulliken Net Atomic Charges

     Atom                 Charge (a.u.)
  ----------------------------------------
      1 C                    -0.216018
      2 C                    -0.216018
      3 H                     0.151367
      4 H                     0.151367
      5 H                     0.065780
      6 H                     0.065780
      7 O                    -1.049599
      8 H                     0.047341
  ----------------------------------------
  Sum of atomic charges =    -1.000000

 -----------------------------------------------------------------
                    Cartesian Multipole Moments
 -----------------------------------------------------------------
    Charge (ESU x 10^10)
                -4.8032
    Dipole Moment (Debye)
         X       0.0000      Y      -0.0000      Z      13.3660
       Tot      13.3660
    Quadrupole Moments (Debye-Ang)
        XX     -23.1647     XY      -0.0000     YY     -26.3279
        XZ       0.0000     YZ       0.0000     ZZ     -61.7638
    Octopole Moments (Debye-Ang^2)
       XXX       0.0000    XXY       0.0000    XYY       0.0000
       YYY      -0.0000    XXZ       7.5716    XYZ      -0.0000
       YYZ       2.4688    XZZ       0.0000    YZZ      -0.0000
       ZZZ     112.6442
    Hexadecapole Moments (Debye-Ang^3)
      XXXX     -84.8474   XXXY       0.0000   XXYY     -21.1413
      XYYY      -0.0000   YYYY     -38.1931   XXXZ       0.0000
      XXYZ       0.0000   XYYZ      -0.0000   YYYZ       0.0000
      XXZZ    -170.6825   XYZZ      -0.0000   YYZZ    -174.4061
      XZZZ       0.0000   YZZZ       0.0000   ZZZZ   -1081.7695
 -----------------------------------------------------------------
 Total job time:  163.68s(wall), 248.11s(cpu) 
 Thu Mar  3 16:43:38 2022

        *************************************************************
        *                                                           *
        *  Thank you very much for using Q-Chem.  Have a nice day.  *
        *                                                           *
        *************************************************************


