/src/tsommerfeld/qchem/exe/qcprog.exe .input1.739394.4983.qcin.1 /src/jdavis/qchem.scratch/qchem4983/

                  Welcome to Q-Chem
     A Quantum Leap Into The Future Of Chemistry


 Q-Chem 5.4 (devel), Q-Chem, Inc., Pleasanton, CA (2021)

 E. Epifanovsky,  A. T. B. Gilbert,  Xintian Feng,  Joonho Lee,  Yuezhi Mao,  
 N. Mardirossian,  P. Pokhilko,  A. White,  M. Wormit,  M. P. Coons,  
 A. L. Dempwolff,  Zhengting Gan,  D. Hait,  P. R. Horn,  L. D. Jacobson,  
 I. Kaliman,  J. Kussmann,  A. W. Lange,  Ka Un Lao,  D. S. Levine,  Jie Liu,  
 S. C. McKenzie,  A. F. Morrison,  K. Nanda,  F. Plasser,  D. R. Rehn,  
 M. L. Vidal,  Zhi-Qiang You,  Ying Zhu,  B. Alam,  B. Albrecht,  
 A. Aldossary,  E. Alguire,  J. H. Andersen,  D. Barton,  K. Begam,  A. Behn,  
 Y. A. Bernard,  E. J. Berquist,  H. Burton,  A. Carreras,  K. Carter-Fenk,  
 R. Chakraborty,  A. D. Chien,  K. D. Closser,  V. Cofer-Shabica,  
 S. Dasgupta,  Jia Deng,  M. de Wergifosse,  M. Diedenhofen,  Hainam Do,  
 S. Ehlert,  Po-Tung Fang,  S. Fatehi,  Qingguo Feng,  T. Friedhoff,  
 J. Gayvert,  Qinghui Ge,  G. Gidofalvi,  M. Goldey,  J. Gomes,  
 C. Gonzalez-Espinoza,  S. Gulania,  A. Gunina,  M. W. D. Hanson-Heine,  
 P. H. P. Harbach,  A. W. Hauser,  M. F. Herbst,  M. Hernandez Vera,  
 M. Hodecker,  Z. C. Holden,  S. Houck,  Xunkun Huang,  Kerwin Hui,  
 B. C. Huynh,  M. Ivanov,  Hyunjun Ji,  Hanjie Jiang,  B. Kaduk,  S. Kaehler,  
 K. Khistyaev,  Jaehoon Kim,  P. Klunzinger,  Z. Koczor-Benda,  
 Joong Hoon Koh,  D. Kosenkov,  L. Koulias,  T. Kowalczyk,  C. M. Krauter,  
 K. Kue,  A. Kunitsa,  T. Kus,  A. Landau,  K. V. Lawler,  D. Lefrancois,  
 S. Lehtola,  Rain Li,  Yi-Pei Li,  Jiashu Liang,  M. Liebenthal,  
 Hung-Hsuan Lin,  You-Sheng Lin,  Fenglai Liu,  Kuan-Yu Liu,  
 M. Loipersberger,  A. Luenser,  A. Manjanath,  P. Manohar,  E. Mansoor,  
 S. F. Manzer,  Shan-Ping Mao,  A. V. Marenich,  T. Markovich,  S. Mason,  
 S. A. Maurer,  P. F. McLaughlin,  M. F. S. J. Menger,  J.-M. Mewes,  
 S. A. Mewes,  P. Morgante,  J. W. Mullinax,  K. J. Oosterbaan,  G. Paran,  
 Alexander C. Paul,  Suranjan K. Paul,  F. Pavosevic,  Zheng Pei,  S. Prager,  
 E. I. Proynov,  E. Ramos,  B. Rana,  A. E. Rask,  A. Rettig,  R. M. Richard,  
 F. Rob,  E. Rossomme,  T. Scheele,  M. Scheurer,  M. Schneider,  
 N. Sergueev,  S. M. Sharada,  W. Skomorowski,  D. W. Small,  C. J. Stein,  
 Yu-Chuan Su,  E. J. Sundstrom,  Zhen Tao,  J. Thirman,  T. Tsuchimochi,  
 N. M. Tubman,  S. P. Veccham,  O. Vydrov,  J. Wenzel,  J. Witte,  A. Yamada,  
 Kun Yao,  S. Yeganeh,  S. R. Yost,  A. Zech,  Igor Ying Zhang,  Xing Zhang,  
 Yu Zhang,  D. Zuev,  A. Aspuru-Guzik,  A. T. Bell,  N. A. Besley,  
 K. B. Bravaya,  B. R. Brooks,  D. Casanova,  Jeng-Da Chai,  S. Coriani,  
 C. J. Cramer,  A. E. DePrince, III,  R. A. DiStasio Jr.,  A. Dreuw,  
 B. D. Dunietz,  T. R. Furlani,  W. A. Goddard III,  S. Grimme,  
 S. Hammes-Schiffer,  T. Head-Gordon,  W. J. Hehre,  Chao-Ping Hsu,  
 T.-C. Jagau,  Yousung Jung,  A. Klamt,  Jing Kong,  D. S. Lambrecht,  
 WanZhen Liang,  N. J. Mayhall,  C. W. McCurdy,  J. B. Neaton,  
 C. Ochsenfeld,  J. A. Parkhill,  R. Peverati,  V. A. Rassolov,  Yihan Shao,  
 L. V. Slipchenko,  T. Stauch,  R. P. Steele,  J. E. Subotnik,  
 A. J. W. Thom,  A. Tkatchenko,  D. G. Truhlar,  T. Van Voorhis,  
 T. A. Wesolowski,  K. B. Whaley,  H. L. Woodcock III,  P. M. Zimmerman,  
 S. Faraji,  P. M. W. Gill,  M. Head-Gordon,  J. M. Herbert,  A. I. Krylov

 Additional authors for Version 5.4.1: 
 S. Kotaru,  Shaozhi Li,  Xiangyuan Li,  F. Matz,  A. Molle,  Haisheng Ren,  
 Yingli Su,  Hung-Yi Tsai,  C. Utku,  Fang Wang

 Contributors to earlier versions of Q-Chem not listed above: 
 R. D. Adamson,  B. Austin,  R. Baer,  J. Baker,  G. J. O. Beran,  
 K. Brandhorst,  S. T. Brown,  E. F. C. Byrd,  A. K. Chakraborty,  
 G. K. L. Chan,  Chun-Min Chang,  Yunqing Chen,  C.-L. Cheng,  
 Siu Hung Chien,  D. M. Chipman,  D. L. Crittenden,  H. Dachsel,  
 R. J. Doerksen,  A. D. Dutoi,  R. G. Edgar,  J. Fosso-Tande,  
 L. Fusti-Molnar,  D. Ghosh,  A. Ghysels,  A. Golubeva-Zadorozhnaya,  
 J. Gonthier,  M. S. Gordon,  S. R. Gwaltney,  G. Hawkins,  J. E. Herr,  
 A. Heyden,  S. Hirata,  E. G. Hohenstein,  G. Kedziora,  F. J. Keil,  
 C. Kelley,  Jihan Kim,  R. A. King,  R. Z. Khaliullin,  P. P. Korambath,  
 W. Kurlancheek,  A. Laurent,  A. M. Lee,  M. S. Lee,  S. V. Levchenko,  
 Ching Yeh Lin,  D. Liotard,  E. Livshits,  R. C. Lochan,  I. Lotan,  
 L. A. Martinez-Martinez,  P. E. Maslen,  N. Nair,  D. P. O'Neill,  
 D. Neuhauser,  E. Neuscamman,  C. M. Oana,  R. Olivares-Amaya,  R. Olson,  
 T. M. Perrine,  B. Peters,  P. A. Pieniazek,  A. Prociuk,  Y. M. Rhee,  
 J. Ritchie,  M. A. Rohrdanz,  E. Rosta,  N. J. Russ,  H. F. Schaefer III,  
 M. W. Schmidt,  N. E. Schultz,  S. Sharma,  N. Shenvi,  C. D. Sherrill,  
 A. C. Simmonett,  A. Sodt,  T. Stein,  D. Stuck,  K. S. Thanthiriwatte,  
 V. Vanovschi,  L. Vogt,  Tao Wang,  A. Warshel,  M. A. Watson,  
 C. F. Williams,  Q. Wu,  X. Xu,  Jun Yang,  W. Zhang,  Yan Zhao

 Please cite Q-Chem as follows:
 Y. Shao et al., Mol. Phys. 113, 184-215 (2015)
 DOI: 10.1080/00268976.2014.952696

 Q-Chem 5.4.1 for Intel X86 EM64T Linux

 Parts of Q-Chem use Armadillo 9.900.5 (Nocturnal Misbehaviour).
 http://arma.sourceforge.net/

 Q-Chem begins on Thu Mar  3 16:35:29 2022  

 Host: node01
0

     Scratch files written to /src/jdavis/qchem.scratch/qchem4983//
 Processing $rem in /src/tsommerfeld/qchem/config/preferences:
 Processing $rem in /home/jdavis/.qchemrc:

 Checking the input file for inconsistencies... 	...done.

--------------------------------------------------------------
User input:
--------------------------------------------------------------
$molecule
-1 1
C        -0.6645000000    0.0000000000    1.1619088658
C         0.6645000000    0.0000000000    1.1619088658
H        -1.1590800000    0.0000000000    0.1995598658
H         1.1590800000    0.0000000000    0.1995598658
H        -1.1590800000    0.0000000000    2.1242568658
H         1.1590800000    0.0000000000    2.1242568658
O         0.0000000000    0.0000000000   -3.84
H         0.0000000000    0.0000000000   -4.81
$end
$rem
   METHOD adc(2)
   BASIS gen
   PURECART 11
   EE_STATES [0,0,0,10]
   scf_convergence 8
   ADC_DAVIDSON_MAXITER 120
   ADC_DAVIDSON_MAXSUBSPACE 200
   adc_nguess_singles 100
   THRESH 14
   S2THRESH 14
   adc_davidson_conv 5
   adc_davidson_thresh 14
   THREADS 10
   MEM_TOTAL 95000
   STATE_ANALYSIS TRUE
$end
$basis
C 1
S   9   1.00
      6.665000D+03           6.920000D-04
      1.000000D+03           5.329000D-03
      2.280000D+02           2.707700D-02
      6.471000D+01           1.017180D-01
      2.106000D+01           2.747400D-01
      7.495000D+00           4.485640D-01
      2.797000D+00           2.850740D-01
      5.215000D-01           1.520400D-02
      1.596000D-01          -3.191000D-03
S   9   1.00
      6.665000D+03          -1.460000D-04
      1.000000D+03          -1.154000D-03
      2.280000D+02          -5.725000D-03
      6.471000D+01          -2.331200D-02
      2.106000D+01          -6.395500D-02
      7.495000D+00          -1.499810D-01
      2.797000D+00          -1.272620D-01
      5.215000D-01           5.445290D-01
      1.596000D-01           5.804960D-01
S   1   1.00
      1.596000D-01           1.000000D+00
S   1   1.00
      0.0469000              1.0000000
P   4   1.00
      9.439000D+00           3.810900D-02
      2.002000D+00           2.094800D-01
      5.456000D-01           5.085570D-01
      1.517000D-01           4.688420D-01
P   1   1.00
      1.517000D-01           1.000000D+00
P   1   1.00
      0.0753903      1.0000000
P   1   1.00
      0.0376952      1.0000000
D   1   1.00
      5.500000D-01           1.0000000
****
C 2
S   9   1.00
      6.665000D+03           6.920000D-04
      1.000000D+03           5.329000D-03
      2.280000D+02           2.707700D-02
      6.471000D+01           1.017180D-01
      2.106000D+01           2.747400D-01
      7.495000D+00           4.485640D-01
      2.797000D+00           2.850740D-01
      5.215000D-01           1.520400D-02
      1.596000D-01          -3.191000D-03
S   9   1.00
      6.665000D+03          -1.460000D-04
      1.000000D+03          -1.154000D-03
      2.280000D+02          -5.725000D-03
      6.471000D+01          -2.331200D-02
      2.106000D+01          -6.395500D-02
      7.495000D+00          -1.499810D-01
      2.797000D+00          -1.272620D-01
      5.215000D-01           5.445290D-01
      1.596000D-01           5.804960D-01
S   1   1.00
      1.596000D-01           1.000000D+00
S   1   1.00
      0.0469000              1.0000000
P   4   1.00
      9.439000D+00           3.810900D-02
      2.002000D+00           2.094800D-01
      5.456000D-01           5.085570D-01
      1.517000D-01           4.688420D-01
P   1   1.00
      1.517000D-01           1.000000D+00
P   1   1.00
      0.0753903      1.0000000
P   1   1.00
      0.0376952      1.0000000
D   1   1.00
      5.500000D-01           1.0000000
****
H 3
cc-pVDZ
****
H 4
cc-pVDZ
****
H 5
cc-pVDZ
****
H 6
cc-pVDZ
****
O 7
aug-cc-pVDZ
****
H 8
cc-pVDZ
****
$end
--------------------------------------------------------------
 ----------------------------------------------------------------
             Standard Nuclear Orientation (Angstroms)
    I     Atom           X                Y                Z
 ----------------------------------------------------------------
    1      C      -0.6645000000     0.0000000000     1.8394872717
    2      C       0.6645000000    -0.0000000000     1.8394872717
    3      H      -1.1590800000     0.0000000000     0.8771382717
    4      H       1.1590800000    -0.0000000000     0.8771382717
    5      H      -1.1590800000     0.0000000000     2.8018352717
    6      H       1.1590800000    -0.0000000000     2.8018352717
    7      O      -0.0000000000     0.0000000000    -3.1624215941
    8      H      -0.0000000000     0.0000000000    -4.1324215941
 ----------------------------------------------------------------
 Molecular Point Group                 C2v   NOp =  4
 Largest Abelian Subgroup              C2v   NOp =  4
 Nuclear Repulsion Energy =          52.84282358 hartrees
 There are       13 alpha and       13 beta electrons
 Requested basis set is non-standard
 There are 42 shells and 90 basis functions
 Total memory of 95000 MB is distributed as follows: 
   MEM_STATIC is set to 192 MB
   QALLOC/CCMAN JOB total memory use is  94808 MB
 Warning: actual memory use might exceed 95000 MB

 Total QAlloc Memory Limit  95000 MB
 Mega-Array Size       188 MB
 MEM_STATIC part       192 MB

                       Distance Matrix (Angstroms)
             C (  1)   C (  2)   H (  3)   H (  4)   H (  5)   H (  6)
   C (  2)  1.329000
   H (  3)  1.082000  2.061931
   H (  4)  2.061931  1.082000  2.318160
   H (  5)  1.082000  2.061931  1.924697  3.013026
   H (  6)  2.061931  1.082000  3.013026  1.924697  2.318160
   O (  7)  5.045855  5.045855  4.202560  4.202560  6.075840  6.075840
   H (  8)  6.008765  6.008765  5.141902  5.141902  7.030461  7.030461
             O (  7)
   H (  8)  0.970000
 
 A cutoff of  1.0D-14 yielded    865 shell pairs
 There are      3913 function pairs (      4255 Cartesian)
 Smallest overlap matrix eigenvalue = 2.48E-04

 Scale SEOQF with 1.000000e-01/1.000000e-01/1.000000e-01

 Standard Electronic Orientation quadrupole field applied
 Nucleus-field energy     =    -0.0000000162 hartrees
 ================ Generating on-the-fly SAD Guess ================
Attempting to make child job directory: /src/jdavis/qchem.scratch/qchem4983//Frg1/
Attempting to make child job directory: /src/jdavis/qchem.scratch/qchem4983//Frg2/
Attempting to make child job directory: /src/jdavis/qchem.scratch/qchem4983//Frg3/
Creating input file /src/jdavis/qchem.scratch/qchem4983/Frg1.input
using default PutDataFrgm: nothing
calling putenv with: QCSCRATCH=/src/jdavis/qchem.scratch/qchem4983/ 
Spawning Job For Fragment 0
Done Job For Fragment 0
calling putenv with: QCSCRATCH=/src/jdavis/qchem.scratch 
calling putenv with: QCTHREADS=1 
Creating input file /src/jdavis/qchem.scratch/qchem4983/Frg2.input
using default PutDataFrgm: nothing
calling putenv with: QCSCRATCH=/src/jdavis/qchem.scratch/qchem4983/ 
Spawning Job For Fragment 1
Done Job For Fragment 1
calling putenv with: QCSCRATCH=/src/jdavis/qchem.scratch 
calling putenv with: QCTHREADS=1 
Creating input file /src/jdavis/qchem.scratch/qchem4983/Frg3.input
using default PutDataFrgm: nothing
calling putenv with: QCSCRATCH=/src/jdavis/qchem.scratch/qchem4983/ 
Spawning Job For Fragment 2
Done Job For Fragment 2
calling putenv with: QCSCRATCH=/src/jdavis/qchem.scratch 
calling putenv with: QCTHREADS=1 
 Time for running child jobs:  CPU 1.77 s  wall 80.69 s
 ============= Method Specific SAD Guess Constructed =============
 Guess from on-the-fly superposition of atomic densities
 Warning: Energy on first SCF cycle will be non-variational
 A restricted Hartree-Fock SCF calculation will be
 performed using Pulay DIIS extrapolation
 SCF converges when DIIS error is below 1.0E-08
 using 10 threads for integral computing
 -------------------------------------------------------
 OpenMP Integral computing Module                
 Release: version 1.0, May 2013, Q-Chem Inc. Pittsburgh 
 -------------------------------------------------------
 ---------------------------------------
  Cycle       Energy         DIIS Error
 ---------------------------------------
    1    -153.5102606673      5.93E-02
    2    -153.2843379423      1.22E-02
    3    -153.3468906577      1.06E-02
    4    -153.4353492344      6.59E-04
    5    -153.4361275703      1.86E-04
    6    -153.4361788240      3.97E-05
    7    -153.4361818180      1.00E-05
    8    -153.4361821508      2.86E-06
    9    -153.4361821763      4.66E-07
   10    -153.4361821770      6.66E-08
   11    -153.4361821770      1.73E-08
   12    -153.4361821770      5.81E-09 Convergence criterion met
 ---------------------------------------
 SCF time:  CPU 13.18 s  wall 1.32 s
 SCF   energy in the final basis set = -153.43618218
 Total energy in the final basis set = -153.43618218
================================================================================
|                                                                              |
|                                 A D C  M A N                                 |
|                                                                              |
 ------------------------------------------------------------------------------ 
|                                                                              |
| Components:                                                                  |
|                                                                              |
| - libvmm - 1.3-trunk                                                         |
|   Authors:                                                                   |
|   Evgeny Epifanovsky, Ilya Kaliman                                           |
|                                                                              |
| - libtensor - 2.5-trunk                                                      |
|   Authors:                                                                   |
|   Evgeny Epifanovsky, Michael Wormit, Dmitry Zuev, Sam Manzer,               |
|   Ilya Kaliman                                                               |
|                                                                              |
| - libwfa - 1.1-trunk                                                         |
|   Authors:                                                                   |
|   Felix Plasser, Stefanie Mewes (Baeppler), Benjamin Thomitzni,              |
|   Michael Wormit, Feng Chen, Anna I. Krylov, Pavel Pokhilko                  |
|                                                                              |
| - libadc - 1.1-trunk                                                         |
|   Authors:                                                                   |
|   Michael Wormit, Adrian L. Dempwolff, Philipp H. P. Harbach,                |
|   Caroline Krauter, Dirk Rehn, Matthias Schneider, Jan Wenzel                |
|                                                                              |
| - adcman - 2.6-trunk                                                         |
|   Authors:                                                                   |
|   Michael Wormit, Adrian L. Dempwolff, Philipp H. P. Harbach,                |
|   Caroline Krauter, Daniel Lefrancois, Jan-Michael Mewes, Dirk Rehn,         |
|   Matthias Schneider, Jan Wenzel, Andreas Dreuw                              |
|                                                                              |
| Authors of earlier versions of ADCMAN:                                       |
| Andreas Dreuw, Jan Hendrik Starcke, Dirk Rehn, Michael Wormit                |
|                                                                              |
================================================================================

 
 Alpha MOs, Restricted
 -- Occupied --                  
-20.203 -11.129 -11.127  -0.934  -0.908  -0.675  -0.551  -0.460
  1 A1    2 A1    1 B1    3 A1    4 A1    2 B1    5 A1    6 A1                 
 -0.406  -0.270  -0.256  -0.112  -0.112
  3 B1    1 B2    7 A1    2 B2    4 B1                                         
 -- Virtual --                   
  0.150   0.162   0.184   0.187   0.188   0.215   0.250   0.277
  5 B1    8 A1    3 B2    1 A2    9 A1    6 B1   10 A1    2 A2                 
  0.307   0.351   0.381   0.409   0.423   0.427   0.437   0.446
  7 B1   11 A1   12 A1    8 B1   13 A1   14 A1    4 B2    5 B2                 
  0.446   0.454   0.468   0.479   0.519   0.524   0.593   0.662
  9 B1   15 A1   10 B1   11 B1    3 A2   16 A1   17 A1   12 B1                 
  0.721   0.937   0.965   1.044   1.048   1.130   1.139   1.163
 13 B1   18 A1   19 A1   14 B1   20 A1   21 A1   15 B1   22 A1                 
  1.195   1.221   1.222   1.231   1.237   1.265   1.276   1.320
  6 B2   23 A1    7 B2   16 B1    4 A2    8 B2   17 B1   24 A1                 
  1.320   1.381   1.393   1.396   1.541   1.542   1.727   1.729
  5 A2   18 B1    6 A2    9 B2   19 B1   25 A1   10 B2   26 A1                 
  1.735   1.766   1.838   1.980   2.024   2.051   2.067   2.127
 20 B1   21 B1   27 A1    7 A2   28 A1   11 B2   22 B1   12 B2                 
  2.173   2.202   2.287   2.373   2.376   2.436   2.521   2.534
 29 A1   30 A1    8 A2   13 B2   23 B1   24 B1    9 A2   31 A1                 
  2.584   2.681   2.693   2.936   2.951   3.034   3.366   3.449
 32 A1   25 B1   26 B1   33 A1   34 A1   35 A1   27 B1   28 B1                 
  3.926   3.929   3.955   3.955   4.398
 14 B2   29 B1   36 A1   10 A2   37 A1                                         
 
 Beta MOs, Restricted
 -- Occupied --                  
-20.203 -11.129 -11.127  -0.934  -0.908  -0.675  -0.551  -0.460
  1 A1    2 A1    1 B1    3 A1    4 A1    2 B1    5 A1    6 A1                 
 -0.406  -0.270  -0.256  -0.112  -0.112
  3 B1    1 B2    7 A1    2 B2    4 B1                                         
 -- Virtual --                   
  0.150   0.162   0.184   0.187   0.188   0.215   0.250   0.277
  5 B1    8 A1    3 B2    1 A2    9 A1    6 B1   10 A1    2 A2                 
  0.307   0.351   0.381   0.409   0.423   0.427   0.437   0.446
  7 B1   11 A1   12 A1    8 B1   13 A1   14 A1    4 B2    5 B2                 
  0.446   0.454   0.468   0.479   0.519   0.524   0.593   0.662
  9 B1   15 A1   10 B1   11 B1    3 A2   16 A1   17 A1   12 B1                 
  0.721   0.937   0.965   1.044   1.048   1.130   1.139   1.163
 13 B1   18 A1   19 A1   14 B1   20 A1   21 A1   15 B1   22 A1                 
  1.195   1.221   1.222   1.231   1.237   1.265   1.276   1.320
  6 B2   23 A1    7 B2   16 B1    4 A2    8 B2   17 B1   24 A1                 
  1.320   1.381   1.393   1.396   1.541   1.542   1.727   1.729
  5 A2   18 B1    6 A2    9 B2   19 B1   25 A1   10 B2   26 A1                 
  1.735   1.766   1.838   1.980   2.024   2.051   2.067   2.127
 20 B1   21 B1   27 A1    7 A2   28 A1   11 B2   22 B1   12 B2                 
  2.173   2.202   2.287   2.373   2.376   2.436   2.521   2.534
 29 A1   30 A1    8 A2   13 B2   23 B1   24 B1    9 A2   31 A1                 
  2.584   2.681   2.693   2.936   2.951   3.034   3.366   3.449
 32 A1   25 B1   26 B1   33 A1   34 A1   35 A1   27 B1   28 B1                 
  3.926   3.929   3.955   3.955   4.398
 14 B2   29 B1   36 A1   10 A2   37 A1                                         

--------------------------------------------------------------------------------
                                   HF Summary                                   
--------------------------------------------------------------------------------
  Energy:                                                 -153.4361821770 a.u.
  Dip. moment [a.u.]:                  [  -0.000000,   -0.000000,    5.258527]
  Total dipole [Debye]:                                              13.365845
  <r^2> [a.u.]:                        [  55.337322,   19.570846,  599.178627]
  Total <r^2> [a.u.]:                                               674.086795
--------------------------------------------------------------------------------

--------------------------------------------------------------------------------
                                 MP(2) Summary                                  
--------------------------------------------------------------------------------
  MP energy contribution:                                   -0.5253056482 a.u.
  Total energy:                                           -153.9614878252 a.u.
  Dip. moment [a.u.]:                  [   0.000000,   -0.000000,    5.294193]
  Total dipole [Debye]:                                              13.456500
  <r^2> [a.u.]:                        [  56.305856,   20.271127,  600.353225]
  Total <r^2> [a.u.]:                                               676.930208

  Density matrix analysis:
  ------------------------
  NOs
    Occupation of frontier NOs:
       0.0447   1.9370
    Number of electrons: 26.000000
    Number of unpaired electrons: n_u =  0.71414, n_u,nl =  0.08548
    NO participation ratio (PR_NO): 22.913132
  
  
  Mulliken Population Analysis
  Atom      Charge (e)              h+              e-           Del q
  --------------------------------------------------------------------
   1 C       -0.222907        0.087856       -0.102785       -0.014928
   2 C       -0.222907        0.087856       -0.102785       -0.014928
   3 H        0.154723        0.017715       -0.010289        0.007426
   4 H        0.154723        0.017715       -0.010289        0.007426
   5 H        0.069394        0.018562       -0.010972        0.007590
   6 H        0.069394        0.018562       -0.010972        0.007590
   7 O       -1.036252        0.283740       -0.270462        0.013278
   8 H        0.033832        0.016887       -0.030340       -0.013453
  --------------------------------------------------------------------
  Sum:       -1.000000        0.548893       -0.548893        0.000000
  
  Multipole moment analysis of the density matrix
    Molecular charge:                      -1.000000
    Number of electrons:                   26.000000
      Center of electronic charge [Ang]: [ -0.000000,   0.000000,  -0.107753]
    Total nuclear charge:                  25.000000
      Center of nuclear charge [Ang]:    [ -0.000000,   0.000000,  -0.000000]
    Dipole moment [D]:                     13.456496
      Cartesian components [D]:          [  0.000000,  -0.000000,  13.456496]
    RMS size of the density [Ang]:         2.697990
      Cartesian components [Ang]:        [  0.778738,   0.467254,   2.540549]
  
  Exciton analysis of the difference density matrix
    <r_h> [Ang]:                  [  0.000000,   0.000000,  -0.909301]
    <r_e> [Ang]:                  [ -0.000000,   0.000000,  -0.943686]
    |<r_e - r_h>| [Ang]:            0.034385
    Hole size [Ang]:                2.814436
      Cartesian components [Ang]: [  0.829944,   0.715121,   2.592459]
    Electron size [Ang]:            3.050894
      Cartesian components [Ang]: [  1.087623,   0.932019,   2.693765]
--------------------------------------------------------------------------------
  Starting Davidson for singlet states of irrep B2 ... 
--------------------------------------------------------------------------------
   It NVec Conv  Avg. Norm  Max. Norm  Conv. states           Remark
--------------------------------------------------------------------------------
       100    0  1.541e-01  6.108e-01  0.2619 n n n n n n n n Guess.
    1  110    0  1.679e-02  8.312e-02  0.0846 n n n n n n n n 
    2  120    0  2.467e-02  2.414e-01  0.0830 n n n n n n n n 
    3  130    0  1.089e-02  8.279e-02  0.0830 n n n n n n n n 
    4  140    0  1.742e-03  1.248e-02  0.0830 n n n n n n n n 
    5  150    4  2.126e-04  1.593e-03  0.0830 y y y n y n n n 
    6  160    7  2.878e-05  2.350e-04  0.0830 y y y y y y n n 
    7  170    8  3.045e-06  2.645e-05  0.0830 y y y y y y y n 
    8  180   10  3.538e-07  3.362e-06  0.0830 y y y y y y y y Converged.
--------------------------------------------------------------------------------
  Davidson Summary: 
 ------------------------------------------------------------
  State  0: excitation energy =   0.0830 a.u.   (converged)
  State  1: excitation energy =   0.0943 a.u.   (converged)
  State  2: excitation energy =   0.0958 a.u.   (converged)
  State  3: excitation energy =   0.1389 a.u.   (converged)
  State  4: excitation energy =   0.1623 a.u.   (converged)
  State  5: excitation energy =   0.1743 a.u.   (converged)
  State  6: excitation energy =   0.2311 a.u.   (converged)
  State  7: excitation energy =   0.2507 a.u.   (converged)
  State  8: excitation energy =   0.2633 a.u.   (converged)
  State  9: excitation energy =   0.2921 a.u.   (converged)
 ------------------------------------------------------------


--------------------------------------------------------------------------------
                   State-averaged natural transition orbitals
--------------------------------------------------------------------------------
--------------------------------------------------------------------------------

--------------------------------------------------------------------------------
                             Excited State Summary
--------------------------------------------------------------------------------
--------------------------------------------------------------------------------

  Excited state 1 (singlet, B2)                                    [converged]
  ----------------------------------------------------------------------------
  Term symbol:  1 (1) B2                                    R^2 =  1.40980e-09

  Total energy:                                           -153.8784822253 a.u.
  Excitation energy:                                               2.258697 eV

  Osc. strength:                                                      0.003604
  Trans. dip. moment [a.u.]:           [   0.000000,   -0.255194,   -0.000000]
  <i|r^2|0> [a.u.]:                    [   0.000000,    0.000000,   -0.000000]

  Dip. moment [a.u.]:                  [  -0.000000,    0.000000,   -6.578046]
  Total dipole [Debye]:                                              16.719728
  <r^2> [a.u.]:                        [  76.731154,   26.493101,  610.013855]
  Total <r^2> [a.u.]:                                               713.238110

  V1^2 = 0.8581, V2^2 = 0.1419

  Important amplitudes:
      occ i      occ j       vir a       vir b          v   
    ---------------------------------------------------------
     2 (B2) A               8 (A1) A                 -0.6497
     2 (B2) A   2 (B2) B    8 (A1) A    5 (B2) B     -0.0545
    ---------------------------------------------------------

  Density matrix analysis:
  ------------------------
  NOs
    Occupation of frontier NOs:
       0.9579   0.9959
    Number of electrons: 26.000000
    Number of unpaired electrons: n_u =  2.75469, n_u,nl =  2.11969
    NO participation ratio (PR_NO):  3.907287
  
  
  Mulliken Population Analysis
  Atom      Charge (e)              h+              e-           Del q
  --------------------------------------------------------------------
   1 C       -0.729734        0.034581       -0.541407       -0.506827
   2 C       -0.729734        0.034581       -0.541407       -0.506827
   3 H        0.120455       -0.002049       -0.032219       -0.034268
   4 H        0.120455       -0.002049       -0.032219       -0.034268
   5 H        0.108119        0.032495        0.006230        0.038725
   6 H        0.108119        0.032495        0.006230        0.038725
   7 O       -0.176574        1.404050       -0.544373        0.859678
   8 H        0.178892        0.137867        0.007193        0.145060
  --------------------------------------------------------------------
  Sum:       -1.000000        1.671971       -1.671971        0.000000
  
  Multipole moment analysis of the density matrix
    Molecular charge:                      -1.000000
    Number of electrons:                   26.000000
      Center of electronic charge [Ang]: [  0.000000,  -0.000000,   0.133883]
    Total nuclear charge:                  25.000000
      Center of nuclear charge [Ang]:    [ -0.000000,   0.000000,  -0.000000]
    Dipole moment [D]:                     16.719723
      Cartesian components [D]:          [ -0.000000,   0.000000, -16.719723]
    RMS size of the density [Ang]:         2.768372
      Cartesian components [Ang]:        [  0.909076,   0.534172,   2.559712]
  
  Exciton analysis of the difference density matrix
    <r_h> [Ang]:                  [ -0.000000,   0.000000,  -2.811990]
    <r_e> [Ang]:                  [  0.000000,  -0.000000,   0.945563]
    |<r_e - r_h>| [Ang]:            3.757553
    Hole size [Ang]:                2.044350
      Cartesian components [Ang]: [  0.829129,   0.879943,   1.648519]
    Electron size [Ang]:            4.156147
      Cartesian components [Ang]: [  2.026911,   1.347732,   3.368800]

  Transition density matrix analysis:
  -----------------------------------
  
  CT numbers (Mulliken)
    omega =     0.8428
    <Phe> =    -0.0005
  
  Exciton analysis of the transition density matrix
    Trans. dipole moment [D]:             0.324320
      Cartesian components [D]:         [  0.000000,  -0.324320,  -0.000000]
    <r_h> [Ang]:                        [ -0.000000,   0.000000,  -3.197320]
    <r_e> [Ang]:                        [  0.000000,  -0.000000,   3.134784]
    |<r_e - r_h>| [Ang]:                  6.332104
    Hole size [Ang]:                      1.088896
      Cartesian components [Ang]:       [  0.484826,   0.839683,   0.495550]
    Electron size [Ang]:                  3.689950
      Cartesian components [Ang]:       [  2.516864,   1.637015,   2.145067]
    RMS electron-hole separation [Ang]:   7.409171
      Cartesian components [Ang]:       [  2.563043,   1.839338,   6.703988]
    Covariance(r_h, r_e) [Ang^2]:         0.000580
    Correlation coefficient:              0.000144
    Center-of-mass size [Ang]:            1.923707
      Cartesian components [Ang]:       [  1.281614,   0.920137,   1.100664]

  Decomposition into state-averaged NTOs
    H- 0 -> L+ 0: -0.5999 ( 72.0%)
    H- 0 -> L+ 6: -0.1650 (  5.4%)
    H- 0 -> L+ 7: -0.1243 (  3.1%)
    H- 0 -> L+ 3: -0.0893 (  1.6%)
    H- 0 -> L+ 1: -0.0787 (  1.2%)
                   omega =  84.3%
  ----------------------------------------------------------------------------


  Excited state 2 (singlet, B2)                                    [converged]
  ----------------------------------------------------------------------------
  Term symbol:  2 (1) B2                                    R^2 =  5.95544e-09

  Total energy:                                           -153.8671390455 a.u.
  Excitation energy:                                               2.567361 eV

  Osc. strength:                                                      0.007721
  Trans. dip. moment [a.u.]:           [  -0.000000,    0.350355,    0.000000]
  <i|r^2|0> [a.u.]:                    [   0.000000,    0.000000,    0.000000]

  Dip. moment [a.u.]:                  [  -0.000000,   -0.000000,   -2.767860]
  Total dipole [Debye]:                                               7.035201
  <r^2> [a.u.]:                        [  81.989256,   26.078813,  581.635347]
  Total <r^2> [a.u.]:                                               689.703416

  V1^2 = 0.8673, V2^2 = 0.1327

  Important amplitudes:
      occ i      occ j       vir a       vir b          v   
    ---------------------------------------------------------
     2 (B2) A               9 (A1) A                 -0.6122
     2 (B2) A              10 (A1) A                 -0.2089
    ---------------------------------------------------------

  Density matrix analysis:
  ------------------------
  NOs
    Occupation of frontier NOs:
       0.9687   0.9861
    Number of electrons: 26.000000
    Number of unpaired electrons: n_u =  2.76519, n_u,nl =  2.12403
    NO participation ratio (PR_NO):  3.932363
  
  
  Mulliken Population Analysis
  Atom      Charge (e)              h+              e-           Del q
  --------------------------------------------------------------------
   1 C       -0.727476        0.014161       -0.518730       -0.504569
   2 C       -0.727476        0.014161       -0.518730       -0.504569
   3 H        0.149477        0.000610       -0.005856       -0.005247
   4 H        0.149477        0.000610       -0.005856       -0.005247
   5 H        0.075884        0.005720        0.000770        0.006490
   6 H        0.075884        0.005720        0.000770        0.006490
   7 O       -0.155788        1.394495       -0.514031        0.880465
   8 H        0.160017        0.129676       -0.003491        0.126185
  --------------------------------------------------------------------
  Sum:       -1.000000        1.565154       -1.565154        0.000000
  
  Multipole moment analysis of the density matrix
    Molecular charge:                      -1.000000
    Number of electrons:                   26.000000
      Center of electronic charge [Ang]: [  0.000000,   0.000000,   0.056334]
    Total nuclear charge:                  25.000000
      Center of nuclear charge [Ang]:    [ -0.000000,   0.000000,  -0.000000]
    Dipole moment [D]:                     7.035199
      Cartesian components [D]:          [ -0.000000,  -0.000000,  -7.035199]
    RMS size of the density [Ang]:         2.724914
      Cartesian components [Ang]:        [  0.939708,   0.529979,   2.502245]
  
  Exciton analysis of the difference density matrix
    <r_h> [Ang]:                  [ -0.000000,   0.000000,  -3.088422]
    <r_e> [Ang]:                  [  0.000000,   0.000000,  -0.362649]
    |<r_e - r_h>| [Ang]:            2.725773
    Hole size [Ang]:                1.664122
      Cartesian components [Ang]: [  0.814929,   0.897240,   1.140243]
    Electron size [Ang]:            3.802821
      Cartesian components [Ang]: [  2.293303,   1.357983,   2.712580]

  Transition density matrix analysis:
  -----------------------------------
  
  CT numbers (Mulliken)
    omega =     0.8518
    <Phe> =    -0.0015
  
  Exciton analysis of the transition density matrix
    Trans. dipole moment [D]:             0.445257
      Cartesian components [D]:         [ -0.000000,   0.445257,   0.000000]
    <r_h> [Ang]:                        [ -0.000000,   0.000000,  -3.196965]
    <r_e> [Ang]:                        [  0.000000,   0.000000,   1.024427]
    |<r_e - r_h>| [Ang]:                  4.221392
    Hole size [Ang]:                      1.086893
      Cartesian components [Ang]:       [  0.488536,   0.835421,   0.494714]
    Electron size [Ang]:                  3.916034
      Cartesian components [Ang]:       [  2.790344,   1.599340,   2.234147]
    RMS electron-hole separation [Ang]:   5.859307
      Cartesian components [Ang]:       [  2.832476,   1.803088,   4.801816]
    Covariance(r_h, r_e) [Ang^2]:         0.002661
    Correlation coefficient:              0.000625
    Center-of-mass size [Ang]:            2.032362
      Cartesian components [Ang]:       [  1.416550,   0.902843,   1.144009]

  Decomposition into state-averaged NTOs
    H- 0 -> L+ 3:  0.4810 ( 46.3%)
    H- 0 -> L+ 6: -0.3499 ( 24.5%)
    H- 0 -> L+ 2:  0.2241 ( 10.0%)
    H- 0 -> L+ 1:  0.1079 (  2.3%)
    H- 0 -> L+ 7: -0.0783 (  1.2%)
                   omega =  85.2%
  ----------------------------------------------------------------------------


  Excited state 3 (singlet, B2)                                    [converged]
  ----------------------------------------------------------------------------
  Term symbol:  3 (1) B2                                    R^2 =  1.81676e-09

  Total energy:                                           -153.8656773500 a.u.
  Excitation energy:                                               2.607136 eV

  Osc. strength:                                                      0.000099
  Trans. dip. moment [a.u.]:           [   0.000000,    0.039458,   -0.000000]
  <i|r^2|0> [a.u.]:                    [   0.000000,   -0.000000,    0.000000]

  Dip. moment [a.u.]:                  [  -0.000000,   -0.000000,   -4.216248]
  Total dipole [Debye]:                                              10.716635
  <r^2> [a.u.]:                        [  70.774607,   34.690716,  577.698055]
  Total <r^2> [a.u.]:                                               683.163378

  V1^2 = 0.8570, V2^2 = 0.1430

  Important amplitudes:
      occ i      occ j       vir a       vir b          v   
    ---------------------------------------------------------
     4 (B1) A               1 (A2) A                 -0.6301
     4 (B1) A               2 (A2) A                  0.1627
    ---------------------------------------------------------

  Density matrix analysis:
  ------------------------
  NOs
    Occupation of frontier NOs:
       0.9677   0.9871
    Number of electrons: 26.000000
    Number of unpaired electrons: n_u =  2.76099, n_u,nl =  2.11949
    NO participation ratio (PR_NO):  3.922817
  
  
  Mulliken Population Analysis
  Atom      Charge (e)              h+              e-           Del q
  --------------------------------------------------------------------
   1 C       -0.673592        0.066513       -0.517197       -0.450685
   2 C       -0.673592        0.066513       -0.517197       -0.450685
   3 H        0.111892        0.001121       -0.043952       -0.042831
   4 H        0.111892        0.001121       -0.043952       -0.042831
   5 H        0.062359        0.003765       -0.010800       -0.007035
   6 H        0.062359        0.003765       -0.010800       -0.007035
   7 O       -0.142743        1.398526       -0.505018        0.893509
   8 H        0.141425        0.130015       -0.022422        0.107593
  --------------------------------------------------------------------
  Sum:       -1.000000        1.671339       -1.671339        0.000000
  
  Multipole moment analysis of the density matrix
    Molecular charge:                      -1.000000
    Number of electrons:                   26.000000
      Center of electronic charge [Ang]: [  0.000000,   0.000000,   0.085813]
    Total nuclear charge:                  25.000000
      Center of nuclear charge [Ang]:    [ -0.000000,   0.000000,  -0.000000]
    Dipole moment [D]:                     10.716632
      Cartesian components [D]:          [ -0.000000,  -0.000000, -10.716632]
    RMS size of the density [Ang]:         2.711186
      Cartesian components [Ang]:        [  0.873078,   0.611253,   2.492917]
  
  Exciton analysis of the difference density matrix
    <r_h> [Ang]:                  [ -0.000000,   0.000000,  -2.798847]
    <r_e> [Ang]:                  [  0.000000,   0.000000,   0.212338]
    |<r_e - r_h>| [Ang]:            3.011184
    Hole size [Ang]:                2.007079
      Cartesian components [Ang]: [  0.914637,   0.792824,   1.601011]
    Electron size [Ang]:            3.586248
      Cartesian components [Ang]: [  1.805758,   1.744859,   2.560445]

  Transition density matrix analysis:
  -----------------------------------
  
  CT numbers (Mulliken)
    omega =     0.8367
    <Phe> =     0.0000
  
  Exciton analysis of the transition density matrix
    Trans. dipole moment [D]:             0.050146
      Cartesian components [D]:         [  0.000000,   0.050146,  -0.000000]
    <r_h> [Ang]:                        [ -0.000000,   0.000000,  -3.197447]
    <r_e> [Ang]:                        [  0.000000,   0.000000,   1.831552]
    |<r_e - r_h>| [Ang]:                  5.028999
    Hole size [Ang]:                      1.089948
      Cartesian components [Ang]:       [  0.837855,   0.489760,   0.496106]
    Electron size [Ang]:                  3.338746
      Cartesian components [Ang]:       [  2.221456,   2.148408,   1.263607]
    RMS electron-hole separation [Ang]:   6.133559
      Cartesian components [Ang]:       [  2.373077,   2.203488,   5.209001]
    Covariance(r_h, r_e) [Ang^2]:         0.002748
    Correlation coefficient:              0.000755
    Center-of-mass size [Ang]:            1.756467
      Cartesian components [Ang]:       [  1.187670,   1.101781,   0.678746]

  Decomposition into state-averaged NTOs
    H- 1 -> L+ 5: -0.5232 ( 54.7%)
    H- 1 -> L+ 8:  0.3748 ( 28.1%)
                   omega =  83.7%
  ----------------------------------------------------------------------------


  Excited state 4 (singlet, B2)                                    [converged]
  ----------------------------------------------------------------------------
  Term symbol:  4 (1) B2                                    R^2 =  1.43599e-08

  Total energy:                                           -153.8225458390 a.u.
  Excitation energy:                                               3.780804 eV

  Osc. strength:                                                      0.010308
  Trans. dip. moment [a.u.]:           [  -0.000000,    0.333585,   -0.000000]
  <i|r^2|0> [a.u.]:                    [  -0.000000,    0.000000,   -0.000000]

  Dip. moment [a.u.]:                  [  -0.000000,    0.000000,   -3.352848]
  Total dipole [Debye]:                                               8.522092
  <r^2> [a.u.]:                        [  68.970162,   29.078949,  580.572764]
  Total <r^2> [a.u.]:                                               678.621876

  V1^2 = 0.8671, V2^2 = 0.1329

  Important amplitudes:
      occ i      occ j       vir a       vir b          v   
    ---------------------------------------------------------
     2 (B2) A              10 (A1) A                 -0.6029
     2 (B2) A               9 (A1) A                  0.2196
    ---------------------------------------------------------

  Density matrix analysis:
  ------------------------
  NOs
    Occupation of frontier NOs:
       0.9598   0.9937
    Number of electrons: 26.000000
    Number of unpaired electrons: n_u =  2.74832, n_u,nl =  2.11600
    NO participation ratio (PR_NO):  3.893047
  
  
  Mulliken Population Analysis
  Atom      Charge (e)              h+              e-           Del q
  --------------------------------------------------------------------
   1 C       -0.743827        0.038787       -0.559707       -0.520920
   2 C       -0.743827        0.038787       -0.559707       -0.520920
   3 H        0.154639       -0.000924        0.000840       -0.000084
   4 H        0.154639       -0.000924        0.000840       -0.000084
   5 H        0.105801        0.001992        0.034415        0.036407
   6 H        0.105801        0.001992        0.034415        0.036407
   7 O       -0.174204        1.391670       -0.529622        0.862048
   8 H        0.140978        0.126001       -0.018855        0.107146
  --------------------------------------------------------------------
  Sum:       -1.000000        1.597382       -1.597382        0.000000
  
  Multipole moment analysis of the density matrix
    Molecular charge:                      -1.000000
    Number of electrons:                   26.000000
      Center of electronic charge [Ang]: [  0.000000,  -0.000000,   0.068240]
    Total nuclear charge:                  25.000000
      Center of nuclear charge [Ang]:    [ -0.000000,   0.000000,  -0.000000]
    Dipole moment [D]:                     8.522090
      Cartesian components [D]:          [ -0.000000,   0.000000,  -8.522090]
    RMS size of the density [Ang]:         2.702651
      Cartesian components [Ang]:        [  0.861877,   0.559634,   2.499660]
  
  Exciton analysis of the difference density matrix
    <r_h> [Ang]:                  [ -0.000000,   0.000000,  -2.969399]
    <r_e> [Ang]:                  [  0.000000,  -0.000000,  -0.104825]
    |<r_e - r_h>| [Ang]:            2.864574
    Hole size [Ang]:                1.815740
      Cartesian components [Ang]: [  0.813714,   0.899751,   1.351010]
    Electron size [Ang]:            3.521336
      Cartesian components [Ang]: [  1.697717,   1.534146,   2.676558]

  Transition density matrix analysis:
  -----------------------------------
  
  CT numbers (Mulliken)
    omega =     0.8511
    <Phe> =    -0.0021
  
  Exciton analysis of the transition density matrix
    Trans. dipole moment [D]:             0.423945
      Cartesian components [D]:         [ -0.000000,   0.423945,  -0.000000]
    <r_h> [Ang]:                        [ -0.000000,   0.000000,  -3.196708]
    <r_e> [Ang]:                        [  0.000000,  -0.000000,   1.338013]
    |<r_e - r_h>| [Ang]:                  4.534721
    Hole size [Ang]:                      1.086398
      Cartesian components [Ang]:       [  0.483561,   0.837441,   0.495099]
    Electron size [Ang]:                  3.363812
      Cartesian components [Ang]:       [  2.012697,   1.835783,   1.973368]
    RMS electron-hole separation [Ang]:   5.748994
      Cartesian components [Ang]:       [  2.069861,   2.015380,   4.970398]
    Covariance(r_h, r_e) [Ang^2]:         0.004125
    Correlation coefficient:              0.001129
    Center-of-mass size [Ang]:            1.768031
      Cartesian components [Ang]:       [  1.035040,   1.010082,   1.017036]

  Decomposition into state-averaged NTOs
    H- 0 -> L+ 6:  0.4841 ( 46.9%)
    H- 0 -> L+ 2:  0.2927 ( 17.1%)
    H- 0 -> L+ 0: -0.2173 (  9.4%)
    H- 0 -> L+ 3:  0.2016 (  8.1%)
    H- 0 -> L+ 1:  0.1255 (  3.2%)
                   omega =  85.1%
  ----------------------------------------------------------------------------


  Excited state 5 (singlet, B2)                                    [converged]
  ----------------------------------------------------------------------------
  Term symbol:  5 (1) B2                                    R^2 =  7.39565e-09

  Total energy:                                           -153.7992283417 a.u.
  Excitation energy:                                               4.415305 eV

  Osc. strength:                                                      0.000556
  Trans. dip. moment [a.u.]:           [  -0.000000,   -0.071713,    0.000000]
  <i|r^2|0> [a.u.]:                    [  -0.000000,   -0.000000,    0.000000]

  Dip. moment [a.u.]:                  [   0.000000,    0.000000,   -4.232756]
  Total dipole [Debye]:                                              10.758595
  <r^2> [a.u.]:                        [  70.075137,   34.047147,  577.804599]
  Total <r^2> [a.u.]:                                               681.926883

  V1^2 = 0.8503, V2^2 = 0.1497

  Important amplitudes:
      occ i      occ j       vir a       vir b          v   
    ---------------------------------------------------------
     4 (B1) A               2 (A2) A                  0.6252
     4 (B1) A               1 (A2) A                  0.1709
    ---------------------------------------------------------

  Density matrix analysis:
  ------------------------
  NOs
    Occupation of frontier NOs:
       0.9587   0.9944
    Number of electrons: 26.000000
    Number of unpaired electrons: n_u =  2.74371, n_u,nl =  2.11104
    NO participation ratio (PR_NO):  3.884253
  
  
  Mulliken Population Analysis
  Atom      Charge (e)              h+              e-           Del q
  --------------------------------------------------------------------
   1 C       -0.633010        0.106255       -0.516358       -0.410103
   2 C       -0.633010        0.106255       -0.516358       -0.410103
   3 H        0.093092        0.001398       -0.063028       -0.061631
   4 H        0.093092        0.001398       -0.063028       -0.061631
   5 H        0.040615        0.003629       -0.032408       -0.028779
   6 H        0.040615        0.003629       -0.032408       -0.028779
   7 O       -0.140731        1.391952       -0.496431        0.895521
   8 H        0.139338        0.127439       -0.021932        0.105506
  --------------------------------------------------------------------
  Sum:       -1.000000        1.741953       -1.741953        0.000000
  
  Multipole moment analysis of the density matrix
    Molecular charge:                      -1.000000
    Number of electrons:                   26.000000
      Center of electronic charge [Ang]: [ -0.000000,  -0.000000,   0.086149]
    Total nuclear charge:                  25.000000
      Center of nuclear charge [Ang]:    [ -0.000000,   0.000000,  -0.000000]
    Dipole moment [D]:                     10.758592
      Cartesian components [D]:          [  0.000000,   0.000000, -10.758592]
    RMS size of the density [Ang]:         2.708718
      Cartesian components [Ang]:        [  0.868753,   0.605557,   2.493135]
  
  Exciton analysis of the difference density matrix
    <r_h> [Ang]:                  [ -0.000000,  -0.000000,  -2.584732]
    <r_e> [Ang]:                  [ -0.000000,  -0.000000,   0.309401]
    |<r_e - r_h>| [Ang]:            2.894133
    Hole size [Ang]:                2.189390
      Cartesian components [Ang]: [  0.907863,   0.763478,   1.840195]
    Electron size [Ang]:            3.490241
      Cartesian components [Ang]: [  1.742901,   1.672564,   2.519248]

  Transition density matrix analysis:
  -----------------------------------
  
  CT numbers (Mulliken)
    omega =     0.8268
    <Phe> =     0.0000
  
  Exciton analysis of the transition density matrix
    Trans. dipole moment [D]:             0.091138
      Cartesian components [D]:         [ -0.000000,  -0.091138,   0.000000]
    <r_h> [Ang]:                        [ -0.000000,   0.000000,  -3.197383]
    <r_e> [Ang]:                        [  0.000000,  -0.000000,   1.839234]
    |<r_e - r_h>| [Ang]:                  5.036617
    Hole size [Ang]:                      1.089433
      Cartesian components [Ang]:       [  0.840156,   0.484761,   0.495992]
    Electron size [Ang]:                  3.255097
      Cartesian components [Ang]:       [  2.161897,   2.104653,   1.221592]
    RMS electron-hole separation [Ang]:   6.094622
      Cartesian components [Ang]:       [  2.318252,   2.159691,   5.206328]
    Covariance(r_h, r_e) [Ang^2]:         0.002809
    Correlation coefficient:              0.000792
    Center-of-mass size [Ang]:            1.716693
      Cartesian components [Ang]:       [  1.160284,   1.079913,   0.659214]

  Decomposition into state-averaged NTOs
    H- 1 -> L+ 8:  0.5156 ( 53.2%)
    H- 1 -> L+ 5:  0.3841 ( 29.5%)
                   omega =  82.7%
  ----------------------------------------------------------------------------


  Excited state 6 (singlet, B2)                                    [converged]
  ----------------------------------------------------------------------------
  Term symbol:  6 (1) B2                                    R^2 =  2.77029e-08

  Total energy:                                           -153.7871443576 a.u.
  Excitation energy:                                               4.744127 eV

  Osc. strength:                                                      0.064698
  Trans. dip. moment [a.u.]:           [   0.000000,   -0.746085,    0.000000]
  <i|r^2|0> [a.u.]:                    [  -0.000000,   -0.000000,    0.000000]

  Dip. moment [a.u.]:                  [  -0.000000,    0.000000,    5.636338]
  Total dipole [Debye]:                                              14.326146
  <r^2> [a.u.]:                        [  60.194002,   22.510917,  617.083731]
  Total <r^2> [a.u.]:                                               699.788650

  V1^2 = 0.9042, V2^2 = 0.0958

  Important amplitudes:
      occ i      occ j       vir a       vir b          v   
    ---------------------------------------------------------
     2 (B2) A              11 (A1) A                 -0.4407
     2 (B2) A              12 (A1) A                  0.4375
    ---------------------------------------------------------

  Density matrix analysis:
  ------------------------
  NOs
    Occupation of frontier NOs:
       0.9658   0.9987
    Number of electrons: 26.000000
    Number of unpaired electrons: n_u =  2.69781, n_u,nl =  2.09603
    NO participation ratio (PR_NO):  3.720772
  
  
  Mulliken Population Analysis
  Atom      Charge (e)              h+              e-           Del q
  --------------------------------------------------------------------
   1 C       -0.216518        0.005639        0.000749        0.006389
   2 C       -0.216518        0.005639        0.000749        0.006389
   3 H        0.111245        0.001469       -0.044948       -0.043478
   4 H        0.111245        0.001469       -0.044948       -0.043478
   5 H        0.070558        0.000262        0.000902        0.001164
   6 H        0.070558        0.000262        0.000902        0.001164
   7 O       -1.679290        1.243694       -1.886732       -0.643038
   8 H        0.748722        0.166020        0.548869        0.714890
  --------------------------------------------------------------------
  Sum:       -1.000000        1.424456       -1.424456        0.000000
  
  Multipole moment analysis of the density matrix
    Molecular charge:                      -1.000000
    Number of electrons:                   26.000000
      Center of electronic charge [Ang]: [  0.000000,  -0.000000,  -0.114716]
    Total nuclear charge:                  25.000000
      Center of nuclear charge [Ang]:    [ -0.000000,   0.000000,  -0.000000]
    Dipole moment [D]:                     14.326142
      Cartesian components [D]:          [ -0.000000,   0.000000,  14.326142]
    RMS size of the density [Ang]:         2.742953
      Cartesian components [Ang]:        [  0.805176,   0.492392,   2.575468]
  
  Exciton analysis of the difference density matrix
    <r_h> [Ang]:                  [ -0.000000,   0.000000,  -3.194990]
    <r_e> [Ang]:                  [  0.000000,  -0.000000,  -3.322095]
    |<r_e - r_h>| [Ang]:            0.127105
    Hole size [Ang]:                1.449301
      Cartesian components [Ang]: [  0.750166,   0.889385,   0.864129]
    Electron size [Ang]:            2.401203
      Cartesian components [Ang]: [  1.152000,   1.109648,   1.790909]

  Transition density matrix analysis:
  -----------------------------------
  
  CT numbers (Mulliken)
    omega =     0.8846
    <Phe> =    -0.0146
  
  Exciton analysis of the transition density matrix
    Trans. dipole moment [D]:             0.948179
      Cartesian components [D]:         [  0.000000,  -0.948179,   0.000000]
    <r_h> [Ang]:                        [ -0.000000,   0.000000,  -3.197879]
    <r_e> [Ang]:                        [  0.000000,  -0.000000,  -3.504498]
    |<r_e - r_h>| [Ang]:                  0.306619
    Hole size [Ang]:                      1.075220
      Cartesian components [Ang]:       [  0.478756,   0.829057,   0.489443]
    Electron size [Ang]:                  2.649183
      Cartesian components [Ang]:       [  1.268241,   1.234835,   1.971020]
    RMS electron-hole separation [Ang]:   2.873558
      Cartesian components [Ang]:       [  1.355393,   1.484527,   2.053393]
    Covariance(r_h, r_e) [Ang^2]:         0.005475
    Correlation coefficient:              0.001922
    Center-of-mass size [Ang]:            1.430491
      Cartesian components [Ang]:       [  0.677900,   0.745065,   1.015694]

  Decomposition into state-averaged NTOs
    H- 0 -> L+ 1: -0.5511 ( 60.7%)
    H- 0 -> L+ 2:  0.3613 ( 26.1%)
                   omega =  88.5%
  ----------------------------------------------------------------------------


  Excited state 7 (singlet, B2)                                    [converged]
  ----------------------------------------------------------------------------
  Term symbol:  7 (1) B2                                    R^2 =  1.63177e-07

  Total energy:                                           -153.7303503658 a.u.
  Excitation energy:                                               6.289570 eV

  Osc. strength:                                                      0.022751
  Trans. dip. moment [a.u.]:           [  -0.000000,    0.384250,    0.000000]
  <i|r^2|0> [a.u.]:                    [   0.000000,    0.000000,    0.000000]

  Dip. moment [a.u.]:                  [  -0.000000,    0.000000,   -1.929561]
  Total dipole [Debye]:                                               4.904455
  <r^2> [a.u.]:                        [  60.416310,   25.181640,  581.654234]
  Total <r^2> [a.u.]:                                               667.252183

  V1^2 = 0.8759, V2^2 = 0.1241

  Important amplitudes:
      occ i      occ j       vir a       vir b          v   
    ---------------------------------------------------------
     2 (B2) A              11 (A1) A                 -0.4664
     2 (B2) A              12 (A1) A                 -0.3075
    ---------------------------------------------------------

  Density matrix analysis:
  ------------------------
  NOs
    Occupation of frontier NOs:
       0.9621   0.9892
    Number of electrons: 26.000000
    Number of unpaired electrons: n_u =  2.74020, n_u,nl =  2.11295
    NO participation ratio (PR_NO):  3.880892
  
  
  Mulliken Population Analysis
  Atom      Charge (e)              h+              e-           Del q
  --------------------------------------------------------------------
   1 C       -0.315881        0.048098       -0.141072       -0.092974
   2 C       -0.315881        0.048098       -0.141072       -0.092974
   3 H        0.024507        0.003758       -0.133974       -0.130216
   4 H        0.024507        0.003758       -0.133974       -0.130216
   5 H       -0.034365        0.004866       -0.108625       -0.103759
   6 H       -0.034365        0.004866       -0.108625       -0.103759
   7 O       -0.370338        1.351765       -0.685850        0.665915
   8 H        0.021816        0.113150       -0.125166       -0.012016
  --------------------------------------------------------------------
  Sum:       -1.000000        1.578356       -1.578356        0.000000
  
  Multipole moment analysis of the density matrix
    Molecular charge:                      -1.000000
    Number of electrons:                   26.000000
      Center of electronic charge [Ang]: [  0.000000,  -0.000000,   0.039272]
    Total nuclear charge:                  25.000000
      Center of nuclear charge [Ang]:    [ -0.000000,   0.000000,  -0.000000]
    Dipole moment [D]:                     4.904454
      Cartesian components [D]:          [ -0.000000,   0.000000,  -4.904454]
    RMS size of the density [Ang]:         2.680482
      Cartesian components [Ang]:        [  0.806662,   0.520783,   2.502612]
  
  Exciton analysis of the difference density matrix
    <r_h> [Ang]:                  [ -0.000000,   0.000000,  -2.879034]
    <r_e> [Ang]:                  [  0.000000,  -0.000000,  -0.457118]
    |<r_e - r_h>| [Ang]:            2.421916
    Hole size [Ang]:                1.907154
      Cartesian components [Ang]: [  0.804058,   0.892797,   1.481094]
    Electron size [Ang]:            3.162287
      Cartesian components [Ang]: [  1.172935,   1.291627,   2.637420]

  Transition density matrix analysis:
  -----------------------------------
  
  CT numbers (Mulliken)
    omega =     0.8581
    <Phe> =    -0.0079
  
  Exciton analysis of the transition density matrix
    Trans. dipole moment [D]:             0.488333
      Cartesian components [D]:         [ -0.000000,   0.488333,   0.000000]
    <r_h> [Ang]:                        [ -0.000000,   0.000000,  -3.196279]
    <r_e> [Ang]:                        [  0.000000,  -0.000000,   0.535969]
    |<r_e - r_h>| [Ang]:                  3.732249
    Hole size [Ang]:                      1.082859
      Cartesian components [Ang]:       [  0.481825,   0.834332,   0.494284]
    Electron size [Ang]:                  3.079141
      Cartesian components [Ang]:       [  1.269110,   1.494337,   2.374327]
    RMS electron-hole separation [Ang]:   4.957335
      Cartesian components [Ang]:       [  1.357308,   1.709127,   4.451041]
    Covariance(r_h, r_e) [Ang^2]:         0.004101
    Correlation coefficient:              0.001230
    Center-of-mass size [Ang]:            1.632628
      Cartesian components [Ang]:       [  0.678842,   0.856911,   1.212580]

  Decomposition into state-averaged NTOs
    H- 0 -> L+ 2:  0.3494 ( 24.4%)
    H- 0 -> L+ 7:  0.3106 ( 19.3%)
    H- 0 -> L+ 3: -0.3078 ( 19.0%)
    H- 0 -> L+ 1:  0.2776 ( 15.4%)
    H- 0 -> L+ 6: -0.1925 (  7.4%)
                   omega =  85.8%
  ----------------------------------------------------------------------------


  Excited state 8 (singlet, B2)                                    [converged]
  ----------------------------------------------------------------------------
  Term symbol:  8 (1) B2                                    R^2 =  3.36240e-06

  Total energy:                                           -153.7108241639 a.u.
  Excitation energy:                                               6.820905 eV

  Osc. strength:                                                      0.000875
  Trans. dip. moment [a.u.]:           [   0.000000,   -0.072374,    0.000000]
  <i|r^2|0> [a.u.]:                    [  -0.000000,   -0.000000,    0.000000]

  Dip. moment [a.u.]:                  [   0.000000,    0.000000,   -4.228696]
  Total dipole [Debye]:                                              10.748275
  <r^2> [a.u.]:                        [  65.256627,   49.044926,  580.636906]
  Total <r^2> [a.u.]:                                               694.938458

  V1^2 = 0.8673, V2^2 = 0.1327

  Important amplitudes:
      occ i      occ j       vir a       vir b          v   
    ---------------------------------------------------------
     7 (A1) A               3 (B2) A                  0.6556
     4 (A1) A               3 (B2) A                  0.0460
    ---------------------------------------------------------

  Density matrix analysis:
  ------------------------
  NOs
    Occupation of frontier NOs:
       0.9749   0.9979
    Number of electrons: 26.000000
    Number of unpaired electrons: n_u =  2.79250, n_u,nl =  2.13316
    NO participation ratio (PR_NO):  3.934521
  
  
  Mulliken Population Analysis
  Atom      Charge (e)              h+              e-           Del q
  --------------------------------------------------------------------
   1 C       -0.686946        0.034319       -0.498358       -0.464039
   2 C       -0.686946        0.034319       -0.498358       -0.464039
   3 H        0.116500       -0.002327       -0.035896       -0.038223
   4 H        0.116500       -0.002327       -0.035896       -0.038223
   5 H        0.071426        0.003756       -0.001724        0.002031
   6 H        0.071426        0.003756       -0.001724        0.002031
   7 O       -0.329889        1.228313       -0.521949        0.706363
   8 H        0.327931        0.311386       -0.017287        0.294099
  --------------------------------------------------------------------
  Sum:       -1.000000        1.611193       -1.611193       -0.000000
  
  Multipole moment analysis of the density matrix
    Molecular charge:                      -1.000000
    Number of electrons:                   26.000000
      Center of electronic charge [Ang]: [ -0.000000,  -0.000000,   0.086067]
    Total nuclear charge:                  25.000000
      Center of nuclear charge [Ang]:    [ -0.000000,   0.000000,  -0.000000]
    Dipole moment [D]:                     10.748272
      Cartesian components [D]:          [  0.000000,   0.000000, -10.748272]
    RMS size of the density [Ang]:         2.734467
      Cartesian components [Ang]:        [  0.838353,   0.726794,   2.499248]
  
  Exciton analysis of the difference density matrix
    <r_h> [Ang]:                  [ -0.000000,   0.000000,  -3.007545]
    <r_e> [Ang]:                  [ -0.000000,  -0.000000,   0.120135]
    |<r_e - r_h>| [Ang]:            3.127681
    Hole size [Ang]:                1.770212
      Cartesian components [Ang]: [  0.793012,   0.770935,   1.382187]
    Electron size [Ang]:            3.910808
      Cartesian components [Ang]: [  1.478015,   2.365436,   2.741277]

  Transition density matrix analysis:
  -----------------------------------
  
  CT numbers (Mulliken)
    omega =     0.8498
    <Phe> =     0.0001
  
  Exciton analysis of the transition density matrix
    Trans. dipole moment [D]:             0.091978
      Cartesian components [D]:         [  0.000000,  -0.091978,   0.000000]
    <r_h> [Ang]:                        [  0.000000,   0.000000,  -3.245037]
    <r_e> [Ang]:                        [ -0.000000,  -0.000000,   1.833933]
    |<r_e - r_h>| [Ang]:                  5.078969
    Hole size [Ang]:                      1.008846
      Cartesian components [Ang]:       [  0.420839,   0.420677,   0.814675]
    Electron size [Ang]:                  3.819983
      Cartesian components [Ang]:       [  1.743718,   2.939161,   1.706766]
    RMS electron-hole separation [Ang]:   6.435611
      Cartesian components [Ang]:       [  1.794421,   2.970109,   5.419925]
    Covariance(r_h, r_e) [Ang^2]:        -0.005557
    Correlation coefficient:             -0.001442
    Center-of-mass size [Ang]:            1.974774
      Cartesian components [Ang]:       [  0.896572,   1.484059,   0.945230]

  Decomposition into state-averaged NTOs
    H- 3 -> L+ 4: -0.6518 ( 85.0%)
                   omega =  85.0%
  ----------------------------------------------------------------------------


  Excited state 9 (singlet, B2)                                    [converged]
  ----------------------------------------------------------------------------
  Term symbol:  9 (1) B2                                    R^2 =  3.85726e-08

  Total energy:                                           -153.6982371917 a.u.
  Excitation energy:                                               7.163414 eV

  Osc. strength:                                                      0.078131
  Trans. dip. moment [a.u.]:           [   0.000000,   -0.667226,    0.000000]
  <i|r^2|0> [a.u.]:                    [   0.000000,   -0.000000,   -0.000000]

  Dip. moment [a.u.]:                  [  -0.000000,    0.000000,    2.520258]
  Total dipole [Debye]:                                               6.405857
  <r^2> [a.u.]:                        [  65.420272,   25.382995,  632.298584]
  Total <r^2> [a.u.]:                                               723.101851

  V1^2 = 0.9521, V2^2 = 0.0479

  Important amplitudes:
      occ i      occ j       vir a       vir b          v   
    ---------------------------------------------------------
     1 (B2) A               8 (A1) A                  0.6299
     1 (B2) A              10 (A1) A                  0.1975
    ---------------------------------------------------------

  Density matrix analysis:
  ------------------------
  NOs
    Occupation of frontier NOs:
       0.9829   0.9931
    Number of electrons: 26.000000
    Number of unpaired electrons: n_u =  2.59355, n_u,nl =  2.06327
    NO participation ratio (PR_NO):  3.416299
  
  
  Mulliken Population Analysis
  Atom      Charge (e)              h+              e-           Del q
  --------------------------------------------------------------------
   1 C       -0.370589        0.526627       -0.674309       -0.147681
   2 C       -0.370589        0.526627       -0.674309       -0.147681
   3 H        0.217544        0.056001        0.006820        0.062821
   4 H        0.217544        0.056001        0.006820        0.062821
   5 H        0.154465        0.110979       -0.025908        0.085071
   6 H        0.154465        0.110979       -0.025908        0.085071
   7 O       -1.045986        0.009005       -0.018738       -0.009733
   8 H        0.043146        0.008103        0.001210        0.009314
  --------------------------------------------------------------------
  Sum:       -1.000000        1.404323       -1.404323        0.000000
  
  Multipole moment analysis of the density matrix
    Molecular charge:                      -1.000000
    Number of electrons:                   26.000000
      Center of electronic charge [Ang]: [  0.000000,  -0.000000,  -0.051295]
    Total nuclear charge:                  25.000000
      Center of nuclear charge [Ang]:    [ -0.000000,   0.000000,  -0.000000]
    Dipole moment [D]:                     6.405855
      Cartesian components [D]:          [ -0.000000,   0.000000,   6.405855]
    RMS size of the density [Ang]:         2.790235
      Cartesian components [Ang]:        [  0.839403,   0.522861,   2.609106]
  
  Exciton analysis of the difference density matrix
    <r_h> [Ang]:                  [ -0.000000,  -0.000000,   1.842941]
    <r_e> [Ang]:                  [  0.000000,  -0.000000,   2.888216]
    |<r_e - r_h>| [Ang]:            1.045275
    Hole size [Ang]:                1.671182
      Cartesian components [Ang]: [  1.017798,   0.871732,   0.998508]
    Electron size [Ang]:            2.655999
      Cartesian components [Ang]: [  1.689192,   1.333884,   1.556185]

  Transition density matrix analysis:
  -----------------------------------
  
  CT numbers (Mulliken)
    omega =     0.9207
    <Phe> =    -0.0086
  
  Exciton analysis of the transition density matrix
    Trans. dipole moment [D]:             0.847960
      Cartesian components [D]:         [  0.000000,  -0.847960,   0.000000]
    <r_h> [Ang]:                        [ -0.000000,  -0.000000,   1.843125]
    <r_e> [Ang]:                        [  0.000000,  -0.000000,   3.392893]
    |<r_e - r_h>| [Ang]:                  1.549768
    Hole size [Ang]:                      1.259771
      Cartesian components [Ang]:       [  0.757415,   0.865448,   0.514144]
    Electron size [Ang]:                  2.818195
      Cartesian components [Ang]:       [  1.904781,   1.535144,   1.399059]
    RMS electron-hole separation [Ang]:   3.446586
      Cartesian components [Ang]:       [  2.043732,   1.756057,   2.149041]
    Covariance(r_h, r_e) [Ang^2]:         0.026037
    Correlation coefficient:              0.007334
    Center-of-mass size [Ang]:            1.547686
      Cartesian components [Ang]:       [  1.027971,   0.884251,   0.746128]

  Decomposition into state-averaged NTOs
    H- 2 -> L+ 0: -0.6780 ( 91.9%)
                   omega =  92.1%
  ----------------------------------------------------------------------------


  Excited state 10 (singlet, B2)                                    [converged]
  ----------------------------------------------------------------------------
  Term symbol:  10 (1) B2                                   R^2 =  1.08680e-06

  Total energy:                                           -153.6693578996 a.u.
  Excitation energy:                                               7.949260 eV

  Osc. strength:                                                      0.000967
  Trans. dip. moment [a.u.]:           [  -0.000000,    0.070469,    0.000000]
  <i|r^2|0> [a.u.]:                    [   0.000000,    0.000000,   -0.000000]

  Dip. moment [a.u.]:                  [   0.000000,   -0.000000,   -4.950655]
  Total dipole [Debye]:                                              12.583312
  <r^2> [a.u.]:                        [  62.585582,   23.330137,  602.906513]
  Total <r^2> [a.u.]:                                               688.822232

  V1^2 = 0.8598, V2^2 = 0.1402

  Important amplitudes:
      occ i      occ j       vir a       vir b          v   
    ---------------------------------------------------------
     2 (B2) A              14 (A1) A                 -0.4629
     2 (B2) A              12 (A1) A                  0.3803
    ---------------------------------------------------------

  Density matrix analysis:
  ------------------------
  NOs
    Occupation of frontier NOs:
       0.9600   0.9864
    Number of electrons: 26.000000
    Number of unpaired electrons: n_u =  2.75809, n_u,nl =  2.11969
    NO participation ratio (PR_NO):  3.947320
  
  
  Mulliken Population Analysis
  Atom      Charge (e)              h+              e-           Del q
  --------------------------------------------------------------------
   1 C       -0.345951        0.075673       -0.198716       -0.123044
   2 C       -0.345951        0.075673       -0.198716       -0.123044
   3 H        0.086903        0.000381       -0.068201       -0.067820
   4 H        0.086903        0.000381       -0.068201       -0.067820
   5 H       -0.159799        0.020088       -0.249281       -0.229193
   6 H       -0.159799        0.020088       -0.249281       -0.229193
   7 O       -0.168713        1.379709       -0.512170        0.867540
   8 H        0.006407        0.115053       -0.142478       -0.027425
  --------------------------------------------------------------------
  Sum:       -1.000000        1.687044       -1.687044        0.000000
  
  Multipole moment analysis of the density matrix
    Molecular charge:                      -1.000000
    Number of electrons:                   26.000000
      Center of electronic charge [Ang]: [ -0.000000,   0.000000,   0.100761]
    Total nuclear charge:                  25.000000
      Center of nuclear charge [Ang]:    [ -0.000000,   0.000000,  -0.000000]
    Dipole moment [D]:                     12.583308
      Cartesian components [D]:          [  0.000000,  -0.000000, -12.583308]
    RMS size of the density [Ang]:         2.721891
      Cartesian components [Ang]:        [  0.821016,   0.501272,   2.546242]
  
  Exciton analysis of the difference density matrix
    <r_h> [Ang]:                  [ -0.000000,   0.000000,  -2.641193]
    <r_e> [Ang]:                  [ -0.000000,   0.000000,   0.572321]
    |<r_e - r_h>| [Ang]:            3.213514
    Hole size [Ang]:                2.170029
      Cartesian components [Ang]: [  0.812835,   0.868368,   1.815010]
    Electron size [Ang]:            3.651206
      Cartesian components [Ang]: [  1.305013,   1.123308,   3.219693]

  Transition density matrix analysis:
  -----------------------------------
  
  CT numbers (Mulliken)
    omega =     0.8418
    <Phe> =    -0.0028
  
  Exciton analysis of the transition density matrix
    Trans. dipole moment [D]:             0.089557
      Cartesian components [D]:         [ -0.000000,   0.089557,   0.000000]
    <r_h> [Ang]:                        [ -0.000000,   0.000000,  -3.196435]
    <r_e> [Ang]:                        [ -0.000000,  -0.000000,   2.242230]
    |<r_e - r_h>| [Ang]:                  5.438666
    Hole size [Ang]:                      1.086464
      Cartesian components [Ang]:       [  0.483097,   0.836539,   0.497215]
    Electron size [Ang]:                  3.346733
      Cartesian components [Ang]:       [  1.479729,   1.306904,   2.702411]
    RMS electron-hole separation [Ang]:   6.478008
      Cartesian components [Ang]:       [  1.556462,   1.551903,   6.093735]
    Covariance(r_h, r_e) [Ang^2]:        -0.002237
    Correlation coefficient:             -0.000615
    Center-of-mass size [Ang]:            1.759016
      Cartesian components [Ang]:       [  0.778361,   0.775756,   1.373497]

  Decomposition into state-averaged NTOs
    H- 0 -> L+ 7: -0.5452 ( 59.5%)
    H- 0 -> L+ 3: -0.2081 (  8.7%)
    H- 0 -> L+ 2:  0.1989 (  7.9%)
    H- 0 -> L+ 1:  0.1790 (  6.4%)
    H- 0 -> L+ 0:  0.0914 (  1.7%)
                   omega =  84.2%
  ----------------------------------------------------------------------------


--------------------------------------------------------------------------------
  Time of ADC calculation:  CPU 197.68 s  wall 54.46 s
================================================================================
 
 --------------------------------------------------------------
             Orbital Energies (a.u.) and Symmetries
 --------------------------------------------------------------
 
 Alpha MOs, Restricted
 -- Occupied --                  
-20.203 -11.129 -11.127  -0.934  -0.908  -0.675  -0.551  -0.460
  1 A1    2 A1    1 B1    3 A1    4 A1    2 B1    5 A1    6 A1                 
 -0.406  -0.270  -0.256  -0.112  -0.112
  3 B1    1 B2    7 A1    2 B2    4 B1                                         
 -- Virtual --                   
  0.150   0.162   0.184   0.187   0.188   0.215   0.250   0.277
  5 B1    8 A1    3 B2    1 A2    9 A1    6 B1   10 A1    2 A2                 
  0.307   0.351   0.381   0.409   0.423   0.427   0.437   0.446
  7 B1   11 A1   12 A1    8 B1   13 A1   14 A1    4 B2    5 B2                 
  0.446   0.454   0.468   0.479   0.519   0.524   0.593   0.662
  9 B1   15 A1   10 B1   11 B1    3 A2   16 A1   17 A1   12 B1                 
  0.721   0.937   0.965   1.044   1.048   1.130   1.139   1.163
 13 B1   18 A1   19 A1   14 B1   20 A1   21 A1   15 B1   22 A1                 
  1.195   1.221   1.222   1.231   1.237   1.265   1.276   1.320
  6 B2   23 A1    7 B2   16 B1    4 A2    8 B2   17 B1   24 A1                 
  1.320   1.381   1.393   1.396   1.541   1.542   1.727   1.729
  5 A2   18 B1    6 A2    9 B2   19 B1   25 A1   10 B2   26 A1                 
  1.735   1.766   1.838   1.980   2.024   2.051   2.067   2.127
 20 B1   21 B1   27 A1    7 A2   28 A1   11 B2   22 B1   12 B2                 
  2.173   2.202   2.287   2.373   2.376   2.436   2.521   2.534
 29 A1   30 A1    8 A2   13 B2   23 B1   24 B1    9 A2   31 A1                 
  2.584   2.681   2.693   2.936   2.951   3.034   3.366   3.449
 32 A1   25 B1   26 B1   33 A1   34 A1   35 A1   27 B1   28 B1                 
  3.926   3.929   3.955   3.955   4.398
 14 B2   29 B1   36 A1   10 A2   37 A1                                         
 
 Beta MOs, Restricted
 -- Occupied --                  
-20.203 -11.129 -11.127  -0.934  -0.908  -0.675  -0.551  -0.460
  1 A1    2 A1    1 B1    3 A1    4 A1    2 B1    5 A1    6 A1                 
 -0.406  -0.270  -0.256  -0.112  -0.112
  3 B1    1 B2    7 A1    2 B2    4 B1                                         
 -- Virtual --                   
  0.150   0.162   0.184   0.187   0.188   0.215   0.250   0.277
  5 B1    8 A1    3 B2    1 A2    9 A1    6 B1   10 A1    2 A2                 
  0.307   0.351   0.381   0.409   0.423   0.427   0.437   0.446
  7 B1   11 A1   12 A1    8 B1   13 A1   14 A1    4 B2    5 B2                 
  0.446   0.454   0.468   0.479   0.519   0.524   0.593   0.662
  9 B1   15 A1   10 B1   11 B1    3 A2   16 A1   17 A1   12 B1                 
  0.721   0.937   0.965   1.044   1.048   1.130   1.139   1.163
 13 B1   18 A1   19 A1   14 B1   20 A1   21 A1   15 B1   22 A1                 
  1.195   1.221   1.222   1.231   1.237   1.265   1.276   1.320
  6 B2   23 A1    7 B2   16 B1    4 A2    8 B2   17 B1   24 A1                 
  1.320   1.381   1.393   1.396   1.541   1.542   1.727   1.729
  5 A2   18 B1    6 A2    9 B2   19 B1   25 A1   10 B2   26 A1                 
  1.735   1.766   1.838   1.980   2.024   2.051   2.067   2.127
 20 B1   21 B1   27 A1    7 A2   28 A1   11 B2   22 B1   12 B2                 
  2.173   2.202   2.287   2.373   2.376   2.436   2.521   2.534
 29 A1   30 A1    8 A2   13 B2   23 B1   24 B1    9 A2   31 A1                 
  2.584   2.681   2.693   2.936   2.951   3.034   3.366   3.449
 32 A1   25 B1   26 B1   33 A1   34 A1   35 A1   27 B1   28 B1                 
  3.926   3.929   3.955   3.955   4.398
 14 B2   29 B1   36 A1   10 A2   37 A1                                         
 --------------------------------------------------------------
 
          Ground-State Mulliken Net Atomic Charges

     Atom                 Charge (a.u.)
  ----------------------------------------
      1 C                    -0.207979
      2 C                    -0.207979
      3 H                     0.147297
      4 H                     0.147297
      5 H                     0.061804
      6 H                     0.061804
      7 O                    -1.049530
      8 H                     0.047285
  ----------------------------------------
  Sum of atomic charges =    -1.000000

 -----------------------------------------------------------------
                    Cartesian Multipole Moments
 -----------------------------------------------------------------
    Charge (ESU x 10^10)
                -4.8032
    Dipole Moment (Debye)
         X      -0.0000      Y      -0.0000      Z      13.3658
       Tot      13.3658
    Quadrupole Moments (Debye-Ang)
        XX     -23.1680     XY      -0.0000     YY     -26.3235
        XZ      -0.0000     YZ       0.0000     ZZ     -61.7646
    Octopole Moments (Debye-Ang^2)
       XXX       0.0000    XXY      -0.0000    XYY       0.0000
       YYY       0.0000    XXZ       7.5647    XYZ      -0.0000
       YYZ       2.4765    XZZ      -0.0000    YZZ      -0.0000
       ZZZ     112.6295
    Hexadecapole Moments (Debye-Ang^3)
      XXXX     -84.8858   XXXY       0.0000   XXYY     -21.1341
      XYYY      -0.0000   YYYY     -38.1705   XXXZ      -0.0000
      XXYZ       0.0000   XYYZ       0.0000   YYYZ       0.0000
      XXZZ    -170.7104   XYZZ      -0.0000   YYZZ    -174.3816
      XZZZ      -0.0000   YZZZ       0.0000   ZZZZ   -1081.8062
 -----------------------------------------------------------------
 Total job time:  163.30s(wall), 244.55s(cpu) 
 Thu Mar  3 16:38:12 2022

        *************************************************************
        *                                                           *
        *  Thank you very much for using Q-Chem.  Have a nice day.  *
        *                                                           *
        *************************************************************


