/src/tsommerfeld/qchem/exe/qcprog.exe .input1.951515.5374.qcin.1 /src/jdavis/qchem.scratch/qchem5374/

                  Welcome to Q-Chem
     A Quantum Leap Into The Future Of Chemistry


 Q-Chem 5.4 (devel), Q-Chem, Inc., Pleasanton, CA (2021)

 E. Epifanovsky,  A. T. B. Gilbert,  Xintian Feng,  Joonho Lee,  Yuezhi Mao,  
 N. Mardirossian,  P. Pokhilko,  A. White,  M. Wormit,  M. P. Coons,  
 A. L. Dempwolff,  Zhengting Gan,  D. Hait,  P. R. Horn,  L. D. Jacobson,  
 I. Kaliman,  J. Kussmann,  A. W. Lange,  Ka Un Lao,  D. S. Levine,  Jie Liu,  
 S. C. McKenzie,  A. F. Morrison,  K. Nanda,  F. Plasser,  D. R. Rehn,  
 M. L. Vidal,  Zhi-Qiang You,  Ying Zhu,  B. Alam,  B. Albrecht,  
 A. Aldossary,  E. Alguire,  J. H. Andersen,  D. Barton,  K. Begam,  A. Behn,  
 Y. A. Bernard,  E. J. Berquist,  H. Burton,  A. Carreras,  K. Carter-Fenk,  
 R. Chakraborty,  A. D. Chien,  K. D. Closser,  V. Cofer-Shabica,  
 S. Dasgupta,  Jia Deng,  M. de Wergifosse,  M. Diedenhofen,  Hainam Do,  
 S. Ehlert,  Po-Tung Fang,  S. Fatehi,  Qingguo Feng,  T. Friedhoff,  
 J. Gayvert,  Qinghui Ge,  G. Gidofalvi,  M. Goldey,  J. Gomes,  
 C. Gonzalez-Espinoza,  S. Gulania,  A. Gunina,  M. W. D. Hanson-Heine,  
 P. H. P. Harbach,  A. W. Hauser,  M. F. Herbst,  M. Hernandez Vera,  
 M. Hodecker,  Z. C. Holden,  S. Houck,  Xunkun Huang,  Kerwin Hui,  
 B. C. Huynh,  M. Ivanov,  Hyunjun Ji,  Hanjie Jiang,  B. Kaduk,  S. Kaehler,  
 K. Khistyaev,  Jaehoon Kim,  P. Klunzinger,  Z. Koczor-Benda,  
 Joong Hoon Koh,  D. Kosenkov,  L. Koulias,  T. Kowalczyk,  C. M. Krauter,  
 K. Kue,  A. Kunitsa,  T. Kus,  A. Landau,  K. V. Lawler,  D. Lefrancois,  
 S. Lehtola,  Rain Li,  Yi-Pei Li,  Jiashu Liang,  M. Liebenthal,  
 Hung-Hsuan Lin,  You-Sheng Lin,  Fenglai Liu,  Kuan-Yu Liu,  
 M. Loipersberger,  A. Luenser,  A. Manjanath,  P. Manohar,  E. Mansoor,  
 S. F. Manzer,  Shan-Ping Mao,  A. V. Marenich,  T. Markovich,  S. Mason,  
 S. A. Maurer,  P. F. McLaughlin,  M. F. S. J. Menger,  J.-M. Mewes,  
 S. A. Mewes,  P. Morgante,  J. W. Mullinax,  K. J. Oosterbaan,  G. Paran,  
 Alexander C. Paul,  Suranjan K. Paul,  F. Pavosevic,  Zheng Pei,  S. Prager,  
 E. I. Proynov,  E. Ramos,  B. Rana,  A. E. Rask,  A. Rettig,  R. M. Richard,  
 F. Rob,  E. Rossomme,  T. Scheele,  M. Scheurer,  M. Schneider,  
 N. Sergueev,  S. M. Sharada,  W. Skomorowski,  D. W. Small,  C. J. Stein,  
 Yu-Chuan Su,  E. J. Sundstrom,  Zhen Tao,  J. Thirman,  T. Tsuchimochi,  
 N. M. Tubman,  S. P. Veccham,  O. Vydrov,  J. Wenzel,  J. Witte,  A. Yamada,  
 Kun Yao,  S. Yeganeh,  S. R. Yost,  A. Zech,  Igor Ying Zhang,  Xing Zhang,  
 Yu Zhang,  D. Zuev,  A. Aspuru-Guzik,  A. T. Bell,  N. A. Besley,  
 K. B. Bravaya,  B. R. Brooks,  D. Casanova,  Jeng-Da Chai,  S. Coriani,  
 C. J. Cramer,  A. E. DePrince, III,  R. A. DiStasio Jr.,  A. Dreuw,  
 B. D. Dunietz,  T. R. Furlani,  W. A. Goddard III,  S. Grimme,  
 S. Hammes-Schiffer,  T. Head-Gordon,  W. J. Hehre,  Chao-Ping Hsu,  
 T.-C. Jagau,  Yousung Jung,  A. Klamt,  Jing Kong,  D. S. Lambrecht,  
 WanZhen Liang,  N. J. Mayhall,  C. W. McCurdy,  J. B. Neaton,  
 C. Ochsenfeld,  J. A. Parkhill,  R. Peverati,  V. A. Rassolov,  Yihan Shao,  
 L. V. Slipchenko,  T. Stauch,  R. P. Steele,  J. E. Subotnik,  
 A. J. W. Thom,  A. Tkatchenko,  D. G. Truhlar,  T. Van Voorhis,  
 T. A. Wesolowski,  K. B. Whaley,  H. L. Woodcock III,  P. M. Zimmerman,  
 S. Faraji,  P. M. W. Gill,  M. Head-Gordon,  J. M. Herbert,  A. I. Krylov

 Additional authors for Version 5.4.1: 
 S. Kotaru,  Shaozhi Li,  Xiangyuan Li,  F. Matz,  A. Molle,  Haisheng Ren,  
 Yingli Su,  Hung-Yi Tsai,  C. Utku,  Fang Wang

 Contributors to earlier versions of Q-Chem not listed above: 
 R. D. Adamson,  B. Austin,  R. Baer,  J. Baker,  G. J. O. Beran,  
 K. Brandhorst,  S. T. Brown,  E. F. C. Byrd,  A. K. Chakraborty,  
 G. K. L. Chan,  Chun-Min Chang,  Yunqing Chen,  C.-L. Cheng,  
 Siu Hung Chien,  D. M. Chipman,  D. L. Crittenden,  H. Dachsel,  
 R. J. Doerksen,  A. D. Dutoi,  R. G. Edgar,  J. Fosso-Tande,  
 L. Fusti-Molnar,  D. Ghosh,  A. Ghysels,  A. Golubeva-Zadorozhnaya,  
 J. Gonthier,  M. S. Gordon,  S. R. Gwaltney,  G. Hawkins,  J. E. Herr,  
 A. Heyden,  S. Hirata,  E. G. Hohenstein,  G. Kedziora,  F. J. Keil,  
 C. Kelley,  Jihan Kim,  R. A. King,  R. Z. Khaliullin,  P. P. Korambath,  
 W. Kurlancheek,  A. Laurent,  A. M. Lee,  M. S. Lee,  S. V. Levchenko,  
 Ching Yeh Lin,  D. Liotard,  E. Livshits,  R. C. Lochan,  I. Lotan,  
 L. A. Martinez-Martinez,  P. E. Maslen,  N. Nair,  D. P. O'Neill,  
 D. Neuhauser,  E. Neuscamman,  C. M. Oana,  R. Olivares-Amaya,  R. Olson,  
 T. M. Perrine,  B. Peters,  P. A. Pieniazek,  A. Prociuk,  Y. M. Rhee,  
 J. Ritchie,  M. A. Rohrdanz,  E. Rosta,  N. J. Russ,  H. F. Schaefer III,  
 M. W. Schmidt,  N. E. Schultz,  S. Sharma,  N. Shenvi,  C. D. Sherrill,  
 A. C. Simmonett,  A. Sodt,  T. Stein,  D. Stuck,  K. S. Thanthiriwatte,  
 V. Vanovschi,  L. Vogt,  Tao Wang,  A. Warshel,  M. A. Watson,  
 C. F. Williams,  Q. Wu,  X. Xu,  Jun Yang,  W. Zhang,  Yan Zhao

 Please cite Q-Chem as follows:
 Y. Shao et al., Mol. Phys. 113, 184-215 (2015)
 DOI: 10.1080/00268976.2014.952696

 Q-Chem 5.4.1 for Intel X86 EM64T Linux

 Parts of Q-Chem use Armadillo 9.900.5 (Nocturnal Misbehaviour).
 http://arma.sourceforge.net/

 Q-Chem begins on Thu Mar  3 16:49:05 2022  

 Host: node01
0

     Scratch files written to /src/jdavis/qchem.scratch/qchem5374//
 Processing $rem in /src/tsommerfeld/qchem/config/preferences:
 Processing $rem in /home/jdavis/.qchemrc:

 Checking the input file for inconsistencies... 	...done.

--------------------------------------------------------------
User input:
--------------------------------------------------------------
$molecule
-1 1
C        -0.6645000000    0.0000000000    1.1619088658
C         0.6645000000    0.0000000000    1.1619088658
H        -1.1590800000    0.0000000000    0.1995598658
H         1.1590800000    0.0000000000    0.1995598658
H        -1.1590800000    0.0000000000    2.1242568658
H         1.1590800000    0.0000000000    2.1242568658
O         0.0000000000    0.0000000000   -3.84
H         0.0000000000    0.0000000000   -4.81
$end
$rem
   METHOD adc(2)
   BASIS gen
   PURECART 11
   EE_STATES [0,0,0,10]
   scf_convergence 8
   ADC_DAVIDSON_MAXITER 120
   ADC_DAVIDSON_MAXSUBSPACE 200
   adc_nguess_singles 100
   THRESH 14
   S2THRESH 14
   adc_davidson_conv 5
   adc_davidson_thresh 14
   THREADS 10
   MEM_TOTAL 95000
   STATE_ANALYSIS TRUE
$end
$basis
C 1
S   9   1.00
      6.665000D+03           6.920000D-04
      1.000000D+03           5.329000D-03
      2.280000D+02           2.707700D-02
      6.471000D+01           1.017180D-01
      2.106000D+01           2.747400D-01
      7.495000D+00           4.485640D-01
      2.797000D+00           2.850740D-01
      5.215000D-01           1.520400D-02
      1.596000D-01          -3.191000D-03
S   9   1.00
      6.665000D+03          -1.460000D-04
      1.000000D+03          -1.154000D-03
      2.280000D+02          -5.725000D-03
      6.471000D+01          -2.331200D-02
      2.106000D+01          -6.395500D-02
      7.495000D+00          -1.499810D-01
      2.797000D+00          -1.272620D-01
      5.215000D-01           5.445290D-01
      1.596000D-01           5.804960D-01
S   1   1.00
      1.596000D-01           1.000000D+00
S   1   1.00
      0.0469000              1.0000000
P   4   1.00
      9.439000D+00           3.810900D-02
      2.002000D+00           2.094800D-01
      5.456000D-01           5.085570D-01
      1.517000D-01           4.688420D-01
P   1   1.00
      1.517000D-01           1.000000D+00
P   1   1.00
      0.0845842      1.0000000
P   1   1.00
      0.0422921      1.0000000
D   1   1.00
      5.500000D-01           1.0000000
****
C 2
S   9   1.00
      6.665000D+03           6.920000D-04
      1.000000D+03           5.329000D-03
      2.280000D+02           2.707700D-02
      6.471000D+01           1.017180D-01
      2.106000D+01           2.747400D-01
      7.495000D+00           4.485640D-01
      2.797000D+00           2.850740D-01
      5.215000D-01           1.520400D-02
      1.596000D-01          -3.191000D-03
S   9   1.00
      6.665000D+03          -1.460000D-04
      1.000000D+03          -1.154000D-03
      2.280000D+02          -5.725000D-03
      6.471000D+01          -2.331200D-02
      2.106000D+01          -6.395500D-02
      7.495000D+00          -1.499810D-01
      2.797000D+00          -1.272620D-01
      5.215000D-01           5.445290D-01
      1.596000D-01           5.804960D-01
S   1   1.00
      1.596000D-01           1.000000D+00
S   1   1.00
      0.0469000              1.0000000
P   4   1.00
      9.439000D+00           3.810900D-02
      2.002000D+00           2.094800D-01
      5.456000D-01           5.085570D-01
      1.517000D-01           4.688420D-01
P   1   1.00
      1.517000D-01           1.000000D+00
P   1   1.00
      0.0845842      1.0000000
P   1   1.00
      0.0422921      1.0000000
D   1   1.00
      5.500000D-01           1.0000000
****
H 3
cc-pVDZ
****
H 4
cc-pVDZ
****
H 5
cc-pVDZ
****
H 6
cc-pVDZ
****
O 7
aug-cc-pVDZ
****
H 8
cc-pVDZ
****
$end
--------------------------------------------------------------
 ----------------------------------------------------------------
             Standard Nuclear Orientation (Angstroms)
    I     Atom           X                Y                Z
 ----------------------------------------------------------------
    1      C      -0.6645000000     0.0000000000     1.8394872717
    2      C       0.6645000000    -0.0000000000     1.8394872717
    3      H      -1.1590800000     0.0000000000     0.8771382717
    4      H       1.1590800000    -0.0000000000     0.8771382717
    5      H      -1.1590800000     0.0000000000     2.8018352717
    6      H       1.1590800000    -0.0000000000     2.8018352717
    7      O      -0.0000000000     0.0000000000    -3.1624215941
    8      H      -0.0000000000     0.0000000000    -4.1324215941
 ----------------------------------------------------------------
 Molecular Point Group                 C2v   NOp =  4
 Largest Abelian Subgroup              C2v   NOp =  4
 Nuclear Repulsion Energy =          52.84282358 hartrees
 There are       13 alpha and       13 beta electrons
 Requested basis set is non-standard
 There are 42 shells and 90 basis functions
 Total memory of 95000 MB is distributed as follows: 
   MEM_STATIC is set to 192 MB
   QALLOC/CCMAN JOB total memory use is  94808 MB
 Warning: actual memory use might exceed 95000 MB

 Total QAlloc Memory Limit  95000 MB
 Mega-Array Size       188 MB
 MEM_STATIC part       192 MB

                       Distance Matrix (Angstroms)
             C (  1)   C (  2)   H (  3)   H (  4)   H (  5)   H (  6)
   C (  2)  1.329000
   H (  3)  1.082000  2.061931
   H (  4)  2.061931  1.082000  2.318160
   H (  5)  1.082000  2.061931  1.924697  3.013026
   H (  6)  2.061931  1.082000  3.013026  1.924697  2.318160
   O (  7)  5.045855  5.045855  4.202560  4.202560  6.075840  6.075840
   H (  8)  6.008765  6.008765  5.141902  5.141902  7.030461  7.030461
             O (  7)
   H (  8)  0.970000
 
 A cutoff of  1.0D-14 yielded    865 shell pairs
 There are      3913 function pairs (      4255 Cartesian)
 Smallest overlap matrix eigenvalue = 2.16E-04

 Scale SEOQF with 1.000000e-01/1.000000e-01/1.000000e-01

 Standard Electronic Orientation quadrupole field applied
 Nucleus-field energy     =    -0.0000000162 hartrees
 ================ Generating on-the-fly SAD Guess ================
Attempting to make child job directory: /src/jdavis/qchem.scratch/qchem5374//Frg1/
Attempting to make child job directory: /src/jdavis/qchem.scratch/qchem5374//Frg2/
Attempting to make child job directory: /src/jdavis/qchem.scratch/qchem5374//Frg3/
Creating input file /src/jdavis/qchem.scratch/qchem5374/Frg1.input
using default PutDataFrgm: nothing
calling putenv with: QCSCRATCH=/src/jdavis/qchem.scratch/qchem5374/ 
Spawning Job For Fragment 0
Done Job For Fragment 0
calling putenv with: QCSCRATCH=/src/jdavis/qchem.scratch 
calling putenv with: QCTHREADS=1 
Creating input file /src/jdavis/qchem.scratch/qchem5374/Frg2.input
using default PutDataFrgm: nothing
calling putenv with: QCSCRATCH=/src/jdavis/qchem.scratch/qchem5374/ 
Spawning Job For Fragment 1
Done Job For Fragment 1
calling putenv with: QCSCRATCH=/src/jdavis/qchem.scratch 
calling putenv with: QCTHREADS=1 
Creating input file /src/jdavis/qchem.scratch/qchem5374/Frg3.input
using default PutDataFrgm: nothing
calling putenv with: QCSCRATCH=/src/jdavis/qchem.scratch/qchem5374/ 
Spawning Job For Fragment 2
Done Job For Fragment 2
calling putenv with: QCSCRATCH=/src/jdavis/qchem.scratch 
calling putenv with: QCTHREADS=1 
 Time for running child jobs:  CPU 1.77 s  wall 80.48 s
 ============= Method Specific SAD Guess Constructed =============
 Guess from on-the-fly superposition of atomic densities
 Warning: Energy on first SCF cycle will be non-variational
 A restricted Hartree-Fock SCF calculation will be
 performed using Pulay DIIS extrapolation
 SCF converges when DIIS error is below 1.0E-08
 using 10 threads for integral computing
 -------------------------------------------------------
 OpenMP Integral computing Module                
 Release: version 1.0, May 2013, Q-Chem Inc. Pittsburgh 
 -------------------------------------------------------
 ---------------------------------------
  Cycle       Energy         DIIS Error
 ---------------------------------------
    1    -153.5108923060      5.93E-02
    2    -153.2844473939      1.22E-02
    3    -153.3470823538      1.06E-02
    4    -153.4354611312      6.59E-04
    5    -153.4362381687      1.86E-04
    6    -153.4362894044      3.97E-05
    7    -153.4362923959      1.00E-05
    8    -153.4362927283      2.86E-06
    9    -153.4362927538      4.67E-07
   10    -153.4362927544      6.83E-08
   11    -153.4362927544      1.86E-08
   12    -153.4362927544      6.47E-09 Convergence criterion met
 ---------------------------------------
 SCF time:  CPU 13.25 s  wall 1.33 s
 SCF   energy in the final basis set = -153.43629275
 Total energy in the final basis set = -153.43629275
================================================================================
|                                                                              |
|                                 A D C  M A N                                 |
|                                                                              |
 ------------------------------------------------------------------------------ 
|                                                                              |
| Components:                                                                  |
|                                                                              |
| - libvmm - 1.3-trunk                                                         |
|   Authors:                                                                   |
|   Evgeny Epifanovsky, Ilya Kaliman                                           |
|                                                                              |
| - libtensor - 2.5-trunk                                                      |
|   Authors:                                                                   |
|   Evgeny Epifanovsky, Michael Wormit, Dmitry Zuev, Sam Manzer,               |
|   Ilya Kaliman                                                               |
|                                                                              |
| - libwfa - 1.1-trunk                                                         |
|   Authors:                                                                   |
|   Felix Plasser, Stefanie Mewes (Baeppler), Benjamin Thomitzni,              |
|   Michael Wormit, Feng Chen, Anna I. Krylov, Pavel Pokhilko                  |
|                                                                              |
| - libadc - 1.1-trunk                                                         |
|   Authors:                                                                   |
|   Michael Wormit, Adrian L. Dempwolff, Philipp H. P. Harbach,                |
|   Caroline Krauter, Dirk Rehn, Matthias Schneider, Jan Wenzel                |
|                                                                              |
| - adcman - 2.6-trunk                                                         |
|   Authors:                                                                   |
|   Michael Wormit, Adrian L. Dempwolff, Philipp H. P. Harbach,                |
|   Caroline Krauter, Daniel Lefrancois, Jan-Michael Mewes, Dirk Rehn,         |
|   Matthias Schneider, Jan Wenzel, Andreas Dreuw                              |
|                                                                              |
| Authors of earlier versions of ADCMAN:                                       |
| Andreas Dreuw, Jan Hendrik Starcke, Dirk Rehn, Michael Wormit                |
|                                                                              |
================================================================================

 
 Alpha MOs, Restricted
 -- Occupied --                  
-20.203 -11.129 -11.127  -0.934  -0.908  -0.675  -0.551  -0.460
  1 A1    2 A1    1 B1    3 A1    4 A1    2 B1    5 A1    6 A1                 
 -0.406  -0.270  -0.256  -0.112  -0.112
  3 B1    1 B2    7 A1    2 B2    4 B1                                         
 -- Virtual --                   
  0.161   0.168   0.195   0.196   0.200   0.230   0.258   0.289
  5 B1    8 A1    1 A2    3 B2    9 A1    6 B1   10 A1    2 A2                 
  0.320   0.351   0.385   0.419   0.437   0.443   0.456   0.463
  7 B1   11 A1   12 A1    8 B1   13 A1    4 B2   14 A1    9 B1                 
  0.467   0.471   0.475   0.503   0.527   0.557   0.593   0.655
 15 A1   10 B1    5 B2   11 B1   16 A1    3 A2   17 A1   12 B1                 
  0.727   0.941   0.964   1.044   1.092   1.134   1.168   1.187
 13 B1   18 A1   19 A1   14 B1   20 A1   15 B1   21 A1   22 A1                 
  1.222   1.228   1.245   1.249   1.266   1.279   1.293   1.320
  6 B2   23 A1   16 B1    7 B2    8 B2   17 B1    4 A2   24 A1                 
  1.320   1.393   1.399   1.404   1.542   1.575   1.727   1.732
  5 A2    6 A2    9 B2   18 B1   25 A1   19 B1   10 B2   26 A1                 
  1.734   1.812   1.844   1.985   2.024   2.052   2.074   2.127
 20 B1   21 B1   27 A1    7 A2   28 A1   11 B2   22 B1   12 B2                 
  2.188   2.209   2.290   2.373   2.376   2.441   2.521   2.533
 29 A1   30 A1    8 A2   13 B2   23 B1   24 B1    9 A2   31 A1                 
  2.591   2.673   2.692   2.956   2.968   3.034   3.379   3.454
 32 A1   25 B1   26 B1   33 A1   34 A1   35 A1   27 B1   28 B1                 
  3.926   3.929   3.955   3.955   4.398
 14 B2   29 B1   36 A1   10 A2   37 A1                                         
 
 Beta MOs, Restricted
 -- Occupied --                  
-20.203 -11.129 -11.127  -0.934  -0.908  -0.675  -0.551  -0.460
  1 A1    2 A1    1 B1    3 A1    4 A1    2 B1    5 A1    6 A1                 
 -0.406  -0.270  -0.256  -0.112  -0.112
  3 B1    1 B2    7 A1    2 B2    4 B1                                         
 -- Virtual --                   
  0.161   0.168   0.195   0.196   0.200   0.230   0.258   0.289
  5 B1    8 A1    1 A2    3 B2    9 A1    6 B1   10 A1    2 A2                 
  0.320   0.351   0.385   0.419   0.437   0.443   0.456   0.463
  7 B1   11 A1   12 A1    8 B1   13 A1    4 B2   14 A1    9 B1                 
  0.467   0.471   0.475   0.503   0.527   0.557   0.593   0.655
 15 A1   10 B1    5 B2   11 B1   16 A1    3 A2   17 A1   12 B1                 
  0.727   0.941   0.964   1.044   1.092   1.134   1.168   1.187
 13 B1   18 A1   19 A1   14 B1   20 A1   15 B1   21 A1   22 A1                 
  1.222   1.228   1.245   1.249   1.266   1.279   1.293   1.320
  6 B2   23 A1   16 B1    7 B2    8 B2   17 B1    4 A2   24 A1                 
  1.320   1.393   1.399   1.404   1.542   1.575   1.727   1.732
  5 A2    6 A2    9 B2   18 B1   25 A1   19 B1   10 B2   26 A1                 
  1.734   1.812   1.844   1.985   2.024   2.052   2.074   2.127
 20 B1   21 B1   27 A1    7 A2   28 A1   11 B2   22 B1   12 B2                 
  2.188   2.209   2.290   2.373   2.376   2.441   2.521   2.533
 29 A1   30 A1    8 A2   13 B2   23 B1   24 B1    9 A2   31 A1                 
  2.591   2.673   2.692   2.956   2.968   3.034   3.379   3.454
 32 A1   25 B1   26 B1   33 A1   34 A1   35 A1   27 B1   28 B1                 
  3.926   3.929   3.955   3.955   4.398
 14 B2   29 B1   36 A1   10 A2   37 A1                                         

--------------------------------------------------------------------------------
                                   HF Summary                                   
--------------------------------------------------------------------------------
  Energy:                                                 -153.4362927544 a.u.
  Dip. moment [a.u.]:                  [   0.000000,   -0.000000,    5.258761]
  Total dipole [Debye]:                                              13.366439
  <r^2> [a.u.]:                        [  55.330896,   19.578719,  599.176295]
  Total <r^2> [a.u.]:                                               674.085910
--------------------------------------------------------------------------------

--------------------------------------------------------------------------------
                                 MP(2) Summary                                  
--------------------------------------------------------------------------------
  MP energy contribution:                                   -0.5257323242 a.u.
  Total energy:                                           -153.9620250786 a.u.
  Dip. moment [a.u.]:                  [   0.000000,    0.000000,    5.294835]
  Total dipole [Debye]:                                              13.458130
  <r^2> [a.u.]:                        [  56.295824,   20.277613,  600.353873]
  Total <r^2> [a.u.]:                                               676.927310

  Density matrix analysis:
  ------------------------
  NOs
    Occupation of frontier NOs:
       0.0447   1.9370
    Number of electrons: 26.000000
    Number of unpaired electrons: n_u =  0.71438, n_u,nl =  0.08551
    NO participation ratio (PR_NO): 22.917832
  
  
  Mulliken Population Analysis
  Atom      Charge (e)              h+              e-           Del q
  --------------------------------------------------------------------
   1 C       -0.242870        0.087487       -0.102751       -0.015263
   2 C       -0.242870        0.087487       -0.102751       -0.015263
   3 H        0.164772        0.017825       -0.010163        0.007662
   4 H        0.164772        0.017825       -0.010163        0.007662
   5 H        0.079423        0.018785       -0.010989        0.007796
   6 H        0.079423        0.018785       -0.010989        0.007796
   7 O       -1.036615        0.283734       -0.270633        0.013101
   8 H        0.033966        0.016853       -0.030344       -0.013490
  --------------------------------------------------------------------
  Sum:       -1.000000        0.548782       -0.548782        0.000000
  
  Multipole moment analysis of the density matrix
    Molecular charge:                      -1.000000
    Number of electrons:                   26.000000
      Center of electronic charge [Ang]: [ -0.000000,  -0.000000,  -0.107766]
    Total nuclear charge:                  25.000000
      Center of nuclear charge [Ang]:    [ -0.000000,   0.000000,  -0.000000]
    Dipole moment [D]:                     13.458126
      Cartesian components [D]:          [  0.000000,   0.000000,  13.458126]
    RMS size of the density [Ang]:         2.697984
      Cartesian components [Ang]:        [  0.778668,   0.467329,   2.540550]
  
  Exciton analysis of the difference density matrix
    <r_h> [Ang]:                  [  0.000000,   0.000000,  -0.908548]
    <r_e> [Ang]:                  [ -0.000000,   0.000000,  -0.943333]
    |<r_e - r_h>| [Ang]:            0.034785
    Hole size [Ang]:                2.813398
      Cartesian components [Ang]: [  0.826435,   0.713805,   2.592817]
    Electron size [Ang]:            3.049702
      Cartesian components [Ang]: [  1.084146,   0.930669,   2.694284]
--------------------------------------------------------------------------------
  Starting Davidson for singlet states of irrep B2 ... 
--------------------------------------------------------------------------------
   It NVec Conv  Avg. Norm  Max. Norm  Conv. states           Remark
--------------------------------------------------------------------------------
       100    0  1.547e-01  6.141e-01  0.2704 n n n n n n n n Guess.
    1  110    0  1.693e-02  8.060e-02  0.0902 n n n n n n n n 
    2  120    0  1.209e-02  1.102e-01  0.0886 n n n n n n n n 
    3  130    0  1.550e-02  1.483e-01  0.0886 n n n n n n n n 
    4  140    0  3.639e-03  2.753e-02  0.0886 n n n n n n n n 
    5  150    4  6.103e-04  4.818e-03  0.0886 y y y n n y n n 
    6  160    6  7.443e-05  5.814e-04  0.0886 y y y y y y n n 
    7  170    8  8.010e-06  6.818e-05  0.0886 y y y y y y y n 
    8  180   10  9.908e-07  8.206e-06  0.0886 y y y y y y y y Converged.
--------------------------------------------------------------------------------
  Davidson Summary: 
 ------------------------------------------------------------
  State  0: excitation energy =   0.0886 a.u.   (converged)
  State  1: excitation energy =   0.0997 a.u.   (converged)
  State  2: excitation energy =   0.1015 a.u.   (converged)
  State  3: excitation energy =   0.1470 a.u.   (converged)
  State  4: excitation energy =   0.1743 a.u.   (converged)
  State  5: excitation energy =   0.1747 a.u.   (converged)
  State  6: excitation energy =   0.2320 a.u.   (converged)
  State  7: excitation energy =   0.2608 a.u.   (converged)
  State  8: excitation energy =   0.2649 a.u.   (converged)
  State  9: excitation energy =   0.3088 a.u.   (converged)
 ------------------------------------------------------------


--------------------------------------------------------------------------------
                   State-averaged natural transition orbitals
--------------------------------------------------------------------------------
--------------------------------------------------------------------------------

--------------------------------------------------------------------------------
                             Excited State Summary
--------------------------------------------------------------------------------
--------------------------------------------------------------------------------

  Excited state 1 (singlet, B2)                                    [converged]
  ----------------------------------------------------------------------------
  Term symbol:  1 (1) B2                                    R^2 =  1.86585e-09

  Total energy:                                           -153.8734536987 a.u.
  Excitation energy:                                               2.410150 eV

  Osc. strength:                                                      0.001421
  Trans. dip. moment [a.u.]:           [  -0.000000,   -0.155147,   -0.000000]
  <i|r^2|0> [a.u.]:                    [   0.000000,    0.000000,    0.000000]

  Dip. moment [a.u.]:                  [   0.000000,   -0.000000,   -6.336828]
  Total dipole [Debye]:                                              16.106612
  <r^2> [a.u.]:                        [  78.142414,   25.713059,  602.568687]
  Total <r^2> [a.u.]:                                               706.424160

  V1^2 = 0.8571, V2^2 = 0.1429

  Important amplitudes:
      occ i      occ j       vir a       vir b          v   
    ---------------------------------------------------------
     2 (B2) A               8 (A1) A                 -0.6508
     2 (B2) A   2 (B2) B    8 (A1) A    4 (B2) B     -0.0626
    ---------------------------------------------------------

  Density matrix analysis:
  ------------------------
  NOs
    Occupation of frontier NOs:
       0.9580   0.9951
    Number of electrons: 26.000000
    Number of unpaired electrons: n_u =  2.75662, n_u,nl =  2.12020
    NO participation ratio (PR_NO):  3.915758
  
  
  Mulliken Population Analysis
  Atom      Charge (e)              h+              e-           Del q
  --------------------------------------------------------------------
   1 C       -0.764099        0.037515       -0.558744       -0.521229
   2 C       -0.764099        0.037515       -0.558744       -0.521229
   3 H        0.139140       -0.002313       -0.023318       -0.025631
   4 H        0.139140       -0.002313       -0.023318       -0.025631
   5 H        0.132531        0.029777        0.023330        0.053107
   6 H        0.132531        0.029777        0.023330        0.053107
   7 O       -0.183786        1.404633       -0.551804        0.852829
   8 H        0.168642        0.136973       -0.002297        0.134676
  --------------------------------------------------------------------
  Sum:       -1.000000        1.671563       -1.671563       -0.000000
  
  Multipole moment analysis of the density matrix
    Molecular charge:                      -1.000000
    Number of electrons:                   26.000000
      Center of electronic charge [Ang]: [ -0.000000,   0.000000,   0.128973]
    Total nuclear charge:                  25.000000
      Center of nuclear charge [Ang]:    [ -0.000000,   0.000000,  -0.000000]
    Dipole moment [D]:                     16.106607
      Cartesian components [D]:          [  0.000000,  -0.000000, -16.106607]
    RMS size of the density [Ang]:         2.755319
      Cartesian components [Ang]:        [  0.917398,   0.526249,   2.544254]
  
  Exciton analysis of the difference density matrix
    <r_h> [Ang]:                  [ -0.000000,   0.000000,  -2.817119]
    <r_e> [Ang]:                  [ -0.000000,   0.000000,   0.865189]
    |<r_e - r_h>| [Ang]:            3.682308
    Hole size [Ang]:                2.032044
      Cartesian components [Ang]: [  0.828249,   0.880615,   1.633317]
    Electron size [Ang]:            4.032154
      Cartesian components [Ang]: [  2.084669,   1.298482,   3.197869]

  Transition density matrix analysis:
  -----------------------------------
  
  CT numbers (Mulliken)
    omega =     0.8417
    <Phe> =    -0.0002
  
  Exciton analysis of the transition density matrix
    Trans. dipole moment [D]:             0.197172
      Cartesian components [D]:         [ -0.000000,  -0.197172,  -0.000000]
    <r_h> [Ang]:                        [ -0.000000,   0.000000,  -3.197352]
    <r_e> [Ang]:                        [ -0.000000,   0.000000,   3.008982]
    |<r_e - r_h>| [Ang]:                  6.206334
    Hole size [Ang]:                      1.088812
      Cartesian components [Ang]:       [  0.484790,   0.839619,   0.495511]
    Electron size [Ang]:                  3.528976
      Cartesian components [Ang]:       [  2.596617,   1.566213,   1.805055]
    RMS electron-hole separation [Ang]:   7.221927
      Cartesian components [Ang]:       [  2.641384,   1.776479,   6.482549]
    Covariance(r_h, r_e) [Ang^2]:         0.000765
    Correlation coefficient:              0.000199
    Center-of-mass size [Ang]:            1.846667
      Cartesian components [Ang]:       [  1.320793,   0.888832,   0.935768]

  Decomposition into state-averaged NTOs
    H- 0 -> L+ 0: -0.6057 ( 73.4%)
    H- 0 -> L+ 6:  0.1951 (  7.6%)
    H- 0 -> L+ 7: -0.0929 (  1.7%)
                   omega =  84.2%
  ----------------------------------------------------------------------------


  Excited state 2 (singlet, B2)                                    [converged]
  ----------------------------------------------------------------------------
  Term symbol:  2 (1) B2                                    R^2 =  1.81296e-09

  Total energy:                                           -153.8623137204 a.u.
  Excitation energy:                                               2.713284 eV

  Osc. strength:                                                      0.000556
  Trans. dip. moment [a.u.]:           [  -0.000000,    0.091481,    0.000000]
  <i|r^2|0> [a.u.]:                    [   0.000000,   -0.000000,    0.000000]

  Dip. moment [a.u.]:                  [   0.000000,   -0.000000,   -4.220304]
  Total dipole [Debye]:                                              10.726944
  <r^2> [a.u.]:                        [  67.931310,   31.919824,  576.895107]
  Total <r^2> [a.u.]:                                               676.746241

  V1^2 = 0.8557, V2^2 = 0.1443

  Important amplitudes:
      occ i      occ j       vir a       vir b          v   
    ---------------------------------------------------------
     4 (B1) A               1 (A2) A                  0.6313
     4 (B1) A               2 (A2) A                 -0.1617
    ---------------------------------------------------------

  Density matrix analysis:
  ------------------------
  NOs
    Occupation of frontier NOs:
       0.9637   0.9913
    Number of electrons: 26.000000
    Number of unpaired electrons: n_u =  2.75078, n_u,nl =  2.11499
    NO participation ratio (PR_NO):  3.895249
  
  
  Mulliken Population Analysis
  Atom      Charge (e)              h+              e-           Del q
  --------------------------------------------------------------------
   1 C       -0.685882        0.079095       -0.522106       -0.443011
   2 C       -0.685882        0.079095       -0.522106       -0.443011
   3 H        0.118369        0.001622       -0.048025       -0.046403
   4 H        0.118369        0.001622       -0.048025       -0.046403
   5 H        0.068220        0.004100       -0.015304       -0.011203
   6 H        0.068220        0.004100       -0.015304       -0.011203
   7 O       -0.142000        1.397725       -0.503109        0.894616
   8 H        0.140585        0.128767       -0.022149        0.106619
  --------------------------------------------------------------------
  Sum:       -1.000000        1.696128       -1.696128        0.000000
  
  Multipole moment analysis of the density matrix
    Molecular charge:                      -1.000000
    Number of electrons:                   26.000000
      Center of electronic charge [Ang]: [ -0.000000,   0.000000,   0.085896]
    Total nuclear charge:                  25.000000
      Center of nuclear charge [Ang]:    [ -0.000000,   0.000000,  -0.000000]
    Dipole moment [D]:                     10.726941
      Cartesian components [D]:          [  0.000000,  -0.000000, -10.726941]
    RMS size of the density [Ang]:         2.698407
      Cartesian components [Ang]:        [  0.855361,   0.586333,   2.491179]
  
  Exciton analysis of the difference density matrix
    <r_h> [Ang]:                  [ -0.000000,   0.000000,  -2.723561]
    <r_e> [Ang]:                  [ -0.000000,   0.000000,   0.245080]
    |<r_e - r_h>| [Ang]:            2.968640
    Hole size [Ang]:                2.079005
      Cartesian components [Ang]: [  0.914899,   0.787936,   1.692447]
    Electron size [Ang]:            3.413222
      Cartesian components [Ang]: [  1.660736,   1.594665,   2.519739]

  Transition density matrix analysis:
  -----------------------------------
  
  CT numbers (Mulliken)
    omega =     0.8341
    <Phe> =     0.0000
  
  Exciton analysis of the transition density matrix
    Trans. dipole moment [D]:             0.116261
      Cartesian components [D]:         [ -0.000000,   0.116261,   0.000000]
    <r_h> [Ang]:                        [ -0.000000,   0.000000,  -3.197532]
    <r_e> [Ang]:                        [ -0.000000,   0.000000,   1.834484]
    |<r_e - r_h>| [Ang]:                  5.032016
    Hole size [Ang]:                      1.089414
      Cartesian components [Ang]:       [  0.838615,   0.487388,   0.495985]
    Electron size [Ang]:                  3.039646
      Cartesian components [Ang]:       [  2.027055,   1.952803,   1.147628]
    RMS electron-hole separation [Ang]:   5.978386
      Cartesian components [Ang]:       [  2.192348,   2.012562,   5.185007]
    Covariance(r_h, r_e) [Ang^2]:         0.003179
    Correlation coefficient:              0.000960
    Center-of-mass size [Ang]:            1.614979
      Cartesian components [Ang]:       [  1.097505,   1.006426,   0.625097]

  Decomposition into state-averaged NTOs
    H- 1 -> L+ 5:  0.4972 ( 49.4%)
    H- 1 -> L+ 8: -0.4094 ( 33.5%)
                   omega =  83.4%
  ----------------------------------------------------------------------------


  Excited state 3 (singlet, B2)                                    [converged]
  ----------------------------------------------------------------------------
  Term symbol:  3 (1) B2                                    R^2 =  8.14176e-09

  Total energy:                                           -153.8604762756 a.u.
  Excitation energy:                                               2.763283 eV

  Osc. strength:                                                      0.011373
  Trans. dip. moment [a.u.]:           [   0.000000,    0.409870,    0.000000]
  <i|r^2|0> [a.u.]:                    [   0.000000,    0.000000,   -0.000000]

  Dip. moment [a.u.]:                  [   0.000000,    0.000000,   -2.613019]
  Total dipole [Debye]:                                               6.641633
  <r^2> [a.u.]:                        [  73.740642,   25.857292,  585.656552]
  Total <r^2> [a.u.]:                                               685.254486

  V1^2 = 0.8695, V2^2 = 0.1305

  Important amplitudes:
      occ i      occ j       vir a       vir b          v   
    ---------------------------------------------------------
     2 (B2) A               9 (A1) A                  0.6058
     2 (B2) A              10 (A1) A                 -0.2281
    ---------------------------------------------------------

  Density matrix analysis:
  ------------------------
  NOs
    Occupation of frontier NOs:
       0.9650   0.9900
    Number of electrons: 26.000000
    Number of unpaired electrons: n_u =  2.75468, n_u,nl =  2.11954
    NO participation ratio (PR_NO):  3.904210
  
  
  Mulliken Population Analysis
  Atom      Charge (e)              h+              e-           Del q
  --------------------------------------------------------------------
   1 C       -0.734262        0.013937       -0.505328       -0.491391
   2 C       -0.734262        0.013937       -0.505328       -0.491391
   3 H        0.155711        0.000460       -0.009520       -0.009061
   4 H        0.155711        0.000460       -0.009520       -0.009061
   5 H        0.076200        0.005498       -0.008722       -0.003223
   6 H        0.076200        0.005498       -0.008722       -0.003223
   7 O       -0.176825        1.390044       -0.530254        0.859790
   8 H        0.181526        0.129012        0.018549        0.147560
  --------------------------------------------------------------------
  Sum:       -1.000000        1.558845       -1.558845       -0.000000
  
  Multipole moment analysis of the density matrix
    Molecular charge:                      -1.000000
    Number of electrons:                   26.000000
      Center of electronic charge [Ang]: [ -0.000000,  -0.000000,   0.053183]
    Total nuclear charge:                  25.000000
      Center of nuclear charge [Ang]:    [ -0.000000,   0.000000,  -0.000000]
    Dipole moment [D]:                     6.641631
      Cartesian components [D]:          [  0.000000,   0.000000,  -6.641631]
    RMS size of the density [Ang]:         2.716171
      Cartesian components [Ang]:        [  0.891185,   0.527723,   2.510953]
  
  Exciton analysis of the difference density matrix
    <r_h> [Ang]:                  [ -0.000000,   0.000000,  -3.085180]
    <r_e> [Ang]:                  [ -0.000000,  -0.000000,  -0.400721]
    |<r_e - r_h>| [Ang]:            2.684459
    Hole size [Ang]:                1.668228
      Cartesian components [Ang]: [  0.806338,   0.897732,   1.151902]
    Electron size [Ang]:            3.692780
      Cartesian components [Ang]: [  1.945236,   1.344711,   2.836271]

  Transition density matrix analysis:
  -----------------------------------
  
  CT numbers (Mulliken)
    omega =     0.8537
    <Phe> =    -0.0024
  
  Exciton analysis of the transition density matrix
    Trans. dipole moment [D]:             0.520893
      Cartesian components [D]:         [  0.000000,   0.520893,   0.000000]
    <r_h> [Ang]:                        [ -0.000000,   0.000000,  -3.196921]
    <r_e> [Ang]:                        [ -0.000000,  -0.000000,   0.936350]
    |<r_e - r_h>| [Ang]:                  4.133271
    Hole size [Ang]:                      1.086127
      Cartesian components [Ang]:       [  0.486082,   0.836008,   0.494456]
    Electron size [Ang]:                  3.770566
      Cartesian components [Ang]:       [  2.337048,   1.577872,   2.503137]
    RMS electron-hole separation [Ang]:   5.698794
      Cartesian components [Ang]:       [  2.386913,   1.784225,   4.857514]
    Covariance(r_h, r_e) [Ang^2]:         0.002258
    Correlation coefficient:              0.000551
    Center-of-mass size [Ang]:            1.962228
      Cartesian components [Ang]:       [  1.193607,   0.893549,   1.275622]

  Decomposition into state-averaged NTOs
    H- 0 -> L+ 3: -0.3976 ( 31.6%)
    H- 0 -> L+ 2: -0.3617 ( 26.2%)
    H- 0 -> L+ 6:  0.3147 ( 19.8%)
    H- 0 -> L+ 1: -0.1232 (  3.0%)
    H- 0 -> L+ 7: -0.1201 (  2.9%)
    H- 0 -> L+ 0:  0.0837 (  1.4%)
                   omega =  85.4%
  ----------------------------------------------------------------------------


  Excited state 4 (singlet, B2)                                    [converged]
  ----------------------------------------------------------------------------
  Term symbol:  4 (1) B2                                    R^2 =  1.36716e-08

  Total energy:                                           -153.8150095096 a.u.
  Excitation energy:                                               4.000497 eV

  Osc. strength:                                                      0.009915
  Trans. dip. moment [a.u.]:           [  -0.000000,   -0.318056,    0.000000]
  <i|r^2|0> [a.u.]:                    [   0.000000,    0.000000,   -0.000000]

  Dip. moment [a.u.]:                  [   0.000000,   -0.000000,   -3.422879]
  Total dipole [Debye]:                                               8.700092
  <r^2> [a.u.]:                        [  69.929870,   28.001634,  580.660462]
  Total <r^2> [a.u.]:                                               678.591966

  V1^2 = 0.8671, V2^2 = 0.1329

  Important amplitudes:
      occ i      occ j       vir a       vir b          v   
    ---------------------------------------------------------
     2 (B2) A              10 (A1) A                  0.5937
     2 (B2) A               9 (A1) A                  0.2420
    ---------------------------------------------------------

  Density matrix analysis:
  ------------------------
  NOs
    Occupation of frontier NOs:
       0.9598   0.9937
    Number of electrons: 26.000000
    Number of unpaired electrons: n_u =  2.74872, n_u,nl =  2.11607
    NO participation ratio (PR_NO):  3.894291
  
  
  Mulliken Population Analysis
  Atom      Charge (e)              h+              e-           Del q
  --------------------------------------------------------------------
   1 C       -0.746645        0.037717       -0.541491       -0.503774
   2 C       -0.746645        0.037717       -0.541491       -0.503774
   3 H        0.158129       -0.000706       -0.005936       -0.006642
   4 H        0.158129       -0.000706       -0.005936       -0.006642
   5 H        0.109451        0.002623        0.027405        0.030027
   6 H        0.109451        0.002623        0.027405        0.030027
   7 O       -0.181755        1.392144       -0.537283        0.854861
   8 H        0.139884        0.126103       -0.020185        0.105918
  --------------------------------------------------------------------
  Sum:       -1.000000        1.597514       -1.597514       -0.000000
  
  Multipole moment analysis of the density matrix
    Molecular charge:                      -1.000000
    Number of electrons:                   26.000000
      Center of electronic charge [Ang]: [ -0.000000,   0.000000,   0.069666]
    Total nuclear charge:                  25.000000
      Center of nuclear charge [Ang]:    [ -0.000000,   0.000000,  -0.000000]
    Dipole moment [D]:                     8.700089
      Cartesian components [D]:          [  0.000000,  -0.000000,  -8.700089]
    RMS size of the density [Ang]:         2.702555
      Cartesian components [Ang]:        [  0.867852,   0.549169,   2.499810]
  
  Exciton analysis of the difference density matrix
    <r_h> [Ang]:                  [ -0.000000,   0.000000,  -2.971051]
    <r_e> [Ang]:                  [ -0.000000,   0.000000,  -0.083304]
    |<r_e - r_h>| [Ang]:            2.887747
    Hole size [Ang]:                1.812796
      Cartesian components [Ang]: [  0.812837,   0.898228,   1.348596]
    Electron size [Ang]:            3.521112
      Cartesian components [Ang]: [  1.746602,   1.469952,   2.680831]

  Transition density matrix analysis:
  -----------------------------------
  
  CT numbers (Mulliken)
    omega =     0.8512
    <Phe> =    -0.0021
  
  Exciton analysis of the transition density matrix
    Trans. dipole moment [D]:             0.404208
      Cartesian components [D]:         [ -0.000000,  -0.404208,   0.000000]
    <r_h> [Ang]:                        [ -0.000000,   0.000000,  -3.196786]
    <r_e> [Ang]:                        [ -0.000000,   0.000000,   1.377876]
    |<r_e - r_h>| [Ang]:                  4.574662
    Hole size [Ang]:                      1.086309
      Cartesian components [Ang]:       [  0.483542,   0.837420,   0.494956]
    Electron size [Ang]:                  3.349563
      Cartesian components [Ang]:       [  2.079558,   1.751572,   1.956274]
    RMS electron-hole separation [Ang]:   5.772371
      Cartesian components [Ang]:       [  2.134919,   1.939371,   5.000123]
    Covariance(r_h, r_e) [Ang^2]:         0.003453
    Correlation coefficient:              0.000949
    Center-of-mass size [Ang]:            1.761146
      Cartesian components [Ang]:       [  1.067575,   0.971775,   1.008748]

  Decomposition into state-averaged NTOs
    H- 0 -> L+ 6:  0.5100 ( 52.0%)
    H- 0 -> L+ 2:  0.3223 ( 20.8%)
    H- 0 -> L+ 0:  0.1906 (  7.3%)
    H- 0 -> L+ 3:  0.1154 (  2.7%)
    H- 0 -> L+ 1:  0.1016 (  2.1%)
                   omega =  85.1%
  ----------------------------------------------------------------------------


  Excited state 5 (singlet, B2)                                    [converged]
  ----------------------------------------------------------------------------
  Term symbol:  5 (1) B2                                    R^2 =  3.73564e-08

  Total energy:                                           -153.7876865590 a.u.
  Excitation energy:                                               4.743992 eV

  Osc. strength:                                                      0.062802
  Trans. dip. moment [a.u.]:           [  -0.000000,   -0.735081,    0.000000]
  <i|r^2|0> [a.u.]:                    [   0.000000,   -0.000000,   -0.000000]

  Dip. moment [a.u.]:                  [  -0.000000,    0.000000,    5.535023]
  Total dipole [Debye]:                                              14.068627
  <r^2> [a.u.]:                        [  60.256943,   22.613748,  616.650003]
  Total <r^2> [a.u.]:                                               699.520694

  V1^2 = 0.9037, V2^2 = 0.0963

  Important amplitudes:
      occ i      occ j       vir a       vir b          v   
    ---------------------------------------------------------
     2 (B2) A              12 (A1) A                  0.4656
     2 (B2) A              11 (A1) A                 -0.4413
    ---------------------------------------------------------

  Density matrix analysis:
  ------------------------
  NOs
    Occupation of frontier NOs:
       0.9737   0.9906
    Number of electrons: 26.000000
    Number of unpaired electrons: n_u =  2.71459, n_u,nl =  2.10255
    NO participation ratio (PR_NO):  3.765910
  
  
  Mulliken Population Analysis
  Atom      Charge (e)              h+              e-           Del q
  --------------------------------------------------------------------
   1 C       -0.240987        0.006420       -0.004536        0.001884
   2 C       -0.240987        0.006420       -0.004536        0.001884
   3 H        0.121051        0.001396       -0.045117       -0.043721
   4 H        0.121051        0.001396       -0.045117       -0.043721
   5 H        0.080544        0.000253        0.000867        0.001120
   6 H        0.080544        0.000253        0.000867        0.001120
   7 O       -1.663270        1.241301       -1.867955       -0.626655
   8 H        0.742054        0.165768        0.542320        0.708088
  --------------------------------------------------------------------
  Sum:       -1.000000        1.423206       -1.423206       -0.000000
  
  Multipole moment analysis of the density matrix
    Molecular charge:                      -1.000000
    Number of electrons:                   26.000000
      Center of electronic charge [Ang]: [  0.000000,  -0.000000,  -0.112654]
    Total nuclear charge:                  25.000000
      Center of nuclear charge [Ang]:    [ -0.000000,   0.000000,  -0.000000]
    Dipole moment [D]:                     14.068623
      Cartesian components [D]:          [ -0.000000,   0.000000,  14.068623]
    RMS size of the density [Ang]:         2.742513
      Cartesian components [Ang]:        [  0.805597,   0.493515,   2.574652]
  
  Exciton analysis of the difference density matrix
    <r_h> [Ang]:                  [ -0.000000,   0.000000,  -3.189568]
    <r_e> [Ang]:                  [  0.000000,  -0.000000,  -3.278875]
    |<r_e - r_h>| [Ang]:            0.089307
    Hole size [Ang]:                1.460720
      Cartesian components [Ang]: [  0.753248,   0.889612,   0.880290]
    Electron size [Ang]:            2.449791
      Cartesian components [Ang]: [  1.160503,   1.118510,   1.844897]

  Transition density matrix analysis:
  -----------------------------------
  
  CT numbers (Mulliken)
    omega =     0.8841
    <Phe> =    -0.0144
  
  Exciton analysis of the transition density matrix
    Trans. dipole moment [D]:             0.934195
      Cartesian components [D]:         [ -0.000000,  -0.934195,   0.000000]
    <r_h> [Ang]:                        [ -0.000000,   0.000000,  -3.197921]
    <r_e> [Ang]:                        [  0.000000,  -0.000000,  -3.452599]
    |<r_e - r_h>| [Ang]:                  0.254678
    Hole size [Ang]:                      1.075239
      Cartesian components [Ang]:       [  0.482582,   0.826881,   0.489411]
    Electron size [Ang]:                  2.702815
      Cartesian components [Ang]:       [  1.276663,   1.244040,   2.031675]
    RMS electron-hole separation [Ang]:   2.918043
      Cartesian components [Ang]:       [  1.364477,   1.491032,   2.104756]
    Covariance(r_h, r_e) [Ang^2]:         0.005618
    Correlation coefficient:              0.001933
    Center-of-mass size [Ang]:            1.455385
      Cartesian components [Ang]:       [  0.682588,   0.748258,   1.045146]

  Decomposition into state-averaged NTOs
    H- 0 -> L+ 1:  0.5787 ( 67.0%)
    H- 0 -> L+ 2: -0.2811 ( 15.8%)
    H- 0 -> L+ 3:  0.1303 (  3.4%)
                   omega =  88.4%
  ----------------------------------------------------------------------------


  Excited state 6 (singlet, B2)                                    [converged]
  ----------------------------------------------------------------------------
  Term symbol:  6 (1) B2                                    R^2 =  7.97211e-09

  Total energy:                                           -153.7873280099 a.u.
  Excitation energy:                                               4.753749 eV

  Osc. strength:                                                      0.002228
  Trans. dip. moment [a.u.]:           [   0.000000,    0.138300,   -0.000000]
  <i|r^2|0> [a.u.]:                    [   0.000000,   -0.000000,   -0.000000]

  Dip. moment [a.u.]:                  [   0.000000,    0.000000,   -4.150845]
  Total dipole [Debye]:                                              10.550398
  <r^2> [a.u.]:                        [  69.914802,   33.953579,  578.060477]
  Total <r^2> [a.u.]:                                               681.928857

  V1^2 = 0.8514, V2^2 = 0.1486

  Important amplitudes:
      occ i      occ j       vir a       vir b          v   
    ---------------------------------------------------------
     4 (B1) A               2 (A2) A                  0.6236
     4 (B1) A               1 (A2) A                  0.1698
    ---------------------------------------------------------

  Density matrix analysis:
  ------------------------
  NOs
    Occupation of frontier NOs:
       0.9667   0.9854
    Number of electrons: 26.000000
    Number of unpaired electrons: n_u =  2.76258, n_u,nl =  2.11873
    NO participation ratio (PR_NO):  3.938560
  
  
  Mulliken Population Analysis
  Atom      Charge (e)              h+              e-           Del q
  --------------------------------------------------------------------
   1 C       -0.653004        0.098983       -0.509117       -0.410134
   2 C       -0.653004        0.098983       -0.509117       -0.410134
   3 H        0.104668        0.000668       -0.060772       -0.060104
   4 H        0.104668        0.000668       -0.060772       -0.060104
   5 H        0.052911        0.003087       -0.029600       -0.026513
   6 H        0.052911        0.003087       -0.029600       -0.026513
   7 O       -0.153748        1.382613       -0.499745        0.882867
   8 H        0.144599        0.132130       -0.021496        0.110634
  --------------------------------------------------------------------
  Sum:       -1.000000        1.720218       -1.720218        0.000000
  
  Multipole moment analysis of the density matrix
    Molecular charge:                      -1.000000
    Number of electrons:                   26.000000
      Center of electronic charge [Ang]: [ -0.000000,  -0.000000,   0.084482]
    Total nuclear charge:                  25.000000
      Center of nuclear charge [Ang]:    [ -0.000000,   0.000000,  -0.000000]
    Dipole moment [D]:                     10.550394
      Cartesian components [D]:          [  0.000000,   0.000000, -10.550394]
    RMS size of the density [Ang]:         2.708775
      Cartesian components [Ang]:        [  0.867759,   0.604724,   2.493745]
  
  Exciton analysis of the difference density matrix
    <r_h> [Ang]:                  [ -0.000000,   0.000000,  -2.625600]
    <r_e> [Ang]:                  [ -0.000000,  -0.000000,   0.280099]
    |<r_e - r_h>| [Ang]:            2.905700
    Hole size [Ang]:                2.151958
      Cartesian components [Ang]: [  0.905567,   0.765092,   1.795970]
    Electron size [Ang]:            3.501490
      Cartesian components [Ang]: [  1.742710,   1.676792,   2.532146]

  Transition density matrix analysis:
  -----------------------------------
  
  CT numbers (Mulliken)
    omega =     0.8287
    <Phe> =    -0.0001
  
  Exciton analysis of the transition density matrix
    Trans. dipole moment [D]:             0.175761
      Cartesian components [D]:         [  0.000000,   0.175761,  -0.000000]
    <r_h> [Ang]:                        [ -0.000000,   0.000000,  -3.197525]
    <r_e> [Ang]:                        [ -0.000000,  -0.000000,   1.792557]
    |<r_e - r_h>| [Ang]:                  4.990082
    Hole size [Ang]:                      1.088947
      Cartesian components [Ang]:       [  0.837334,   0.488726,   0.495806]
    Electron size [Ang]:                  3.287703
      Cartesian components [Ang]:       [  2.154082,   2.099910,   1.326387]
    RMS electron-hole separation [Ang]:   6.073722
      Cartesian components [Ang]:       [  2.309985,   2.155931,   5.187102]
    Covariance(r_h, r_e) [Ang^2]:         0.002807
    Correlation coefficient:              0.000784
    Center-of-mass size [Ang]:            1.732081
      Cartesian components [Ang]:       [  1.156110,   1.078067,   0.708015]

  Decomposition into state-averaged NTOs
    H- 1 -> L+ 8:  0.4864 ( 47.3%)
    H- 1 -> L+ 5:  0.4173 ( 34.8%)
                   omega =  82.9%
  ----------------------------------------------------------------------------


  Excited state 7 (singlet, B2)                                    [converged]
  ----------------------------------------------------------------------------
  Term symbol:  7 (1) B2                                    R^2 =  1.16846e-07

  Total energy:                                           -153.7300301674 a.u.
  Excitation energy:                                               6.312903 eV

  Osc. strength:                                                      0.021925
  Trans. dip. moment [a.u.]:           [  -0.000000,   -0.376509,    0.000000]
  <i|r^2|0> [a.u.]:                    [  -0.000000,    0.000000,    0.000000]

  Dip. moment [a.u.]:                  [  -0.000000,   -0.000000,   -2.200367]
  Total dipole [Debye]:                                               5.592776
  <r^2> [a.u.]:                        [  60.056083,   25.334283,  581.779065]
  Total <r^2> [a.u.]:                                               667.169431

  V1^2 = 0.8740, V2^2 = 0.1260

  Important amplitudes:
      occ i      occ j       vir a       vir b          v   
    ---------------------------------------------------------
     2 (B2) A              11 (A1) A                  0.4678
     2 (B2) A              12 (A1) A                  0.3661
    ---------------------------------------------------------

  Density matrix analysis:
  ------------------------
  NOs
    Occupation of frontier NOs:
       0.9618   0.9891
    Number of electrons: 26.000000
    Number of unpaired electrons: n_u =  2.74237, n_u,nl =  2.11374
    NO participation ratio (PR_NO):  3.888087
  
  
  Mulliken Population Analysis
  Atom      Charge (e)              h+              e-           Del q
  --------------------------------------------------------------------
   1 C       -0.337346        0.051069       -0.145545       -0.094476
   2 C       -0.337346        0.051069       -0.145545       -0.094476
   3 H        0.039962        0.003167       -0.127976       -0.124810
   4 H        0.039962        0.003167       -0.127976       -0.124810
   5 H       -0.044314        0.005479       -0.129216       -0.123738
   6 H       -0.044314        0.005479       -0.129216       -0.123738
   7 O       -0.347492        1.355865       -0.666741        0.689123
   8 H        0.030890        0.114282       -0.117358       -0.003076
  --------------------------------------------------------------------
  Sum:       -1.000000        1.589574       -1.589574       -0.000000
  
  Multipole moment analysis of the density matrix
    Molecular charge:                      -1.000000
    Number of electrons:                   26.000000
      Center of electronic charge [Ang]: [  0.000000,   0.000000,   0.044784]
    Total nuclear charge:                  25.000000
      Center of nuclear charge [Ang]:    [ -0.000000,   0.000000,  -0.000000]
    Dipole moment [D]:                     5.592774
      Cartesian components [D]:          [ -0.000000,  -0.000000,  -5.592774]
    RMS size of the density [Ang]:         2.680229
      Cartesian components [Ang]:        [  0.804253,   0.522359,   2.502788]
  
  Exciton analysis of the difference density matrix
    <r_h> [Ang]:                  [ -0.000000,   0.000000,  -2.859211]
    <r_e> [Ang]:                  [  0.000000,   0.000000,  -0.364021]
    |<r_e - r_h>| [Ang]:            2.495191
    Hole size [Ang]:                1.932307
      Cartesian components [Ang]: [  0.804819,   0.891791,   1.513534]
    Electron size [Ang]:            3.171338
      Cartesian components [Ang]: [  1.144623,   1.298501,   2.657276]

  Transition density matrix analysis:
  -----------------------------------
  
  CT numbers (Mulliken)
    omega =     0.8562
    <Phe> =    -0.0072
  
  Exciton analysis of the transition density matrix
    Trans. dipole moment [D]:             0.478495
      Cartesian components [D]:         [ -0.000000,  -0.478495,   0.000000]
    <r_h> [Ang]:                        [ -0.000000,   0.000000,  -3.196366]
    <r_e> [Ang]:                        [  0.000000,   0.000000,   0.689322]
    |<r_e - r_h>| [Ang]:                  3.885688
    Hole size [Ang]:                      1.083216
      Cartesian components [Ang]:       [  0.481995,   0.834638,   0.494385]
    Electron size [Ang]:                  3.049381
      Cartesian components [Ang]:       [  1.229383,   1.508411,   2.347773]
    RMS electron-hole separation [Ang]:   5.056030
      Cartesian components [Ang]:       [  1.320311,   1.721759,   4.566811]
    Covariance(r_h, r_e) [Ang^2]:         0.003606
    Correlation coefficient:              0.001092
    Center-of-mass size [Ang]:            1.618587
      Cartesian components [Ang]:       [  0.660338,   0.863046,   1.199553]

  Decomposition into state-averaged NTOs
    H- 0 -> L+ 3: -0.4094 ( 33.5%)
    H- 0 -> L+ 2:  0.3367 ( 22.7%)
    H- 0 -> L+ 7: -0.2532 ( 12.8%)
    H- 0 -> L+ 1:  0.2363 ( 11.2%)
    H- 0 -> L+ 6: -0.1584 (  5.0%)
                   omega =  85.6%
  ----------------------------------------------------------------------------


  Excited state 8 (singlet, B2)                                    [converged]
  ----------------------------------------------------------------------------
  Term symbol:  8 (1) B2                                    R^2 =  5.54896e-06

  Total energy:                                           -153.7012182098 a.u.
  Excitation energy:                                               7.096916 eV

  Osc. strength:                                                      0.000613
  Trans. dip. moment [a.u.]:           [  -0.000000,    0.059400,    0.000000]
  <i|r^2|0> [a.u.]:                    [  -0.000000,   -0.000000,    0.000000]

  Dip. moment [a.u.]:                  [  -0.000000,    0.000000,   -4.197802]
  Total dipole [Debye]:                                              10.669751
  <r^2> [a.u.]:                        [  64.337830,   46.266914,  579.755605]
  Total <r^2> [a.u.]:                                               690.360349

  V1^2 = 0.8674, V2^2 = 0.1326

  Important amplitudes:
      occ i      occ j       vir a       vir b          v   
    ---------------------------------------------------------
     7 (A1) A               3 (B2) A                 -0.6555
     7 (A1) A   2 (B2) B    3 (B2) A    4 (B2) B     -0.0521
    ---------------------------------------------------------

  Density matrix analysis:
  ------------------------
  NOs
    Occupation of frontier NOs:
       0.9753   0.9971
    Number of electrons: 26.000000
    Number of unpaired electrons: n_u =  2.79313, n_u,nl =  2.13319
    NO participation ratio (PR_NO):  3.937960
  
  
  Mulliken Population Analysis
  Atom      Charge (e)              h+              e-           Del q
  --------------------------------------------------------------------
   1 C       -0.701672        0.036843       -0.495645       -0.458801
   2 C       -0.701672        0.036843       -0.495645       -0.458801
   3 H        0.124636       -0.002551       -0.037585       -0.040136
   4 H        0.124636       -0.002551       -0.037585       -0.040136
   5 H        0.079274        0.002467       -0.002617       -0.000149
   6 H        0.079274        0.002467       -0.002617       -0.000149
   7 O       -0.332042        1.226760       -0.522187        0.704573
   8 H        0.327565        0.310789       -0.017191        0.293599
  --------------------------------------------------------------------
  Sum:       -1.000000        1.611069       -1.611069       -0.000000
  
  Multipole moment analysis of the density matrix
    Molecular charge:                      -1.000000
    Number of electrons:                   26.000000
      Center of electronic charge [Ang]: [  0.000000,  -0.000000,   0.085438]
    Total nuclear charge:                  25.000000
      Center of nuclear charge [Ang]:    [ -0.000000,   0.000000,  -0.000000]
    Dipole moment [D]:                     10.669748
      Cartesian components [D]:          [ -0.000000,   0.000000, -10.669748]
    RMS size of the density [Ang]:         2.725455
      Cartesian components [Ang]:        [  0.832430,   0.705911,   2.497370]
  
  Exciton analysis of the difference density matrix
    <r_h> [Ang]:                  [ -0.000000,   0.000000,  -3.001521]
    <r_e> [Ang]:                  [  0.000000,  -0.000000,   0.116463]
    |<r_e - r_h>| [Ang]:            3.117984
    Hole size [Ang]:                1.773617
      Cartesian components [Ang]: [  0.791461,   0.769717,   1.388108]
    Electron size [Ang]:            3.804753
      Cartesian components [Ang]: [  1.422756,   2.260487,   2.709633]

  Transition density matrix analysis:
  -----------------------------------
  
  CT numbers (Mulliken)
    omega =     0.8497
    <Phe> =     0.0001
  
  Exciton analysis of the transition density matrix
    Trans. dipole moment [D]:             0.075489
      Cartesian components [D]:         [ -0.000000,   0.075489,   0.000000]
    <r_h> [Ang]:                        [ -0.000000,   0.000000,  -3.242784]
    <r_e> [Ang]:                        [  0.000000,  -0.000000,   1.819738]
    |<r_e - r_h>| [Ang]:                  5.062522
    Hole size [Ang]:                      1.014012
      Cartesian components [Ang]:       [  0.421012,   0.420984,   0.820818]
    Electron size [Ang]:                  3.652234
      Cartesian components [Ang]:       [  1.666644,   2.803222,   1.644098]
    RMS electron-hole separation [Ang]:   6.324631
      Cartesian components [Ang]:       [  1.719677,   2.835522,   5.385488]
    Covariance(r_h, r_e) [Ang^2]:        -0.002394
    Correlation coefficient:             -0.000647
    Center-of-mass size [Ang]:            1.894878
      Cartesian components [Ang]:       [  0.859159,   1.416897,   0.919137]

  Decomposition into state-averaged NTOs
    H- 3 -> L+ 4:  0.6516 ( 84.9%)
                   omega =  85.0%
  ----------------------------------------------------------------------------


  Excited state 9 (singlet, B2)                                    [converged]
  ----------------------------------------------------------------------------
  Term symbol:  9 (1) B2                                    R^2 =  1.40452e-07

  Total energy:                                           -153.6971625070 a.u.
  Excitation energy:                                               7.207277 eV

  Osc. strength:                                                      0.085388
  Trans. dip. moment [a.u.]:           [  -0.000000,    0.695400,    0.000000]
  <i|r^2|0> [a.u.]:                    [  -0.000000,   -0.000000,   -0.000000]

  Dip. moment [a.u.]:                  [   0.000000,   -0.000000,    2.615555]
  Total dipole [Debye]:                                               6.648079
  <r^2> [a.u.]:                        [  64.966683,   25.155708,  630.471922]
  Total <r^2> [a.u.]:                                               720.594313

  V1^2 = 0.9522, V2^2 = 0.0478

  Important amplitudes:
      occ i      occ j       vir a       vir b          v   
    ---------------------------------------------------------
     1 (B2) A               8 (A1) A                 -0.6381
     1 (B2) A              10 (A1) A                 -0.1724
    ---------------------------------------------------------

  Density matrix analysis:
  ------------------------
  NOs
    Occupation of frontier NOs:
       0.9831   0.9924
    Number of electrons: 26.000000
    Number of unpaired electrons: n_u =  2.59445, n_u,nl =  2.06346
    NO participation ratio (PR_NO):  3.420193
  
  
  Mulliken Population Analysis
  Atom      Charge (e)              h+              e-           Del q
  --------------------------------------------------------------------
   1 C       -0.387556        0.528577       -0.673262       -0.144685
   2 C       -0.387556        0.528577       -0.673262       -0.144685
   3 H        0.224563        0.053692        0.006099        0.059791
   4 H        0.224563        0.053692        0.006099        0.059791
   5 H        0.165649        0.108827       -0.022602        0.086226
   6 H        0.165649        0.108827       -0.022602        0.086226
   7 O       -1.048366        0.008959       -0.020710       -0.011751
   8 H        0.043053        0.008041        0.001046        0.009087
  --------------------------------------------------------------------
  Sum:       -1.000000        1.399193       -1.399193       -0.000000
  
  Multipole moment analysis of the density matrix
    Molecular charge:                      -1.000000
    Number of electrons:                   26.000000
      Center of electronic charge [Ang]: [ -0.000000,   0.000000,  -0.053234]
    Total nuclear charge:                  25.000000
      Center of nuclear charge [Ang]:    [ -0.000000,   0.000000,  -0.000000]
    Dipole moment [D]:                     6.648077
      Cartesian components [D]:          [  0.000000,  -0.000000,   6.648077]
    RMS size of the density [Ang]:         2.785355
      Cartesian components [Ang]:        [  0.836488,   0.520514,   2.605294]
  
  Exciton analysis of the difference density matrix
    <r_h> [Ang]:                  [  0.000000,  -0.000000,   1.843320]
    <r_e> [Ang]:                  [ -0.000000,   0.000000,   2.856629]
    |<r_e - r_h>| [Ang]:            1.013308
    Hole size [Ang]:                1.665894
      Cartesian components [Ang]: [  1.014399,   0.871407,   0.993401]
    Electron size [Ang]:            2.598468
      Cartesian components [Ang]: [  1.662635,   1.317434,   1.500682]

  Transition density matrix analysis:
  -----------------------------------
  
  CT numbers (Mulliken)
    omega =     0.9207
    <Phe> =    -0.0091
  
  Exciton analysis of the transition density matrix
    Trans. dipole moment [D]:             0.883765
      Cartesian components [D]:         [ -0.000000,   0.883765,   0.000000]
    <r_h> [Ang]:                        [  0.000000,  -0.000000,   1.841350]
    <r_e> [Ang]:                        [ -0.000000,   0.000000,   3.341948]
    |<r_e - r_h>| [Ang]:                  1.500598
    Hole size [Ang]:                      1.263182
      Cartesian components [Ang]:       [  0.757369,   0.865227,   0.522880]
    Electron size [Ang]:                  2.752665
      Cartesian components [Ang]:       [  1.870525,   1.513489,   1.337030]
    RMS electron-hole separation [Ang]:   3.371183
      Cartesian components [Ang]:       [  2.011682,   1.736572,   2.074206]
    Covariance(r_h, r_e) [Ang^2]:         0.029856
    Correlation coefficient:              0.008586
    Center-of-mass size [Ang]:            1.519252
      Cartesian components [Ang]:       [  1.012186,   0.875050,   0.719647]

  Decomposition into state-averaged NTOs
    H- 2 -> L+ 0: -0.6774 ( 91.8%)
                   omega =  92.1%
  ----------------------------------------------------------------------------


  Excited state 10 (singlet, B2)                                    [converged]
  ----------------------------------------------------------------------------
  Term symbol:  10 (1) B2                                   R^2 =  8.20634e-06

  Total energy:                                           -153.6531912601 a.u.
  Excitation energy:                                               8.403796 eV

  Osc. strength:                                                      0.000796
  Trans. dip. moment [a.u.]:           [   0.000000,    0.062193,    0.000000]
  <i|r^2|0> [a.u.]:                    [  -0.000000,    0.000000,    0.000000]

  Dip. moment [a.u.]:                  [   0.000000,    0.000000,   -4.199477]
  Total dipole [Debye]:                                              10.674008
  <r^2> [a.u.]:                        [  62.885488,   22.220606,  593.224690]
  Total <r^2> [a.u.]:                                               678.330784

  V1^2 = 0.8585, V2^2 = 0.1415

  Important amplitudes:
      occ i      occ j       vir a       vir b          v   
    ---------------------------------------------------------
     2 (B2) A              13 (A1) A                 -0.5580
     2 (B2) A              12 (A1) A                 -0.2355
    ---------------------------------------------------------

  Density matrix analysis:
  ------------------------
  NOs
    Occupation of frontier NOs:
       0.9602   0.9855
    Number of electrons: 26.000000
    Number of unpaired electrons: n_u =  2.75938, n_u,nl =  2.11988
    NO participation ratio (PR_NO):  3.953760
  
  
  Mulliken Population Analysis
  Atom      Charge (e)              h+              e-           Del q
  --------------------------------------------------------------------
   1 C       -0.194971        0.074057       -0.026158        0.047899
   2 C       -0.194971        0.074057       -0.026158        0.047899
   3 H       -0.045775        0.005387       -0.215933       -0.210546
   4 H       -0.045775        0.005387       -0.215933       -0.210546
   5 H       -0.218558        0.015768       -0.313750       -0.297982
   6 H       -0.218558        0.015768       -0.313750       -0.297982
   7 O       -0.081035        1.384904       -0.429324        0.955580
   8 H       -0.000355        0.110505       -0.144826       -0.034321
  --------------------------------------------------------------------
  Sum:       -1.000000        1.685834       -1.685834       -0.000000
  
  Multipole moment analysis of the density matrix
    Molecular charge:                      -1.000000
    Number of electrons:                   26.000000
      Center of electronic charge [Ang]: [ -0.000000,  -0.000000,   0.085472]
    Total nuclear charge:                  25.000000
      Center of nuclear charge [Ang]:    [ -0.000000,   0.000000,  -0.000000]
    Dipole moment [D]:                     10.674005
      Cartesian components [D]:          [  0.000000,   0.000000, -10.674005]
    RMS size of the density [Ang]:         2.701581
      Cartesian components [Ang]:        [  0.822981,   0.489207,   2.526246]
  
  Exciton analysis of the difference density matrix
    <r_h> [Ang]:                  [ -0.000000,   0.000000,  -2.644877]
    <r_e> [Ang]:                  [ -0.000000,  -0.000000,   0.335354]
    |<r_e - r_h>| [Ang]:            2.980231
    Hole size [Ang]:                2.150244
      Cartesian components [Ang]: [  0.813564,   0.870126,   1.790123]
    Electron size [Ang]:            3.426308
      Cartesian components [Ang]: [  1.325321,   1.039165,   2.983831]

  Transition density matrix analysis:
  -----------------------------------
  
  CT numbers (Mulliken)
    omega =     0.8398
    <Phe> =    -0.0016
  
  Exciton analysis of the transition density matrix
    Trans. dipole moment [D]:             0.079039
      Cartesian components [D]:         [  0.000000,   0.079039,   0.000000]
    <r_h> [Ang]:                        [ -0.000000,   0.000000,  -3.196710]
    <r_e> [Ang]:                        [ -0.000000,  -0.000000,   1.804007]
    |<r_e - r_h>| [Ang]:                  5.000717
    Hole size [Ang]:                      1.085432
      Cartesian components [Ang]:       [  0.482881,   0.836213,   0.495718]
    Electron size [Ang]:                  3.132108
      Cartesian components [Ang]:       [  1.501803,   1.170547,   2.486867]
    RMS electron-hole separation [Ang]:   5.999745
      Cartesian components [Ang]:       [  1.577340,   1.438320,   5.607153]
    Covariance(r_h, r_e) [Ang^2]:        -0.000748
    Correlation coefficient:             -0.000220
    Center-of-mass size [Ang]:            1.657315
      Cartesian components [Ang]:       [  0.788855,   0.719392,   1.267626]

  Decomposition into state-averaged NTOs
    H- 0 -> L+ 7:  0.5693 ( 64.8%)
    H- 0 -> L+ 3: -0.2604 ( 13.6%)
    H- 0 -> L+ 1:  0.1519 (  4.6%)
                   omega =  84.0%
  ----------------------------------------------------------------------------


--------------------------------------------------------------------------------
  Time of ADC calculation:  CPU 202.75 s  wall 55.24 s
================================================================================
 
 --------------------------------------------------------------
             Orbital Energies (a.u.) and Symmetries
 --------------------------------------------------------------
 
 Alpha MOs, Restricted
 -- Occupied --                  
-20.203 -11.129 -11.127  -0.934  -0.908  -0.675  -0.551  -0.460
  1 A1    2 A1    1 B1    3 A1    4 A1    2 B1    5 A1    6 A1                 
 -0.406  -0.270  -0.256  -0.112  -0.112
  3 B1    1 B2    7 A1    2 B2    4 B1                                         
 -- Virtual --                   
  0.161   0.168   0.195   0.196   0.200   0.230   0.258   0.289
  5 B1    8 A1    1 A2    3 B2    9 A1    6 B1   10 A1    2 A2                 
  0.320   0.351   0.385   0.419   0.437   0.443   0.456   0.463
  7 B1   11 A1   12 A1    8 B1   13 A1    4 B2   14 A1    9 B1                 
  0.467   0.471   0.475   0.503   0.527   0.557   0.593   0.655
 15 A1   10 B1    5 B2   11 B1   16 A1    3 A2   17 A1   12 B1                 
  0.727   0.941   0.964   1.044   1.092   1.134   1.168   1.187
 13 B1   18 A1   19 A1   14 B1   20 A1   15 B1   21 A1   22 A1                 
  1.222   1.228   1.245   1.249   1.266   1.279   1.293   1.320
  6 B2   23 A1   16 B1    7 B2    8 B2   17 B1    4 A2   24 A1                 
  1.320   1.393   1.399   1.404   1.542   1.575   1.727   1.732
  5 A2    6 A2    9 B2   18 B1   25 A1   19 B1   10 B2   26 A1                 
  1.734   1.812   1.844   1.985   2.024   2.052   2.074   2.127
 20 B1   21 B1   27 A1    7 A2   28 A1   11 B2   22 B1   12 B2                 
  2.188   2.209   2.290   2.373   2.376   2.441   2.521   2.533
 29 A1   30 A1    8 A2   13 B2   23 B1   24 B1    9 A2   31 A1                 
  2.591   2.673   2.692   2.956   2.968   3.034   3.379   3.454
 32 A1   25 B1   26 B1   33 A1   34 A1   35 A1   27 B1   28 B1                 
  3.926   3.929   3.955   3.955   4.398
 14 B2   29 B1   36 A1   10 A2   37 A1                                         
 
 Beta MOs, Restricted
 -- Occupied --                  
-20.203 -11.129 -11.127  -0.934  -0.908  -0.675  -0.551  -0.460
  1 A1    2 A1    1 B1    3 A1    4 A1    2 B1    5 A1    6 A1                 
 -0.406  -0.270  -0.256  -0.112  -0.112
  3 B1    1 B2    7 A1    2 B2    4 B1                                         
 -- Virtual --                   
  0.161   0.168   0.195   0.196   0.200   0.230   0.258   0.289
  5 B1    8 A1    1 A2    3 B2    9 A1    6 B1   10 A1    2 A2                 
  0.320   0.351   0.385   0.419   0.437   0.443   0.456   0.463
  7 B1   11 A1   12 A1    8 B1   13 A1    4 B2   14 A1    9 B1                 
  0.467   0.471   0.475   0.503   0.527   0.557   0.593   0.655
 15 A1   10 B1    5 B2   11 B1   16 A1    3 A2   17 A1   12 B1                 
  0.727   0.941   0.964   1.044   1.092   1.134   1.168   1.187
 13 B1   18 A1   19 A1   14 B1   20 A1   15 B1   21 A1   22 A1                 
  1.222   1.228   1.245   1.249   1.266   1.279   1.293   1.320
  6 B2   23 A1   16 B1    7 B2    8 B2   17 B1    4 A2   24 A1                 
  1.320   1.393   1.399   1.404   1.542   1.575   1.727   1.732
  5 A2    6 A2    9 B2   18 B1   25 A1   19 B1   10 B2   26 A1                 
  1.734   1.812   1.844   1.985   2.024   2.052   2.074   2.127
 20 B1   21 B1   27 A1    7 A2   28 A1   11 B2   22 B1   12 B2                 
  2.188   2.209   2.290   2.373   2.376   2.441   2.521   2.533
 29 A1   30 A1    8 A2   13 B2   23 B1   24 B1    9 A2   31 A1                 
  2.591   2.673   2.692   2.956   2.968   3.034   3.379   3.454
 32 A1   25 B1   26 B1   33 A1   34 A1   35 A1   27 B1   28 B1                 
  3.926   3.929   3.955   3.955   4.398
 14 B2   29 B1   36 A1   10 A2   37 A1                                         
 --------------------------------------------------------------
 
          Ground-State Mulliken Net Atomic Charges

     Atom                 Charge (a.u.)
  ----------------------------------------
      1 C                    -0.227607
      2 C                    -0.227607
      3 H                     0.157110
      4 H                     0.157110
      5 H                     0.071627
      6 H                     0.071627
      7 O                    -1.049716
      8 H                     0.047456
  ----------------------------------------
  Sum of atomic charges =    -1.000000

 -----------------------------------------------------------------
                    Cartesian Multipole Moments
 -----------------------------------------------------------------
    Charge (ESU x 10^10)
                -4.8032
    Dipole Moment (Debye)
         X       0.0000      Y      -0.0000      Z      13.3664
       Tot      13.3664
    Quadrupole Moments (Debye-Ang)
        XX     -23.1593     XY      -0.0000     YY     -26.3340
        XZ      -0.0000     YZ       0.0000     ZZ     -61.7615
    Octopole Moments (Debye-Ang^2)
       XXX       0.0000    XXY       0.0000    XYY       0.0000
       YYY      -0.0000    XXZ       7.5842    XYZ      -0.0000
       YYZ       2.4587    XZZ      -0.0000    YZZ      -0.0000
       ZZZ     112.6682
    Hexadecapole Moments (Debye-Ang^3)
      XXXX     -84.7811   XXXY       0.0000   XXYY     -21.1475
      XYYY      -0.0000   YYYY     -38.2078   XXXZ      -0.0000
      XXYZ       0.0000   XYYZ       0.0000   YYYZ       0.0000
      XXZZ    -170.6330   XYZZ      -0.0000   YYZZ    -174.4359
      XZZZ      -0.0000   YZZZ       0.0000   ZZZZ   -1081.6850
 -----------------------------------------------------------------
 Total job time:  163.85s(wall), 249.65s(cpu) 
 Thu Mar  3 16:51:49 2022

        *************************************************************
        *                                                           *
        *  Thank you very much for using Q-Chem.  Have a nice day.  *
        *                                                           *
        *************************************************************


