/src/tsommerfeld/qchem/exe/qcprog.exe .input1.315152.4204.qcin.1 /src/jdavis/qchem.scratch/qchem4204/

                  Welcome to Q-Chem
     A Quantum Leap Into The Future Of Chemistry


 Q-Chem 5.4 (devel), Q-Chem, Inc., Pleasanton, CA (2021)

 E. Epifanovsky,  A. T. B. Gilbert,  Xintian Feng,  Joonho Lee,  Yuezhi Mao,  
 N. Mardirossian,  P. Pokhilko,  A. White,  M. Wormit,  M. P. Coons,  
 A. L. Dempwolff,  Zhengting Gan,  D. Hait,  P. R. Horn,  L. D. Jacobson,  
 I. Kaliman,  J. Kussmann,  A. W. Lange,  Ka Un Lao,  D. S. Levine,  Jie Liu,  
 S. C. McKenzie,  A. F. Morrison,  K. Nanda,  F. Plasser,  D. R. Rehn,  
 M. L. Vidal,  Zhi-Qiang You,  Ying Zhu,  B. Alam,  B. Albrecht,  
 A. Aldossary,  E. Alguire,  J. H. Andersen,  D. Barton,  K. Begam,  A. Behn,  
 Y. A. Bernard,  E. J. Berquist,  H. Burton,  A. Carreras,  K. Carter-Fenk,  
 R. Chakraborty,  A. D. Chien,  K. D. Closser,  V. Cofer-Shabica,  
 S. Dasgupta,  Jia Deng,  M. de Wergifosse,  M. Diedenhofen,  Hainam Do,  
 S. Ehlert,  Po-Tung Fang,  S. Fatehi,  Qingguo Feng,  T. Friedhoff,  
 J. Gayvert,  Qinghui Ge,  G. Gidofalvi,  M. Goldey,  J. Gomes,  
 C. Gonzalez-Espinoza,  S. Gulania,  A. Gunina,  M. W. D. Hanson-Heine,  
 P. H. P. Harbach,  A. W. Hauser,  M. F. Herbst,  M. Hernandez Vera,  
 M. Hodecker,  Z. C. Holden,  S. Houck,  Xunkun Huang,  Kerwin Hui,  
 B. C. Huynh,  M. Ivanov,  Hyunjun Ji,  Hanjie Jiang,  B. Kaduk,  S. Kaehler,  
 K. Khistyaev,  Jaehoon Kim,  P. Klunzinger,  Z. Koczor-Benda,  
 Joong Hoon Koh,  D. Kosenkov,  L. Koulias,  T. Kowalczyk,  C. M. Krauter,  
 K. Kue,  A. Kunitsa,  T. Kus,  A. Landau,  K. V. Lawler,  D. Lefrancois,  
 S. Lehtola,  Rain Li,  Yi-Pei Li,  Jiashu Liang,  M. Liebenthal,  
 Hung-Hsuan Lin,  You-Sheng Lin,  Fenglai Liu,  Kuan-Yu Liu,  
 M. Loipersberger,  A. Luenser,  A. Manjanath,  P. Manohar,  E. Mansoor,  
 S. F. Manzer,  Shan-Ping Mao,  A. V. Marenich,  T. Markovich,  S. Mason,  
 S. A. Maurer,  P. F. McLaughlin,  M. F. S. J. Menger,  J.-M. Mewes,  
 S. A. Mewes,  P. Morgante,  J. W. Mullinax,  K. J. Oosterbaan,  G. Paran,  
 Alexander C. Paul,  Suranjan K. Paul,  F. Pavosevic,  Zheng Pei,  S. Prager,  
 E. I. Proynov,  E. Ramos,  B. Rana,  A. E. Rask,  A. Rettig,  R. M. Richard,  
 F. Rob,  E. Rossomme,  T. Scheele,  M. Scheurer,  M. Schneider,  
 N. Sergueev,  S. M. Sharada,  W. Skomorowski,  D. W. Small,  C. J. Stein,  
 Yu-Chuan Su,  E. J. Sundstrom,  Zhen Tao,  J. Thirman,  T. Tsuchimochi,  
 N. M. Tubman,  S. P. Veccham,  O. Vydrov,  J. Wenzel,  J. Witte,  A. Yamada,  
 Kun Yao,  S. Yeganeh,  S. R. Yost,  A. Zech,  Igor Ying Zhang,  Xing Zhang,  
 Yu Zhang,  D. Zuev,  A. Aspuru-Guzik,  A. T. Bell,  N. A. Besley,  
 K. B. Bravaya,  B. R. Brooks,  D. Casanova,  Jeng-Da Chai,  S. Coriani,  
 C. J. Cramer,  A. E. DePrince, III,  R. A. DiStasio Jr.,  A. Dreuw,  
 B. D. Dunietz,  T. R. Furlani,  W. A. Goddard III,  S. Grimme,  
 S. Hammes-Schiffer,  T. Head-Gordon,  W. J. Hehre,  Chao-Ping Hsu,  
 T.-C. Jagau,  Yousung Jung,  A. Klamt,  Jing Kong,  D. S. Lambrecht,  
 WanZhen Liang,  N. J. Mayhall,  C. W. McCurdy,  J. B. Neaton,  
 C. Ochsenfeld,  J. A. Parkhill,  R. Peverati,  V. A. Rassolov,  Yihan Shao,  
 L. V. Slipchenko,  T. Stauch,  R. P. Steele,  J. E. Subotnik,  
 A. J. W. Thom,  A. Tkatchenko,  D. G. Truhlar,  T. Van Voorhis,  
 T. A. Wesolowski,  K. B. Whaley,  H. L. Woodcock III,  P. M. Zimmerman,  
 S. Faraji,  P. M. W. Gill,  M. Head-Gordon,  J. M. Herbert,  A. I. Krylov

 Additional authors for Version 5.4.1: 
 S. Kotaru,  Shaozhi Li,  Xiangyuan Li,  F. Matz,  A. Molle,  Haisheng Ren,  
 Yingli Su,  Hung-Yi Tsai,  C. Utku,  Fang Wang

 Contributors to earlier versions of Q-Chem not listed above: 
 R. D. Adamson,  B. Austin,  R. Baer,  J. Baker,  G. J. O. Beran,  
 K. Brandhorst,  S. T. Brown,  E. F. C. Byrd,  A. K. Chakraborty,  
 G. K. L. Chan,  Chun-Min Chang,  Yunqing Chen,  C.-L. Cheng,  
 Siu Hung Chien,  D. M. Chipman,  D. L. Crittenden,  H. Dachsel,  
 R. J. Doerksen,  A. D. Dutoi,  R. G. Edgar,  J. Fosso-Tande,  
 L. Fusti-Molnar,  D. Ghosh,  A. Ghysels,  A. Golubeva-Zadorozhnaya,  
 J. Gonthier,  M. S. Gordon,  S. R. Gwaltney,  G. Hawkins,  J. E. Herr,  
 A. Heyden,  S. Hirata,  E. G. Hohenstein,  G. Kedziora,  F. J. Keil,  
 C. Kelley,  Jihan Kim,  R. A. King,  R. Z. Khaliullin,  P. P. Korambath,  
 W. Kurlancheek,  A. Laurent,  A. M. Lee,  M. S. Lee,  S. V. Levchenko,  
 Ching Yeh Lin,  D. Liotard,  E. Livshits,  R. C. Lochan,  I. Lotan,  
 L. A. Martinez-Martinez,  P. E. Maslen,  N. Nair,  D. P. O'Neill,  
 D. Neuhauser,  E. Neuscamman,  C. M. Oana,  R. Olivares-Amaya,  R. Olson,  
 T. M. Perrine,  B. Peters,  P. A. Pieniazek,  A. Prociuk,  Y. M. Rhee,  
 J. Ritchie,  M. A. Rohrdanz,  E. Rosta,  N. J. Russ,  H. F. Schaefer III,  
 M. W. Schmidt,  N. E. Schultz,  S. Sharma,  N. Shenvi,  C. D. Sherrill,  
 A. C. Simmonett,  A. Sodt,  T. Stein,  D. Stuck,  K. S. Thanthiriwatte,  
 V. Vanovschi,  L. Vogt,  Tao Wang,  A. Warshel,  M. A. Watson,  
 C. F. Williams,  Q. Wu,  X. Xu,  Jun Yang,  W. Zhang,  Yan Zhao

 Please cite Q-Chem as follows:
 Y. Shao et al., Mol. Phys. 113, 184-215 (2015)
 DOI: 10.1080/00268976.2014.952696

 Q-Chem 5.4.1 for Intel X86 EM64T Linux

 Parts of Q-Chem use Armadillo 9.900.5 (Nocturnal Misbehaviour).
 http://arma.sourceforge.net/

 Q-Chem begins on Thu Mar  3 16:08:09 2022  

 Host: node01
0

     Scratch files written to /src/jdavis/qchem.scratch/qchem4204//
 Processing $rem in /src/tsommerfeld/qchem/config/preferences:
 Processing $rem in /home/jdavis/.qchemrc:

 Checking the input file for inconsistencies... 	...done.

--------------------------------------------------------------
User input:
--------------------------------------------------------------
$molecule
-1 1
C        -0.6645000000    0.0000000000    1.1619088658
C         0.6645000000    0.0000000000    1.1619088658
H        -1.1590800000    0.0000000000    0.1995598658
H         1.1590800000    0.0000000000    0.1995598658
H        -1.1590800000    0.0000000000    2.1242568658
H         1.1590800000    0.0000000000    2.1242568658
O         0.0000000000    0.0000000000   -3.84
H         0.0000000000    0.0000000000   -4.81
$end
$rem
   METHOD adc(2)
   BASIS gen
   PURECART 11
   EE_STATES [0,0,0,10]
   scf_convergence 8
   ADC_DAVIDSON_MAXITER 120
   ADC_DAVIDSON_MAXSUBSPACE 200
   adc_nguess_singles 100
   THRESH 14
   S2THRESH 14
   adc_davidson_conv 5
   adc_davidson_thresh 14
   THREADS 10
   MEM_TOTAL 95000
   STATE_ANALYSIS TRUE
$end
$basis
C 1
S   9   1.00
      6.665000D+03           6.920000D-04
      1.000000D+03           5.329000D-03
      2.280000D+02           2.707700D-02
      6.471000D+01           1.017180D-01
      2.106000D+01           2.747400D-01
      7.495000D+00           4.485640D-01
      2.797000D+00           2.850740D-01
      5.215000D-01           1.520400D-02
      1.596000D-01          -3.191000D-03
S   9   1.00
      6.665000D+03          -1.460000D-04
      1.000000D+03          -1.154000D-03
      2.280000D+02          -5.725000D-03
      6.471000D+01          -2.331200D-02
      2.106000D+01          -6.395500D-02
      7.495000D+00          -1.499810D-01
      2.797000D+00          -1.272620D-01
      5.215000D-01           5.445290D-01
      1.596000D-01           5.804960D-01
S   1   1.00
      1.596000D-01           1.000000D+00
S   1   1.00
      0.0469000              1.0000000
P   4   1.00
      9.439000D+00           3.810900D-02
      2.002000D+00           2.094800D-01
      5.456000D-01           5.085570D-01
      1.517000D-01           4.688420D-01
P   1   1.00
      1.517000D-01           1.000000D+00
P   1   1.00
      0.0570024      1.0000000
P   1   1.00
      0.0285012      1.0000000
D   1   1.00
      5.500000D-01           1.0000000
****
C 2
S   9   1.00
      6.665000D+03           6.920000D-04
      1.000000D+03           5.329000D-03
      2.280000D+02           2.707700D-02
      6.471000D+01           1.017180D-01
      2.106000D+01           2.747400D-01
      7.495000D+00           4.485640D-01
      2.797000D+00           2.850740D-01
      5.215000D-01           1.520400D-02
      1.596000D-01          -3.191000D-03
S   9   1.00
      6.665000D+03          -1.460000D-04
      1.000000D+03          -1.154000D-03
      2.280000D+02          -5.725000D-03
      6.471000D+01          -2.331200D-02
      2.106000D+01          -6.395500D-02
      7.495000D+00          -1.499810D-01
      2.797000D+00          -1.272620D-01
      5.215000D-01           5.445290D-01
      1.596000D-01           5.804960D-01
S   1   1.00
      1.596000D-01           1.000000D+00
S   1   1.00
      0.0469000              1.0000000
P   4   1.00
      9.439000D+00           3.810900D-02
      2.002000D+00           2.094800D-01
      5.456000D-01           5.085570D-01
      1.517000D-01           4.688420D-01
P   1   1.00
      1.517000D-01           1.000000D+00
P   1   1.00
      0.0570024      1.0000000
P   1   1.00
      0.0285012      1.0000000
D   1   1.00
      5.500000D-01           1.0000000
****
H 3
cc-pVDZ
****
H 4
cc-pVDZ
****
H 5
cc-pVDZ
****
H 6
cc-pVDZ
****
O 7
aug-cc-pVDZ
****
H 8
cc-pVDZ
****
$end
--------------------------------------------------------------
 ----------------------------------------------------------------
             Standard Nuclear Orientation (Angstroms)
    I     Atom           X                Y                Z
 ----------------------------------------------------------------
    1      C      -0.6645000000     0.0000000000     1.8394872717
    2      C       0.6645000000    -0.0000000000     1.8394872717
    3      H      -1.1590800000     0.0000000000     0.8771382717
    4      H       1.1590800000    -0.0000000000     0.8771382717
    5      H      -1.1590800000     0.0000000000     2.8018352717
    6      H       1.1590800000    -0.0000000000     2.8018352717
    7      O      -0.0000000000     0.0000000000    -3.1624215941
    8      H      -0.0000000000     0.0000000000    -4.1324215941
 ----------------------------------------------------------------
 Molecular Point Group                 C2v   NOp =  4
 Largest Abelian Subgroup              C2v   NOp =  4
 Nuclear Repulsion Energy =          52.84282358 hartrees
 There are       13 alpha and       13 beta electrons
 Requested basis set is non-standard
 There are 42 shells and 90 basis functions
 Total memory of 95000 MB is distributed as follows: 
   MEM_STATIC is set to 192 MB
   QALLOC/CCMAN JOB total memory use is  94808 MB
 Warning: actual memory use might exceed 95000 MB

 Total QAlloc Memory Limit  95000 MB
 Mega-Array Size       188 MB
 MEM_STATIC part       192 MB

                       Distance Matrix (Angstroms)
             C (  1)   C (  2)   H (  3)   H (  4)   H (  5)   H (  6)
   C (  2)  1.329000
   H (  3)  1.082000  2.061931
   H (  4)  2.061931  1.082000  2.318160
   H (  5)  1.082000  2.061931  1.924697  3.013026
   H (  6)  2.061931  1.082000  3.013026  1.924697  2.318160
   O (  7)  5.045855  5.045855  4.202560  4.202560  6.075840  6.075840
   H (  8)  6.008765  6.008765  5.141902  5.141902  7.030461  7.030461
             O (  7)
   H (  8)  0.970000
 
 A cutoff of  1.0D-14 yielded    865 shell pairs
 There are      3913 function pairs (      4255 Cartesian)
 Smallest overlap matrix eigenvalue = 2.01E-04

 Scale SEOQF with 1.000000e-01/1.000000e-01/1.000000e-01

 Standard Electronic Orientation quadrupole field applied
 Nucleus-field energy     =    -0.0000000162 hartrees
 ================ Generating on-the-fly SAD Guess ================
Attempting to make child job directory: /src/jdavis/qchem.scratch/qchem4204//Frg1/
Attempting to make child job directory: /src/jdavis/qchem.scratch/qchem4204//Frg2/
Attempting to make child job directory: /src/jdavis/qchem.scratch/qchem4204//Frg3/
Creating input file /src/jdavis/qchem.scratch/qchem4204/Frg1.input
using default PutDataFrgm: nothing
calling putenv with: QCSCRATCH=/src/jdavis/qchem.scratch/qchem4204/ 
Spawning Job For Fragment 0
Done Job For Fragment 0
calling putenv with: QCSCRATCH=/src/jdavis/qchem.scratch 
calling putenv with: QCTHREADS=1 
Creating input file /src/jdavis/qchem.scratch/qchem4204/Frg2.input
using default PutDataFrgm: nothing
calling putenv with: QCSCRATCH=/src/jdavis/qchem.scratch/qchem4204/ 
Spawning Job For Fragment 1
Done Job For Fragment 1
calling putenv with: QCSCRATCH=/src/jdavis/qchem.scratch 
calling putenv with: QCTHREADS=1 
Creating input file /src/jdavis/qchem.scratch/qchem4204/Frg3.input
using default PutDataFrgm: nothing
calling putenv with: QCSCRATCH=/src/jdavis/qchem.scratch/qchem4204/ 
Spawning Job For Fragment 2
Done Job For Fragment 2
calling putenv with: QCSCRATCH=/src/jdavis/qchem.scratch 
calling putenv with: QCTHREADS=1 
 Time for running child jobs:  CPU 1.77 s  wall 80.48 s
 ============= Method Specific SAD Guess Constructed =============
 Guess from on-the-fly superposition of atomic densities
 Warning: Energy on first SCF cycle will be non-variational
 A restricted Hartree-Fock SCF calculation will be
 performed using Pulay DIIS extrapolation
 SCF converges when DIIS error is below 1.0E-08
 using 10 threads for integral computing
 -------------------------------------------------------
 OpenMP Integral computing Module                
 Release: version 1.0, May 2013, Q-Chem Inc. Pittsburgh 
 -------------------------------------------------------
 ---------------------------------------
  Cycle       Energy         DIIS Error
 ---------------------------------------
    1    -153.5093115282      5.93E-02
    2    -153.2842055238      1.22E-02
    3    -153.3464199297      1.06E-02
    4    -153.4352211991      6.62E-04
    5    -153.4360029902      1.86E-04
    6    -153.4360544097      3.97E-05
    7    -153.4360574147      1.01E-05
    8    -153.4360577483      2.88E-06
    9    -153.4360577739      4.63E-07
   10    -153.4360577745      6.33E-08
   11    -153.4360577745      1.46E-08
   12    -153.4360577745      3.97E-09 Convergence criterion met
 ---------------------------------------
 SCF time:  CPU 13.17 s  wall 1.32 s
 SCF   energy in the final basis set = -153.43605777
 Total energy in the final basis set = -153.43605777
================================================================================
|                                                                              |
|                                 A D C  M A N                                 |
|                                                                              |
 ------------------------------------------------------------------------------ 
|                                                                              |
| Components:                                                                  |
|                                                                              |
| - libvmm - 1.3-trunk                                                         |
|   Authors:                                                                   |
|   Evgeny Epifanovsky, Ilya Kaliman                                           |
|                                                                              |
| - libtensor - 2.5-trunk                                                      |
|   Authors:                                                                   |
|   Evgeny Epifanovsky, Michael Wormit, Dmitry Zuev, Sam Manzer,               |
|   Ilya Kaliman                                                               |
|                                                                              |
| - libwfa - 1.1-trunk                                                         |
|   Authors:                                                                   |
|   Felix Plasser, Stefanie Mewes (Baeppler), Benjamin Thomitzni,              |
|   Michael Wormit, Feng Chen, Anna I. Krylov, Pavel Pokhilko                  |
|                                                                              |
| - libadc - 1.1-trunk                                                         |
|   Authors:                                                                   |
|   Michael Wormit, Adrian L. Dempwolff, Philipp H. P. Harbach,                |
|   Caroline Krauter, Dirk Rehn, Matthias Schneider, Jan Wenzel                |
|                                                                              |
| - adcman - 2.6-trunk                                                         |
|   Authors:                                                                   |
|   Michael Wormit, Adrian L. Dempwolff, Philipp H. P. Harbach,                |
|   Caroline Krauter, Daniel Lefrancois, Jan-Michael Mewes, Dirk Rehn,         |
|   Matthias Schneider, Jan Wenzel, Andreas Dreuw                              |
|                                                                              |
| Authors of earlier versions of ADCMAN:                                       |
| Andreas Dreuw, Jan Hendrik Starcke, Dirk Rehn, Michael Wormit                |
|                                                                              |
================================================================================

 
 Alpha MOs, Restricted
 -- Occupied --                  
-20.203 -11.129 -11.127  -0.934  -0.908  -0.675  -0.551  -0.460
  1 A1    2 A1    1 B1    3 A1    4 A1    2 B1    5 A1    6 A1                 
 -0.406  -0.270  -0.256  -0.112  -0.112
  3 B1    1 B2    7 A1    2 B2    4 B1                                         
 -- Virtual --                   
  0.132   0.148   0.158   0.163   0.166   0.186   0.230   0.252
  5 B1    8 A1    3 B2    9 A1    1 A2    6 B1   10 A1    2 A2                 
  0.287   0.339   0.351   0.355   0.363   0.365   0.367   0.401
  7 B1   11 A1   12 A1    8 B1    4 B2    9 B1   13 A1   14 A1                 
  0.440   0.444   0.449   0.454   0.475   0.519   0.594   0.642
  3 A2    5 B2   10 B1   15 A1   11 B1   16 A1   17 A1   12 B1                 
  0.692   0.887   0.967   0.985   1.020   1.038   1.082   1.127
 13 B1   18 A1   19 A1   20 A1   21 A1   14 B1    6 B2    4 A2                 
  1.148   1.157   1.178   1.215   1.222   1.265   1.270   1.320
 15 B1   22 A1   16 B1   23 A1    7 B2    8 B2   17 B1   24 A1                 
  1.320   1.388   1.392   1.393   1.470   1.544   1.722   1.726
  5 A2   18 B1    9 B2    6 A2   19 B1   25 A1   26 A1   20 B1                 
  1.727   1.739   1.824   1.969   2.024   2.042   2.049   2.127
 10 B2   21 B1   27 A1    7 A2   28 A1   22 B1   11 B2   12 B2                 
  2.136   2.182   2.282   2.373   2.376   2.431   2.521   2.535
 29 A1   30 A1    8 A2   13 B2   23 B1   24 B1    9 A2   31 A1                 
  2.568   2.679   2.691   2.910   2.929   3.034   3.346   3.449
 32 A1   25 B1   26 B1   33 A1   34 A1   35 A1   27 B1   28 B1                 
  3.926   3.929   3.955   3.955   4.399
 14 B2   29 B1   36 A1   10 A2   37 A1                                         
 
 Beta MOs, Restricted
 -- Occupied --                  
-20.203 -11.129 -11.127  -0.934  -0.908  -0.675  -0.551  -0.460
  1 A1    2 A1    1 B1    3 A1    4 A1    2 B1    5 A1    6 A1                 
 -0.406  -0.270  -0.256  -0.112  -0.112
  3 B1    1 B2    7 A1    2 B2    4 B1                                         
 -- Virtual --                   
  0.132   0.148   0.158   0.163   0.166   0.186   0.230   0.252
  5 B1    8 A1    3 B2    9 A1    1 A2    6 B1   10 A1    2 A2                 
  0.287   0.339   0.351   0.355   0.363   0.365   0.367   0.401
  7 B1   11 A1   12 A1    8 B1    4 B2    9 B1   13 A1   14 A1                 
  0.440   0.444   0.449   0.454   0.475   0.519   0.594   0.642
  3 A2    5 B2   10 B1   15 A1   11 B1   16 A1   17 A1   12 B1                 
  0.692   0.887   0.967   0.985   1.020   1.038   1.082   1.127
 13 B1   18 A1   19 A1   20 A1   21 A1   14 B1    6 B2    4 A2                 
  1.148   1.157   1.178   1.215   1.222   1.265   1.270   1.320
 15 B1   22 A1   16 B1   23 A1    7 B2    8 B2   17 B1   24 A1                 
  1.320   1.388   1.392   1.393   1.470   1.544   1.722   1.726
  5 A2   18 B1    9 B2    6 A2   19 B1   25 A1   26 A1   20 B1                 
  1.727   1.739   1.824   1.969   2.024   2.042   2.049   2.127
 10 B2   21 B1   27 A1    7 A2   28 A1   22 B1   11 B2   12 B2                 
  2.136   2.182   2.282   2.373   2.376   2.431   2.521   2.535
 29 A1   30 A1    8 A2   13 B2   23 B1   24 B1    9 A2   31 A1                 
  2.568   2.679   2.691   2.910   2.929   3.034   3.346   3.449
 32 A1   25 B1   26 B1   33 A1   34 A1   35 A1   27 B1   28 B1                 
  3.926   3.929   3.955   3.955   4.399
 14 B2   29 B1   36 A1   10 A2   37 A1                                         

--------------------------------------------------------------------------------
                                   HF Summary                                   
--------------------------------------------------------------------------------
  Energy:                                                 -153.4360577745 a.u.
  Dip. moment [a.u.]:                  [  -0.000000,    0.000000,    5.258766]
  Total dipole [Debye]:                                              13.366452
  <r^2> [a.u.]:                        [  55.345086,   19.558200,  599.172682]
  Total <r^2> [a.u.]:                                               674.075968
--------------------------------------------------------------------------------

--------------------------------------------------------------------------------
                                 MP(2) Summary                                  
--------------------------------------------------------------------------------
  MP energy contribution:                                   -0.5245324223 a.u.
  Total energy:                                           -153.9605901968 a.u.
  Dip. moment [a.u.]:                  [  -0.000000,    0.000000,    5.293659]
  Total dipole [Debye]:                                              13.455141
  <r^2> [a.u.]:                        [  56.323760,   20.264101,  600.338476]
  Total <r^2> [a.u.]:                                               676.926337

  Density matrix analysis:
  ------------------------
  NOs
    Occupation of frontier NOs:
       0.0446   1.9371
    Number of electrons: 26.000000
    Number of unpaired electrons: n_u =  0.71360, n_u,nl =  0.08538
    NO participation ratio (PR_NO): 22.904160
  
  
  Mulliken Population Analysis
  Atom      Charge (e)              h+              e-           Del q
  --------------------------------------------------------------------
   1 C       -0.192534        0.088444       -0.103376       -0.014932
   2 C       -0.192534        0.088444       -0.103376       -0.014932
   3 H        0.137932        0.017592       -0.010461        0.007131
   4 H        0.137932        0.017592       -0.010461        0.007131
   5 H        0.055251        0.018307       -0.010829        0.007478
   6 H        0.055251        0.018307       -0.010829        0.007478
   7 O       -1.035364        0.283915       -0.269898        0.014017
   8 H        0.034068        0.016967       -0.030337       -0.013370
  --------------------------------------------------------------------
  Sum:       -1.000000        0.549568       -0.549568       -0.000000
  
  Multipole moment analysis of the density matrix
    Molecular charge:                      -1.000000
    Number of electrons:                   26.000000
      Center of electronic charge [Ang]: [  0.000000,  -0.000000,  -0.107742]
    Total nuclear charge:                  25.000000
      Center of nuclear charge [Ang]:    [ -0.000000,   0.000000,  -0.000000]
    Dipole moment [D]:                     13.455137
      Cartesian components [D]:          [ -0.000000,   0.000000,  13.455137]
    RMS size of the density [Ang]:         2.697983
      Cartesian components [Ang]:        [  0.778862,   0.467173,   2.540518]
  
  Exciton analysis of the difference density matrix
    <r_h> [Ang]:                  [  0.000000,   0.000000,  -0.912329]
    <r_e> [Ang]:                  [  0.000000,  -0.000000,  -0.945927]
    |<r_e - r_h>| [Ang]:            0.033598
    Hole size [Ang]:                2.818682
      Cartesian components [Ang]: [  0.841047,   0.720909,   2.591891]
    Electron size [Ang]:            3.055310
      Cartesian components [Ang]: [  1.098197,   0.937762,   2.692487]
--------------------------------------------------------------------------------
  Starting Davidson for singlet states of irrep B2 ... 
--------------------------------------------------------------------------------
   It NVec Conv  Avg. Norm  Max. Norm  Conv. states           Remark
--------------------------------------------------------------------------------
       100    0  1.527e-01  5.971e-01  0.2439 n n n n n n n n Guess.
    1  110    0  1.674e-02  8.925e-02  0.0701 n n n n n n n n 
    2  120    0  1.405e-02  1.334e-01  0.0687 n n n n n n n n 
    3  130    0  7.357e-03  7.226e-02  0.0687 n n n n n n n n 
    4  140    0  1.523e-03  1.496e-02  0.0687 n n n n n n n n 
    5  150    4  2.260e-04  2.213e-03  0.0687 y y y n y n n n 
    6  160    7  2.145e-05  2.056e-04  0.0687 y y y y y y n n 
    7  170    9  2.786e-06  2.649e-05  0.0687 y y y y y y y y 
    8  180   10  2.011e-07  1.683e-06  0.0687 y y y y y y y y Converged.
--------------------------------------------------------------------------------
  Davidson Summary: 
 ------------------------------------------------------------
  State  0: excitation energy =   0.0687 a.u.   (converged)
  State  1: excitation energy =   0.0810 a.u.   (converged)
  State  2: excitation energy =   0.0839 a.u.   (converged)
  State  3: excitation energy =   0.1219 a.u.   (converged)
  State  4: excitation energy =   0.1386 a.u.   (converged)
  State  5: excitation energy =   0.1744 a.u.   (converged)
  State  6: excitation energy =   0.2248 a.u.   (converged)
  State  7: excitation energy =   0.2295 a.u.   (converged)
  State  8: excitation energy =   0.2408 a.u.   (converged)
  State  9: excitation energy =   0.2615 a.u.   (converged)
 ------------------------------------------------------------


--------------------------------------------------------------------------------
                   State-averaged natural transition orbitals
--------------------------------------------------------------------------------
--------------------------------------------------------------------------------

--------------------------------------------------------------------------------
                             Excited State Summary
--------------------------------------------------------------------------------
--------------------------------------------------------------------------------

  Excited state 1 (singlet, B2)                                    [converged]
  ----------------------------------------------------------------------------
  Term symbol:  1 (1) B2                                    R^2 =  3.78261e-09

  Total energy:                                           -153.8919246276 a.u.
  Excitation energy:                                               1.868485 eV

  Osc. strength:                                                      0.007740
  Trans. dip. moment [a.u.]:           [   0.000000,   -0.411196,    0.000000]
  <i|r^2|0> [a.u.]:                    [   0.000000,    0.000000,    0.000000]

  Dip. moment [a.u.]:                  [  -0.000000,    0.000000,   -6.267045]
  Total dipole [Debye]:                                              15.929244
  <r^2> [a.u.]:                        [  72.201156,   30.257070,  621.852544]
  Total <r^2> [a.u.]:                                               724.310769

  V1^2 = 0.8615, V2^2 = 0.1385

  Important amplitudes:
      occ i      occ j       vir a       vir b          v   
    ---------------------------------------------------------
     2 (B2) A               8 (A1) A                 -0.6207
     2 (B2) A               9 (A1) A                  0.1801
    ---------------------------------------------------------

  Density matrix analysis:
  ------------------------
  NOs
    Occupation of frontier NOs:
       0.9582   0.9972
    Number of electrons: 26.000000
    Number of unpaired electrons: n_u =  2.75020, n_u,nl =  2.11828
    NO participation ratio (PR_NO):  3.889540
  
  
  Mulliken Population Analysis
  Atom      Charge (e)              h+              e-           Del q
  --------------------------------------------------------------------
   1 C       -0.686590        0.025967       -0.520023       -0.494056
   2 C       -0.686590        0.025967       -0.520023       -0.494056
   3 H        0.096784       -0.001153       -0.039995       -0.041148
   4 H        0.096784       -0.001153       -0.039995       -0.041148
   5 H        0.067369        0.028776       -0.016658        0.012118
   6 H        0.067369        0.028776       -0.016658        0.012118
   7 O       -0.127350        1.403571       -0.495556        0.908014
   8 H        0.172225        0.136432        0.001724        0.138157
  --------------------------------------------------------------------
  Sum:       -1.000000        1.647184       -1.647184       -0.000000
  
  Multipole moment analysis of the density matrix
    Molecular charge:                      -1.000000
    Number of electrons:                   26.000000
      Center of electronic charge [Ang]: [  0.000000,  -0.000000,   0.127553]
    Total nuclear charge:                  25.000000
      Center of nuclear charge [Ang]:    [ -0.000000,   0.000000,  -0.000000]
    Dipole moment [D]:                     15.929239
      Cartesian components [D]:          [ -0.000000,   0.000000, -15.929239]
    RMS size of the density [Ang]:         2.790124
      Cartesian components [Ang]:        [  0.881833,   0.570858,   2.584818]
  
  Exciton analysis of the difference density matrix
    <r_h> [Ang]:                  [  0.000000,  -0.000000,  -2.871977]
    <r_e> [Ang]:                  [  0.000000,  -0.000000,   0.842035]
    |<r_e - r_h>| [Ang]:            3.714012
    Hole size [Ang]:                1.985349
      Cartesian components [Ang]: [  0.826703,   0.884809,   1.573305]
    Electron size [Ang]:            4.420000
      Cartesian components [Ang]: [  1.839202,   1.575352,   3.697567]

  Transition density matrix analysis:
  -----------------------------------
  
  CT numbers (Mulliken)
    omega =     0.8465
    <Phe> =    -0.0011
  
  Exciton analysis of the transition density matrix
    Trans. dipole moment [D]:             0.522578
      Cartesian components [D]:         [  0.000000,  -0.522578,   0.000000]
    <r_h> [Ang]:                        [ -0.000000,   0.000000,  -3.197091]
    <r_e> [Ang]:                        [  0.000000,   0.000000,   2.940809]
    |<r_e - r_h>| [Ang]:                  6.137899
    Hole size [Ang]:                      1.088982
      Cartesian components [Ang]:       [  0.484875,   0.839701,   0.495660]
    Electron size [Ang]:                  4.219447
      Cartesian components [Ang]:       [  2.246654,   1.935769,   3.001513]
    RMS electron-hole separation [Ang]:   7.527354
      Cartesian components [Ang]:       [  2.298263,   2.109299,   6.850540]
    Covariance(r_h, r_e) [Ang^2]:         0.001182
    Correlation coefficient:              0.000257
    Center-of-mass size [Ang]:            2.178989
      Cartesian components [Ang]:       [  1.149250,   1.055397,   1.520972]

  Decomposition into state-averaged NTOs
    H- 0 -> L+ 0:  0.5482 ( 60.1%)
    H- 0 -> L+ 4:  0.2766 ( 15.3%)
    H- 0 -> L+ 7: -0.1326 (  3.5%)
    H- 0 -> L+ 2:  0.1265 (  3.2%)
    H- 0 -> L+ 1: -0.0983 (  1.9%)
                   omega =  84.6%
  ----------------------------------------------------------------------------


  Excited state 2 (singlet, B2)                                    [converged]
  ----------------------------------------------------------------------------
  Term symbol:  2 (1) B2                                    R^2 =  3.90707e-09

  Total energy:                                           -153.8795902931 a.u.
  Excitation energy:                                               2.204119 eV

  Osc. strength:                                                      0.000621
  Trans. dip. moment [a.u.]:           [   0.000000,   -0.107259,   -0.000000]
  <i|r^2|0> [a.u.]:                    [  -0.000000,   -0.000000,   -0.000000]

  Dip. moment [a.u.]:                  [  -0.000000,    0.000000,   -3.782643]
  Total dipole [Debye]:                                               9.614522
  <r^2> [a.u.]:                        [ 105.865996,   26.840677,  580.576334]
  Total <r^2> [a.u.]:                                               713.283006

  V1^2 = 0.8618, V2^2 = 0.1382

  Important amplitudes:
      occ i      occ j       vir a       vir b          v   
    ---------------------------------------------------------
     2 (B2) A               9 (A1) A                  0.6112
     2 (B2) A               8 (A1) A                  0.1953
    ---------------------------------------------------------

  Density matrix analysis:
  ------------------------
  NOs
    Occupation of frontier NOs:
       0.9596   0.9957
    Number of electrons: 26.000000
    Number of unpaired electrons: n_u =  2.75431, n_u,nl =  2.11987
    NO participation ratio (PR_NO):  3.900509
  
  
  Mulliken Population Analysis
  Atom      Charge (e)              h+              e-           Del q
  --------------------------------------------------------------------
   1 C       -0.706109        0.019302       -0.532877       -0.513575
   2 C       -0.706109        0.019302       -0.532877       -0.513575
   3 H        0.131983        0.000003       -0.005952       -0.005948
   4 H        0.131983        0.000003       -0.005952       -0.005948
   5 H        0.079925        0.013091        0.011583        0.024674
   6 H        0.079925        0.013091        0.011583        0.024674
   7 O       -0.155296        1.407282       -0.527214        0.880068
   8 H        0.143698        0.134463       -0.024833        0.109630
  --------------------------------------------------------------------
  Sum:       -1.000000        1.606538       -1.606538       -0.000000
  
  Multipole moment analysis of the density matrix
    Molecular charge:                      -1.000000
    Number of electrons:                   26.000000
      Center of electronic charge [Ang]: [  0.000000,  -0.000000,   0.076988]
    Total nuclear charge:                  25.000000
      Center of nuclear charge [Ang]:    [ -0.000000,   0.000000,  -0.000000]
    Dipole moment [D]:                     9.614519
      Cartesian components [D]:          [ -0.000000,   0.000000,  -9.614519]
    RMS size of the density [Ang]:         2.770625
      Cartesian components [Ang]:        [  1.067807,   0.537664,   2.499414]
  
  Exciton analysis of the difference density matrix
    <r_h> [Ang]:                  [  0.000000,  -0.000000,  -3.025834]
    <r_e> [Ang]:                  [  0.000000,  -0.000000,  -0.036192]
    |<r_e - r_h>| [Ang]:            2.989642
    Hole size [Ang]:                1.770647
      Cartesian components [Ang]: [  0.831004,   0.892191,   1.283986]
    Electron size [Ang]:            4.315869
      Cartesian components [Ang]: [  3.053859,   1.393678,   2.712625]

  Transition density matrix analysis:
  -----------------------------------
  
  CT numbers (Mulliken)
    omega =     0.8470
    <Phe> =    -0.0002
  
  Exciton analysis of the transition density matrix
    Trans. dipole moment [D]:             0.136313
      Cartesian components [D]:         [  0.000000,  -0.136313,  -0.000000]
    <r_h> [Ang]:                        [ -0.000000,   0.000000,  -3.197094]
    <r_e> [Ang]:                        [  0.000000,  -0.000000,   1.588406]
    |<r_e - r_h>| [Ang]:                  4.785500
    Hole size [Ang]:                      1.088999
      Cartesian components [Ang]:       [  0.485580,   0.839457,   0.495420]
    Electron size [Ang]:                  4.546439
      Cartesian components [Ang]:       [  3.809950,   1.670647,   1.833938]
    RMS electron-hole separation [Ang]:   6.689933
      Cartesian components [Ang]:       [  3.840589,   1.869437,   5.148813]
    Covariance(r_h, r_e) [Ang^2]:         0.000919
    Correlation coefficient:              0.000186
    Center-of-mass size [Ang]:            2.337620
      Cartesian components [Ang]:       [  1.920474,   0.934974,   0.949773]

  Decomposition into state-averaged NTOs
    H- 0 -> L+ 6:  0.5068 ( 51.4%)
    H- 0 -> L+ 4:  0.3431 ( 23.5%)
    H- 0 -> L+ 7:  0.1579 (  5.0%)
    H- 0 -> L+ 0: -0.1132 (  2.6%)
    H- 0 -> L+ 2:  0.0984 (  1.9%)
                   omega =  84.7%
  ----------------------------------------------------------------------------


  Excited state 3 (singlet, B2)                                    [converged]
  ----------------------------------------------------------------------------
  Term symbol:  3 (1) B2                                    R^2 =  1.50424e-09

  Total energy:                                           -153.8766489014 a.u.
  Excitation energy:                                               2.284159 eV

  Osc. strength:                                                      0.000534
  Trans. dip. moment [a.u.]:           [   0.000000,    0.097640,   -0.000000]
  <i|r^2|0> [a.u.]:                    [  -0.000000,   -0.000000,   -0.000000]

  Dip. moment [a.u.]:                  [   0.000000,    0.000000,   -4.232913]
  Total dipole [Debye]:                                              10.758994
  <r^2> [a.u.]:                        [  80.440287,   44.681887,  580.609102]
  Total <r^2> [a.u.]:                                               705.731276

  V1^2 = 0.8594, V2^2 = 0.1406

  Important amplitudes:
      occ i      occ j       vir a       vir b          v   
    ---------------------------------------------------------
     4 (B1) A               1 (A2) A                  0.6401
     4 (B1) A               2 (A2) A                  0.1376
    ---------------------------------------------------------

  Density matrix analysis:
  ------------------------
  NOs
    Occupation of frontier NOs:
       0.9593   0.9962
    Number of electrons: 26.000000
    Number of unpaired electrons: n_u =  2.74894, n_u,nl =  2.11648
    NO participation ratio (PR_NO):  3.886665
  
  
  Mulliken Population Analysis
  Atom      Charge (e)              h+              e-           Del q
  --------------------------------------------------------------------
   1 C       -0.662593        0.038772       -0.508831       -0.470058
   2 C       -0.662593        0.038772       -0.508831       -0.470058
   3 H        0.104492        0.000262       -0.033701       -0.033439
   4 H        0.104492        0.000262       -0.033701       -0.033439
   5 H        0.058634        0.004437       -0.001053        0.003384
   6 H        0.058634        0.004437       -0.001053        0.003384
   7 O       -0.145298        1.406845       -0.516778        0.890067
   8 H        0.144230        0.133469       -0.023307        0.110162
  --------------------------------------------------------------------
  Sum:       -1.000000        1.627256       -1.627256       -0.000000
  
  Multipole moment analysis of the density matrix
    Molecular charge:                      -1.000000
    Number of electrons:                   26.000000
      Center of electronic charge [Ang]: [ -0.000000,  -0.000000,   0.086152]
    Total nuclear charge:                  25.000000
      Center of nuclear charge [Ang]:    [ -0.000000,   0.000000,  -0.000000]
    Dipole moment [D]:                     10.758991
      Cartesian components [D]:          [  0.000000,   0.000000, -10.758991]
    RMS size of the density [Ang]:         2.755637
      Cartesian components [Ang]:        [  0.930789,   0.693714,   2.499185]
  
  Exciton analysis of the difference density matrix
    <r_h> [Ang]:                  [  0.000000,  -0.000000,  -2.967694]
    <r_e> [Ang]:                  [ -0.000000,  -0.000000,   0.130309]
    |<r_e - r_h>| [Ang]:            3.098003
    Hole size [Ang]:                1.823543
      Cartesian components [Ang]: [  0.915844,   0.797874,   1.360123]
    Electron size [Ang]:            4.131885
      Cartesian components [Ang]: [  2.233584,   2.199675,   2.691655]

  Transition density matrix analysis:
  -----------------------------------
  
  CT numbers (Mulliken)
    omega =     0.8422
    <Phe> =     0.0001
  
  Exciton analysis of the transition density matrix
    Trans. dipole moment [D]:             0.124088
      Cartesian components [D]:         [  0.000000,   0.124088,  -0.000000]
    <r_h> [Ang]:                        [  0.000000,   0.000000,  -3.197257]
    <r_e> [Ang]:                        [ -0.000000,  -0.000000,   1.839121]
    |<r_e - r_h>| [Ang]:                  5.036378
    Hole size [Ang]:                      1.092095
      Cartesian components [Ang]:       [  0.842185,   0.486740,   0.496468]
    Electron size [Ang]:                  4.201635
      Cartesian components [Ang]:       [  2.775951,   2.730153,   1.579271]
    RMS electron-hole separation [Ang]:   6.648617
      Cartesian components [Ang]:       [  2.899676,   2.773138,   5.301481]
    Covariance(r_h, r_e) [Ang^2]:         0.003697
    Correlation coefficient:              0.000806
    Center-of-mass size [Ang]:            2.171048
      Cartesian components [Ang]:       [  1.451055,   1.386633,   0.827731]

  Decomposition into state-averaged NTOs
    H- 1 -> L+ 5:  0.5906 ( 69.7%)
    H- 1 -> L+ 8: -0.2679 ( 14.4%)
                   omega =  84.2%
  ----------------------------------------------------------------------------


  Excited state 4 (singlet, B2)                                    [converged]
  ----------------------------------------------------------------------------
  Term symbol:  4 (1) B2                                    R^2 =  1.49643e-08

  Total energy:                                           -153.8386831944 a.u.
  Excitation energy:                                               3.317258 eV

  Osc. strength:                                                      0.010274
  Trans. dip. moment [a.u.]:           [   0.000000,   -0.355546,   -0.000000]
  <i|r^2|0> [a.u.]:                    [   0.000000,    0.000000,    0.000000]

  Dip. moment [a.u.]:                  [  -0.000000,    0.000000,   -3.299167]
  Total dipole [Debye]:                                               8.385648
  <r^2> [a.u.]:                        [  67.357385,   30.624248,  580.116250]
  Total <r^2> [a.u.]:                                               678.097883

  V1^2 = 0.8660, V2^2 = 0.1340

  Important amplitudes:
      occ i      occ j       vir a       vir b          v   
    ---------------------------------------------------------
     2 (B2) A              10 (A1) A                  0.6210
     2 (B2) A               9 (A1) A                 -0.1517
    ---------------------------------------------------------

  Density matrix analysis:
  ------------------------
  NOs
    Occupation of frontier NOs:
       0.9597   0.9932
    Number of electrons: 26.000000
    Number of unpaired electrons: n_u =  2.74917, n_u,nl =  2.11651
    NO participation ratio (PR_NO):  3.897473
  
  
  Mulliken Population Analysis
  Atom      Charge (e)              h+              e-           Del q
  --------------------------------------------------------------------
   1 C       -0.749434        0.039642       -0.596541       -0.556899
   2 C       -0.749434        0.039642       -0.596541       -0.556899
   3 H        0.149446       -0.001296        0.012810        0.011514
   4 H        0.149446       -0.001296        0.012810        0.011514
   5 H        0.108487        0.001477        0.051759        0.053236
   6 H        0.108487        0.001477        0.051759        0.053236
   7 O       -0.156377        1.391021       -0.512034        0.878987
   8 H        0.139379        0.126075       -0.020765        0.105310
  --------------------------------------------------------------------
  Sum:       -1.000000        1.596742       -1.596742       -0.000000
  
  Multipole moment analysis of the density matrix
    Molecular charge:                      -1.000000
    Number of electrons:                   26.000000
      Center of electronic charge [Ang]: [  0.000000,  -0.000000,   0.067148]
    Total nuclear charge:                  25.000000
      Center of nuclear charge [Ang]:    [ -0.000000,   0.000000,  -0.000000]
    Dipole moment [D]:                     8.385646
      Cartesian components [D]:          [ -0.000000,   0.000000,  -8.385646]
    RMS size of the density [Ang]:         2.701634
      Cartesian components [Ang]:        [  0.851740,   0.574311,   2.498706]
  
  Exciton analysis of the difference density matrix
    <r_h> [Ang]:                  [  0.000000,  -0.000000,  -2.971740]
    <r_e> [Ang]:                  [  0.000000,  -0.000000,  -0.123986]
    |<r_e - r_h>| [Ang]:            2.847754
    Hole size [Ang]:                1.815781
      Cartesian components [Ang]: [  0.815557,   0.903032,   1.347762]
    Electron size [Ang]:            3.509756
      Cartesian components [Ang]: [  1.612500,   1.622460,   2.661927]

  Transition density matrix analysis:
  -----------------------------------
  
  CT numbers (Mulliken)
    omega =     0.8498
    <Phe> =    -0.0019
  
  Exciton analysis of the transition density matrix
    Trans. dipole moment [D]:             0.451854
      Cartesian components [D]:         [  0.000000,  -0.451854,  -0.000000]
    <r_h> [Ang]:                        [ -0.000000,   0.000000,  -3.196512]
    <r_e> [Ang]:                        [  0.000000,  -0.000000,   1.308638]
    |<r_e - r_h>| [Ang]:                  4.505151
    Hole size [Ang]:                      1.087015
      Cartesian components [Ang]:       [  0.483794,   0.837824,   0.495576]
    Electron size [Ang]:                  3.353660
      Cartesian components [Ang]:       [  1.899164,   1.950753,   1.958258]
    RMS electron-hole separation [Ang]:   5.719656
      Cartesian components [Ang]:       [  1.959706,   2.120162,   4.937502]
    Covariance(r_h, r_e) [Ang^2]:         0.005279
    Correlation coefficient:              0.001448
    Center-of-mass size [Ang]:            1.763462
      Cartesian components [Ang]:       [  0.979963,   1.062978,   1.009727]

  Decomposition into state-averaged NTOs
    H- 0 -> L+ 6: -0.3430 ( 23.5%)
    H- 0 -> L+ 4:  0.3335 ( 22.2%)
    H- 0 -> L+ 2:  0.3072 ( 18.9%)
    H- 0 -> L+ 0: -0.2956 ( 17.5%)
    H- 0 -> L+ 1: -0.1109 (  2.5%)
                   omega =  85.0%
  ----------------------------------------------------------------------------


  Excited state 5 (singlet, B2)                                    [converged]
  ----------------------------------------------------------------------------
  Term symbol:  5 (1) B2                                    R^2 =  9.86717e-09

  Total energy:                                           -153.8219845013 a.u.
  Excitation energy:                                               3.771653 eV

  Osc. strength:                                                      0.000379
  Trans. dip. moment [a.u.]:           [  -0.000000,   -0.064023,    0.000000]
  <i|r^2|0> [a.u.]:                    [   0.000000,    0.000000,   -0.000000]

  Dip. moment [a.u.]:                  [  -0.000000,    0.000000,   -4.233257]
  Total dipole [Debye]:                                              10.759869
  <r^2> [a.u.]:                        [  69.018798,   32.829315,  577.538022]
  Total <r^2> [a.u.]:                                               679.386135

  V1^2 = 0.8491, V2^2 = 0.1509

  Important amplitudes:
      occ i      occ j       vir a       vir b          v   
    ---------------------------------------------------------
     4 (B1) A               2 (A2) A                  0.6290
     4 (B1) A               1 (A2) A                 -0.1423
    ---------------------------------------------------------

  Density matrix analysis:
  ------------------------
  NOs
    Occupation of frontier NOs:
       0.9586   0.9963
    Number of electrons: 26.000000
    Number of unpaired electrons: n_u =  2.73655, n_u,nl =  2.10851
    NO participation ratio (PR_NO):  3.858072
  
  
  Mulliken Population Analysis
  Atom      Charge (e)              h+              e-           Del q
  --------------------------------------------------------------------
   1 C       -0.595529        0.120846       -0.523840       -0.402994
   2 C       -0.595529        0.120846       -0.523840       -0.402994
   3 H        0.073851        0.002961       -0.067042       -0.064080
   4 H        0.073851        0.002961       -0.067042       -0.064080
   5 H        0.022143        0.004754       -0.037862       -0.033107
   6 H        0.022143        0.004754       -0.037862       -0.033107
   7 O       -0.140013        1.388825       -0.493474        0.895351
   8 H        0.139081        0.126780       -0.021767        0.105013
  --------------------------------------------------------------------
  Sum:       -1.000000        1.772729       -1.772729       -0.000000
  
  Multipole moment analysis of the density matrix
    Molecular charge:                      -1.000000
    Number of electrons:                   26.000000
      Center of electronic charge [Ang]: [  0.000000,  -0.000000,   0.086159]
    Total nuclear charge:                  25.000000
      Center of nuclear charge [Ang]:    [ -0.000000,   0.000000,  -0.000000]
    Dipole moment [D]:                     10.759865
      Cartesian components [D]:          [ -0.000000,   0.000000, -10.759865]
    RMS size of the density [Ang]:         2.703662
      Cartesian components [Ang]:        [  0.862180,   0.594628,   2.492559]
  
  Exciton analysis of the difference density matrix
    <r_h> [Ang]:                  [  0.000000,  -0.000000,  -2.499517]
    <r_e> [Ang]:                  [  0.000000,  -0.000000,   0.344363]
    |<r_e - r_h>| [Ang]:            2.843880
    Hole size [Ang]:                2.263566
      Cartesian components [Ang]: [  0.914176,   0.766471,   1.923678]
    Electron size [Ang]:            3.411934
      Cartesian components [Ang]: [  1.685552,   1.603851,   2.495570]

  Transition density matrix analysis:
  -----------------------------------
  
  CT numbers (Mulliken)
    omega =     0.8238
    <Phe> =     0.0000
  
  Exciton analysis of the transition density matrix
    Trans. dipole moment [D]:             0.081365
      Cartesian components [D]:         [ -0.000000,  -0.081365,   0.000000]
    <r_h> [Ang]:                        [  0.000000,   0.000000,  -3.197054]
    <r_e> [Ang]:                        [ -0.000000,  -0.000000,   1.839316]
    |<r_e - r_h>| [Ang]:                  5.036370
    Hole size [Ang]:                      1.090943
      Cartesian components [Ang]:       [  0.841598,   0.485458,   0.496186]
    Electron size [Ang]:                  3.125657
      Cartesian components [Ang]:       [  2.082196,   2.015238,   1.171753]
    RMS electron-hole separation [Ang]:   6.026606
      Cartesian components [Ang]:       [  2.244804,   2.072812,   5.194640]
    Covariance(r_h, r_e) [Ang^2]:         0.002468
    Correlation coefficient:              0.000724
    Center-of-mass size [Ang]:            1.655659
      Cartesian components [Ang]:       [  1.123445,   1.036479,   0.636230]

  Decomposition into state-averaged NTOs
    H- 1 -> L+ 8: -0.5810 ( 67.5%)
    H- 1 -> L+ 5: -0.2727 ( 14.9%)
                   omega =  82.4%
  ----------------------------------------------------------------------------


  Excited state 6 (singlet, B2)                                    [converged]
  ----------------------------------------------------------------------------
  Term symbol:  6 (1) B2                                    R^2 =  2.86037e-08

  Total energy:                                           -153.7862040729 a.u.
  Excitation energy:                                               4.745288 eV

  Osc. strength:                                                      0.062877
  Trans. dip. moment [a.u.]:           [  -0.000000,    0.735419,    0.000000]
  <i|r^2|0> [a.u.]:                    [  -0.000000,   -0.000000,    0.000000]

  Dip. moment [a.u.]:                  [   0.000000,   -0.000000,    5.554658]
  Total dipole [Debye]:                                              14.118534
  <r^2> [a.u.]:                        [  60.229340,   22.470652,  616.523763]
  Total <r^2> [a.u.]:                                               699.223755

  V1^2 = 0.9038, V2^2 = 0.0962

  Important amplitudes:
      occ i      occ j       vir a       vir b          v   
    ---------------------------------------------------------
     2 (B2) A              12 (A1) A                  0.4905
     2 (B2) A              14 (A1) A                 -0.4299
    ---------------------------------------------------------

  Density matrix analysis:
  ------------------------
  NOs
    Occupation of frontier NOs:
       0.9658   0.9987
    Number of electrons: 26.000000
    Number of unpaired electrons: n_u =  2.69800, n_u,nl =  2.09617
    NO participation ratio (PR_NO):  3.721530
  
  
  Mulliken Population Analysis
  Atom      Charge (e)              h+              e-           Del q
  --------------------------------------------------------------------
   1 C       -0.187899        0.006198       -0.001563        0.004636
   2 C       -0.187899        0.006198       -0.001563        0.004636
   3 H        0.093806        0.001759       -0.045885       -0.044126
   4 H        0.093806        0.001759       -0.045885       -0.044126
   5 H        0.056203        0.000256        0.000696        0.000952
   6 H        0.056203        0.000256        0.000696        0.000952
   7 O       -1.667867        1.244107       -1.876610       -0.632503
   8 H        0.743648        0.165937        0.543643        0.709580
  --------------------------------------------------------------------
  Sum:       -1.000000        1.426470       -1.426470       -0.000000
  
  Multipole moment analysis of the density matrix
    Molecular charge:                      -1.000000
    Number of electrons:                   26.000000
      Center of electronic charge [Ang]: [ -0.000000,   0.000000,  -0.113054]
    Total nuclear charge:                  25.000000
      Center of nuclear charge [Ang]:    [ -0.000000,   0.000000,  -0.000000]
    Dipole moment [D]:                     14.118530
      Cartesian components [D]:          [  0.000000,  -0.000000,  14.118530]
    RMS size of the density [Ang]:         2.741913
      Cartesian components [Ang]:        [  0.805413,   0.491952,   2.574370]
  
  Exciton analysis of the difference density matrix
    <r_h> [Ang]:                  [  0.000000,  -0.000000,  -3.190310]
    <r_e> [Ang]:                  [ -0.000000,   0.000000,  -3.287133]
    |<r_e - r_h>| [Ang]:            0.096823
    Hole size [Ang]:                1.457151
      Cartesian components [Ang]: [  0.752771,   0.889655,   0.874723]
    Electron size [Ang]:            2.423490
      Cartesian components [Ang]: [  1.154714,   1.106640,   1.820794]

  Transition density matrix analysis:
  -----------------------------------
  
  CT numbers (Mulliken)
    omega =     0.8843
    <Phe> =    -0.0142
  
  Exciton analysis of the transition density matrix
    Trans. dipole moment [D]:             0.934624
      Cartesian components [D]:         [ -0.000000,   0.934624,   0.000000]
    <r_h> [Ang]:                        [ -0.000000,   0.000000,  -3.197692]
    <r_e> [Ang]:                        [ -0.000000,   0.000000,  -3.462535]
    |<r_e - r_h>| [Ang]:                  0.264843
    Hole size [Ang]:                      1.075781
      Cartesian components [Ang]:       [  0.478977,   0.829444,   0.489804]
    Electron size [Ang]:                  2.672937
      Cartesian components [Ang]:       [  1.270188,   1.231313,   2.003767]
    RMS electron-hole separation [Ang]:   2.891585
      Cartesian components [Ang]:       [  1.357295,   1.481898,   2.079181]
    Covariance(r_h, r_e) [Ang^2]:         0.005386
    Correlation coefficient:              0.001873
    Center-of-mass size [Ang]:            1.441585
      Cartesian components [Ang]:       [  0.678849,   0.743673,   1.031640]

  Decomposition into state-averaged NTOs
    H- 0 -> L+ 1:  0.5616 ( 63.1%)
    H- 0 -> L+ 2:  0.3451 ( 23.8%)
                   omega =  88.4%
  ----------------------------------------------------------------------------


  Excited state 7 (singlet, B2)                                    [converged]
  ----------------------------------------------------------------------------
  Term symbol:  7 (1) B2                                    R^2 =  1.60180e-07

  Total energy:                                           -153.7357709123 a.u.
  Excitation energy:                                               6.117644 eV

  Osc. strength:                                                      0.022559
  Trans. dip. moment [a.u.]:           [  -0.000000,    0.387959,    0.000000]
  <i|r^2|0> [a.u.]:                    [   0.000000,   -0.000000,    0.000000]

  Dip. moment [a.u.]:                  [  -0.000000,   -0.000000,   -0.928894]
  Total dipole [Debye]:                                               2.361014
  <r^2> [a.u.]:                        [  63.361402,   25.102154,  586.363563]
  Total <r^2> [a.u.]:                                               674.827119

  V1^2 = 0.8845, V2^2 = 0.1155

  Important amplitudes:
      occ i      occ j       vir a       vir b          v   
    ---------------------------------------------------------
     2 (B2) A              14 (A1) A                 -0.4657
     2 (B2) A              12 (A1) A                 -0.4160
    ---------------------------------------------------------

  Density matrix analysis:
  ------------------------
  NOs
    Occupation of frontier NOs:
       0.9635   0.9903
    Number of electrons: 26.000000
    Number of unpaired electrons: n_u =  2.73070, n_u,nl =  2.10949
    NO participation ratio (PR_NO):  3.846153
  
  
  Mulliken Population Analysis
  Atom      Charge (e)              h+              e-           Del q
  --------------------------------------------------------------------
   1 C       -0.362470        0.036260       -0.206196       -0.169936
   2 C       -0.362470        0.036260       -0.206196       -0.169936
   3 H        0.015264        0.005875       -0.128543       -0.122667
   4 H        0.015264        0.005875       -0.128543       -0.122667
   5 H        0.078702        0.000896        0.022555        0.023451
   6 H        0.078702        0.000896        0.022555        0.023451
   7 O       -0.470144        1.336222       -0.771001        0.565220
   8 H        0.007152        0.109857       -0.136773       -0.026917
  --------------------------------------------------------------------
  Sum:       -1.000000        1.532141       -1.532141       -0.000000
  
  Multipole moment analysis of the density matrix
    Molecular charge:                      -1.000000
    Number of electrons:                   26.000000
      Center of electronic charge [Ang]: [  0.000000,   0.000000,   0.018906]
    Total nuclear charge:                  25.000000
      Center of nuclear charge [Ang]:    [ -0.000000,   0.000000,  -0.000000]
    Dipole moment [D]:                     2.361013
      Cartesian components [D]:          [ -0.000000,  -0.000000,  -2.361013]
    RMS size of the density [Ang]:         2.695877
      Cartesian components [Ang]:        [  0.826089,   0.519960,   2.512960]
  
  Exciton analysis of the difference density matrix
    <r_h> [Ang]:                  [  0.000000,   0.000000,  -2.973268]
    <r_e> [Ang]:                  [  0.000000,   0.000000,  -0.824098]
    |<r_e - r_h>| [Ang]:            2.149171
    Hole size [Ang]:                1.773793
      Cartesian components [Ang]: [  0.796235,   0.893449,   1.309237]
    Electron size [Ang]:            3.305126
      Cartesian components [Ang]: [  1.385733,   1.297112,   2.705754]

  Transition density matrix analysis:
  -----------------------------------
  
  CT numbers (Mulliken)
    omega =     0.8667
    <Phe> =    -0.0101
  
  Exciton analysis of the transition density matrix
    Trans. dipole moment [D]:             0.493046
      Cartesian components [D]:         [ -0.000000,   0.493046,   0.000000]
    <r_h> [Ang]:                        [ -0.000000,   0.000000,  -3.196125]
    <r_e> [Ang]:                        [  0.000000,   0.000000,  -0.034095]
    |<r_e - r_h>| [Ang]:                  3.162030
    Hole size [Ang]:                      1.081338
      Cartesian components [Ang]:       [  0.481185,   0.833135,   0.493599]
    Electron size [Ang]:                  3.431884
      Cartesian components [Ang]:       [  1.559475,   1.487395,   2.670865]
    RMS electron-hole separation [Ang]:   4.789071
      Cartesian components [Ang]:       [  1.631825,   1.702338,   4.168260]
    Covariance(r_h, r_e) [Ang^2]:         0.005178
    Correlation coefficient:              0.001395
    Center-of-mass size [Ang]:            1.799825
      Cartesian components [Ang]:       [  0.816111,   0.853663,   1.358157]

  Decomposition into state-averaged NTOs
    H- 0 -> L+ 2: -0.4361 ( 38.0%)
    H- 0 -> L+ 4:  0.3371 ( 22.7%)
    H- 0 -> L+ 1:  0.3255 ( 21.2%)
    H- 0 -> L+ 6: -0.1445 (  4.2%)
                   omega =  86.7%
  ----------------------------------------------------------------------------


  Excited state 8 (singlet, B2)                                    [converged]
  ----------------------------------------------------------------------------
  Term symbol:  8 (1) B2                                    R^2 =  1.08783e-06

  Total energy:                                           -153.7311365653 a.u.
  Excitation energy:                                               6.243751 eV

  Osc. strength:                                                      0.000956
  Trans. dip. moment [a.u.]:           [  -0.000000,    0.079043,   -0.000000]
  <i|r^2|0> [a.u.]:                    [   0.000000,    0.000000,   -0.000000]

  Dip. moment [a.u.]:                  [  -0.000000,   -0.000000,   -4.293726]
  Total dipole [Debye]:                                              10.913564
  <r^2> [a.u.]:                        [  68.013133,   57.341257,  583.321575]
  Total <r^2> [a.u.]:                                               708.675966

  V1^2 = 0.8668, V2^2 = 0.1332

  Important amplitudes:
      occ i      occ j       vir a       vir b          v   
    ---------------------------------------------------------
     7 (A1) A               3 (B2) A                 -0.6552
     7 (A1) A   2 (B2) B    3 (B2) A    5 (B2) B     -0.0532
    ---------------------------------------------------------

  Density matrix analysis:
  ------------------------
  NOs
    Occupation of frontier NOs:
       0.9752   0.9984
    Number of electrons: 26.000000
    Number of unpaired electrons: n_u =  2.79393, n_u,nl =  2.13402
    NO participation ratio (PR_NO):  3.934971
  
  
  Mulliken Population Analysis
  Atom      Charge (e)              h+              e-           Del q
  --------------------------------------------------------------------
   1 C       -0.667670        0.029491       -0.504626       -0.475135
   2 C       -0.667670        0.029491       -0.504626       -0.475135
   3 H        0.104613       -0.001794       -0.031524       -0.033318
   4 H        0.104613       -0.001794       -0.031524       -0.033318
   5 H        0.061965        0.007349       -0.000635        0.006714
   6 H        0.061965        0.007349       -0.000635        0.006714
   7 O       -0.326763        1.230283       -0.521682        0.708601
   8 H        0.328946        0.312365       -0.017487        0.294878
  --------------------------------------------------------------------
  Sum:       -1.000000        1.612740       -1.612740        0.000000
  
  Multipole moment analysis of the density matrix
    Molecular charge:                      -1.000000
    Number of electrons:                   26.000000
      Center of electronic charge [Ang]: [  0.000000,   0.000000,   0.087390]
    Total nuclear charge:                  25.000000
      Center of nuclear charge [Ang]:    [ -0.000000,   0.000000,  -0.000000]
    Dipole moment [D]:                     10.913561
      Cartesian components [D]:          [ -0.000000,  -0.000000, -10.913561]
    RMS size of the density [Ang]:         2.761347
      Cartesian components [Ang]:        [  0.855876,   0.785865,   2.504981]
  
  Exciton analysis of the difference density matrix
    <r_h> [Ang]:                  [  0.000000,  -0.000000,  -3.012556]
    <r_e> [Ang]:                  [  0.000000,   0.000000,   0.133285]
    |<r_e - r_h>| [Ang]:            3.145841
    Hole size [Ang]:                1.776612
      Cartesian components [Ang]: [  0.799351,   0.774143,   1.384951]
    Electron size [Ang]:            4.210337
      Cartesian components [Ang]: [  1.633600,   2.652772,   2.832152]

  Transition density matrix analysis:
  -----------------------------------
  
  CT numbers (Mulliken)
    omega =     0.8497
    <Phe> =     0.0000
  
  Exciton analysis of the transition density matrix
    Trans. dipole moment [D]:             0.100454
      Cartesian components [D]:         [ -0.000000,   0.100454,  -0.000000]
    <r_h> [Ang]:                        [ -0.000000,   0.000000,  -3.245897]
    <r_e> [Ang]:                        [  0.000000,   0.000000,   1.866872]
    |<r_e - r_h>| [Ang]:                  5.112769
    Hole size [Ang]:                      1.008512
      Cartesian components [Ang]:       [  0.420995,   0.420898,   0.814066]
    Electron size [Ang]:                  4.285016
      Cartesian components [Ang]:       [  1.955615,   3.310926,   1.890687]
    RMS electron-hole separation [Ang]:   6.747677
      Cartesian components [Ang]:       [  2.000950,   3.338680,   5.511856]
    Covariance(r_h, r_e) [Ang^2]:        -0.006139
    Correlation coefficient:             -0.001421
    Center-of-mass size [Ang]:            2.200351
      Cartesian components [Ang]:       [  0.999941,   1.668232,   1.028914]

  Decomposition into state-averaged NTOs
    H- 3 -> L+ 3:  0.6516 ( 84.9%)
                   omega =  85.0%
  ----------------------------------------------------------------------------


  Excited state 9 (singlet, B2)                                    [converged]
  ----------------------------------------------------------------------------
  Term symbol:  9 (1) B2                                    R^2 =  1.68322e-06

  Total energy:                                           -153.7198161960 a.u.
  Excitation energy:                                               6.551794 eV

  Osc. strength:                                                      0.001055
  Trans. dip. moment [a.u.]:           [   0.000000,   -0.081085,   -0.000000]
  <i|r^2|0> [a.u.]:                    [  -0.000000,   -0.000000,   -0.000000]

  Dip. moment [a.u.]:                  [  -0.000000,    0.000000,   -5.809787]
  Total dipole [Debye]:                                              14.767009
  <r^2> [a.u.]:                        [  63.658095,   24.762143,  602.209374]
  Total <r^2> [a.u.]:                                               690.629612

  V1^2 = 0.8551, V2^2 = 0.1449

  Important amplitudes:
      occ i      occ j       vir a       vir b          v   
    ---------------------------------------------------------
     2 (B2) A              11 (A1) A                  0.6358
     2 (B2) A              13 (A1) A                  0.1275
    ---------------------------------------------------------

  Density matrix analysis:
  ------------------------
  NOs
    Occupation of frontier NOs:
       0.9588   0.9917
    Number of electrons: 26.000000
    Number of unpaired electrons: n_u =  2.75890, n_u,nl =  2.12052
    NO participation ratio (PR_NO):  3.932751
  
  
  Mulliken Population Analysis
  Atom      Charge (e)              h+              e-           Del q
  --------------------------------------------------------------------
   1 C       -0.576358        0.076112       -0.459935       -0.383823
   2 C       -0.576358        0.076112       -0.459935       -0.383823
   3 H        0.153950        0.000399        0.015620        0.016019
   4 H        0.153950        0.000399        0.015620        0.016019
   5 H       -0.074468        0.023413       -0.153132       -0.129719
   6 H       -0.074468        0.023413       -0.153132       -0.129719
   7 O       -0.148140        1.394597       -0.507373        0.887224
   8 H        0.141891        0.130000       -0.022178        0.107822
  --------------------------------------------------------------------
  Sum:       -1.000000        1.724444       -1.724444       -0.000000
  
  Multipole moment analysis of the density matrix
    Molecular charge:                      -1.000000
    Number of electrons:                   26.000000
      Center of electronic charge [Ang]: [  0.000000,  -0.000000,   0.118246]
    Total nuclear charge:                  25.000000
      Center of nuclear charge [Ang]:    [ -0.000000,   0.000000,  -0.000000]
    Dipole moment [D]:                     14.767004
      Cartesian components [D]:          [ -0.000000,   0.000000, -14.767004]
    RMS size of the density [Ang]:         2.724761
      Cartesian components [Ang]:        [  0.828021,   0.516427,   2.544015]
  
  Exciton analysis of the difference density matrix
    <r_h> [Ang]:                  [  0.000000,  -0.000000,  -2.622438]
    <r_e> [Ang]:                  [  0.000000,  -0.000000,   0.784858]
    |<r_e - r_h>| [Ang]:            3.407295
    Hole size [Ang]:                2.205698
      Cartesian components [Ang]: [  0.824564,   0.871508,   1.850857]
    Electron size [Ang]:            3.653974
      Cartesian components [Ang]: [  1.367813,   1.220636,   3.160801]

  Transition density matrix analysis:
  -----------------------------------
  
  CT numbers (Mulliken)
    omega =     0.8383
    <Phe> =    -0.0001
  
  Exciton analysis of the transition density matrix
    Trans. dipole moment [D]:             0.103048
      Cartesian components [D]:         [  0.000000,  -0.103048,  -0.000000]
    <r_h> [Ang]:                        [ -0.000000,   0.000000,  -3.196667]
    <r_e> [Ang]:                        [  0.000000,  -0.000000,   2.764819]
    |<r_e - r_h>| [Ang]:                  5.961486
    Hole size [Ang]:                      1.088828
      Cartesian components [Ang]:       [  0.484425,   0.838931,   0.497067]
    Electron size [Ang]:                  3.047800
      Cartesian components [Ang]:       [  1.590358,   1.465933,   2.147298]
    RMS electron-hole separation [Ang]:   6.783564
      Cartesian components [Ang]:       [  1.662394,   1.689191,   6.356086]
    Covariance(r_h, r_e) [Ang^2]:        -0.001396
    Correlation coefficient:             -0.000421
    Center-of-mass size [Ang]:            1.618011
      Cartesian components [Ang]:       [  0.831303,   0.844417,   1.101751]

  Decomposition into state-averaged NTOs
    H- 0 -> L+ 7: -0.6109 ( 74.6%)
    H- 0 -> L+ 6:  0.1556 (  4.8%)
    H- 0 -> L+ 0: -0.1254 (  3.1%)
                   omega =  83.8%
  ----------------------------------------------------------------------------


  Excited state 10 (singlet, B2)                                    [converged]
  ----------------------------------------------------------------------------
  Term symbol:  10 (1) B2                                   R^2 =  4.58141e-08

  Total energy:                                           -153.6991223870 a.u.
  Excitation energy:                                               7.114901 eV

  Osc. strength:                                                      0.067674
  Trans. dip. moment [a.u.]:           [   0.000000,   -0.623083,    0.000000]
  <i|r^2|0> [a.u.]:                    [  -0.000000,   -0.000000,   -0.000000]

  Dip. moment [a.u.]:                  [  -0.000000,    0.000000,    2.378395]
  Total dipole [Debye]:                                               6.045278
  <r^2> [a.u.]:                        [  65.603598,   26.364845,  636.373989]
  Total <r^2> [a.u.]:                                               728.342431

  V1^2 = 0.9519, V2^2 = 0.0481

  Important amplitudes:
      occ i      occ j       vir a       vir b          v   
    ---------------------------------------------------------
     1 (B2) A               8 (A1) A                  0.6042
     1 (B2) A              10 (A1) A                  0.2625
    ---------------------------------------------------------

  Density matrix analysis:
  ------------------------
  NOs
    Occupation of frontier NOs:
       0.9831   0.9937
    Number of electrons: 26.000000
    Number of unpaired electrons: n_u =  2.59331, n_u,nl =  2.06321
    NO participation ratio (PR_NO):  3.412864
  
  
  Mulliken Population Analysis
  Atom      Charge (e)              h+              e-           Del q
  --------------------------------------------------------------------
   1 C       -0.348728        0.526299       -0.682493       -0.156194
   2 C       -0.348728        0.526299       -0.682493       -0.156194
   3 H        0.202848        0.059097        0.005820        0.064916
   4 H        0.202848        0.059097        0.005820        0.064916
   5 H        0.143326        0.112115       -0.024039        0.088076
   6 H        0.143326        0.112115       -0.024039        0.088076
   7 O       -1.037556        0.009386       -0.011578       -0.002192
   8 H        0.042664        0.008329        0.000267        0.008596
  --------------------------------------------------------------------
  Sum:       -1.000000        1.412735       -1.412735       -0.000000
  
  Multipole moment analysis of the density matrix
    Molecular charge:                      -1.000000
    Number of electrons:                   26.000000
      Center of electronic charge [Ang]: [  0.000000,  -0.000000,  -0.048407]
    Total nuclear charge:                  25.000000
      Center of nuclear charge [Ang]:    [ -0.000000,   0.000000,  -0.000000]
    Dipole moment [D]:                     6.045276
      Cartesian components [D]:          [ -0.000000,   0.000000,   6.045276]
    RMS size of the density [Ang]:         2.800383
      Cartesian components [Ang]:        [  0.840579,   0.532877,   2.617559]
  
  Exciton analysis of the difference density matrix
    <r_h> [Ang]:                  [  0.000000,  -0.000000,   1.839135]
    <r_e> [Ang]:                  [  0.000000,  -0.000000,   2.931124]
    |<r_e - r_h>| [Ang]:            1.091989
    Hole size [Ang]:                1.684156
      Cartesian components [Ang]: [  1.022045,   0.873382,   1.014400]
    Electron size [Ang]:            2.796224
      Cartesian components [Ang]: [  1.698235,   1.404304,   1.721278]

  Transition density matrix analysis:
  -----------------------------------
  
  CT numbers (Mulliken)
    omega =     0.9207
    <Phe> =    -0.0078
  
  Exciton analysis of the transition density matrix
    Trans. dipole moment [D]:             0.791859
      Cartesian components [D]:         [  0.000000,  -0.791859,   0.000000]
    <r_h> [Ang]:                        [ -0.000000,  -0.000000,   1.843200]
    <r_e> [Ang]:                        [  0.000000,  -0.000000,   3.464869]
    |<r_e - r_h>| [Ang]:                  1.621670
    Hole size [Ang]:                      1.259460
      Cartesian components [Ang]:       [  0.757283,   0.865421,   0.513623]
    Electron size [Ang]:                  2.987420
      Cartesian components [Ang]:       [  1.918787,   1.622673,   1.615509]
    RMS electron-hole separation [Ang]:   3.618626
      Cartesian components [Ang]:       [  2.057178,   1.833653,   2.345249]
    Covariance(r_h, r_e) [Ang^2]:         0.023138
    Correlation coefficient:              0.006150
    Center-of-mass size [Ang]:            1.624592
      Cartesian components [Ang]:       [  1.034222,   0.922193,   0.848082]

  Decomposition into state-averaged NTOs
    H- 2 -> L+ 0:  0.6780 ( 91.9%)
                   omega =  92.1%
  ----------------------------------------------------------------------------


--------------------------------------------------------------------------------
  Time of ADC calculation:  CPU 199.45 s  wall 54.79 s
================================================================================
 
 --------------------------------------------------------------
             Orbital Energies (a.u.) and Symmetries
 --------------------------------------------------------------
 
 Alpha MOs, Restricted
 -- Occupied --                  
-20.203 -11.129 -11.127  -0.934  -0.908  -0.675  -0.551  -0.460
  1 A1    2 A1    1 B1    3 A1    4 A1    2 B1    5 A1    6 A1                 
 -0.406  -0.270  -0.256  -0.112  -0.112
  3 B1    1 B2    7 A1    2 B2    4 B1                                         
 -- Virtual --                   
  0.132   0.148   0.158   0.163   0.166   0.186   0.230   0.252
  5 B1    8 A1    3 B2    9 A1    1 A2    6 B1   10 A1    2 A2                 
  0.287   0.339   0.351   0.355   0.363   0.365   0.367   0.401
  7 B1   11 A1   12 A1    8 B1    4 B2    9 B1   13 A1   14 A1                 
  0.440   0.444   0.449   0.454   0.475   0.519   0.594   0.642
  3 A2    5 B2   10 B1   15 A1   11 B1   16 A1   17 A1   12 B1                 
  0.692   0.887   0.967   0.985   1.020   1.038   1.082   1.127
 13 B1   18 A1   19 A1   20 A1   21 A1   14 B1    6 B2    4 A2                 
  1.148   1.157   1.178   1.215   1.222   1.265   1.270   1.320
 15 B1   22 A1   16 B1   23 A1    7 B2    8 B2   17 B1   24 A1                 
  1.320   1.388   1.392   1.393   1.470   1.544   1.722   1.726
  5 A2   18 B1    9 B2    6 A2   19 B1   25 A1   26 A1   20 B1                 
  1.727   1.739   1.824   1.969   2.024   2.042   2.049   2.127
 10 B2   21 B1   27 A1    7 A2   28 A1   22 B1   11 B2   12 B2                 
  2.136   2.182   2.282   2.373   2.376   2.431   2.521   2.535
 29 A1   30 A1    8 A2   13 B2   23 B1   24 B1    9 A2   31 A1                 
  2.568   2.679   2.691   2.910   2.929   3.034   3.346   3.449
 32 A1   25 B1   26 B1   33 A1   34 A1   35 A1   27 B1   28 B1                 
  3.926   3.929   3.955   3.955   4.399
 14 B2   29 B1   36 A1   10 A2   37 A1                                         
 
 Beta MOs, Restricted
 -- Occupied --                  
-20.203 -11.129 -11.127  -0.934  -0.908  -0.675  -0.551  -0.460
  1 A1    2 A1    1 B1    3 A1    4 A1    2 B1    5 A1    6 A1                 
 -0.406  -0.270  -0.256  -0.112  -0.112
  3 B1    1 B2    7 A1    2 B2    4 B1                                         
 -- Virtual --                   
  0.132   0.148   0.158   0.163   0.166   0.186   0.230   0.252
  5 B1    8 A1    3 B2    9 A1    1 A2    6 B1   10 A1    2 A2                 
  0.287   0.339   0.351   0.355   0.363   0.365   0.367   0.401
  7 B1   11 A1   12 A1    8 B1    4 B2    9 B1   13 A1   14 A1                 
  0.440   0.444   0.449   0.454   0.475   0.519   0.594   0.642
  3 A2    5 B2   10 B1   15 A1   11 B1   16 A1   17 A1   12 B1                 
  0.692   0.887   0.967   0.985   1.020   1.038   1.082   1.127
 13 B1   18 A1   19 A1   20 A1   21 A1   14 B1    6 B2    4 A2                 
  1.148   1.157   1.178   1.215   1.222   1.265   1.270   1.320
 15 B1   22 A1   16 B1   23 A1    7 B2    8 B2   17 B1   24 A1                 
  1.320   1.388   1.392   1.393   1.470   1.544   1.722   1.726
  5 A2   18 B1    9 B2    6 A2   19 B1   25 A1   26 A1   20 B1                 
  1.727   1.739   1.824   1.969   2.024   2.042   2.049   2.127
 10 B2   21 B1   27 A1    7 A2   28 A1   22 B1   11 B2   12 B2                 
  2.136   2.182   2.282   2.373   2.376   2.431   2.521   2.535
 29 A1   30 A1    8 A2   13 B2   23 B1   24 B1    9 A2   31 A1                 
  2.568   2.679   2.691   2.910   2.929   3.034   3.346   3.449
 32 A1   25 B1   26 B1   33 A1   34 A1   35 A1   27 B1   28 B1                 
  3.926   3.929   3.955   3.955   4.399
 14 B2   29 B1   36 A1   10 A2   37 A1                                         
 --------------------------------------------------------------
 
          Ground-State Mulliken Net Atomic Charges

     Atom                 Charge (a.u.)
  ----------------------------------------
      1 C                    -0.177602
      2 C                    -0.177602
      3 H                     0.130801
      4 H                     0.130801
      5 H                     0.047773
      6 H                     0.047773
      7 O                    -1.049381
      8 H                     0.047438
  ----------------------------------------
  Sum of atomic charges =    -1.000000

 -----------------------------------------------------------------
                    Cartesian Multipole Moments
 -----------------------------------------------------------------
    Charge (ESU x 10^10)
                -4.8032
    Dipole Moment (Debye)
         X      -0.0000      Y       0.0000      Z      13.3664
       Tot      13.3664
    Quadrupole Moments (Debye-Ang)
        XX     -23.1784     XY      -0.0000     YY     -26.3064
        XZ      -0.0000     YZ       0.0000     ZZ     -61.7566
    Octopole Moments (Debye-Ang^2)
       XXX      -0.0000    XXY       0.0000    XYY      -0.0000
       YYY      -0.0000    XXZ       7.5656    XYZ      -0.0000
       YYZ       2.5127    XZZ      -0.0000    YZZ       0.0000
       ZZZ     112.6041
    Hexadecapole Moments (Debye-Ang^3)
      XXXX     -84.9806   XXXY       0.0000   XXYY     -21.0748
      XYYY      -0.0000   YYYY     -37.9164   XXXZ      -0.0000
      XXYZ       0.0000   XYYZ      -0.0000   YYYZ       0.0000
      XXZZ    -170.7622   XYZZ      -0.0000   YYZZ    -174.2491
      XZZZ      -0.0000   YZZZ       0.0000   ZZZZ   -1081.6577
 -----------------------------------------------------------------
 Total job time:  163.40s(wall), 246.27s(cpu) 
 Thu Mar  3 16:10:52 2022

        *************************************************************
        *                                                           *
        *  Thank you very much for using Q-Chem.  Have a nice day.  *
        *                                                           *
        *************************************************************


