/src/tsommerfeld/qchem/exe/qcprog.exe .input2.290909.13696.qcin.1 /src/jdavis/qchem.scratch/qchem13696/

                  Welcome to Q-Chem
     A Quantum Leap Into The Future Of Chemistry


 Q-Chem 5.4 (devel), Q-Chem, Inc., Pleasanton, CA (2021)

 E. Epifanovsky,  A. T. B. Gilbert,  Xintian Feng,  Joonho Lee,  Yuezhi Mao,  
 N. Mardirossian,  P. Pokhilko,  A. White,  M. Wormit,  M. P. Coons,  
 A. L. Dempwolff,  Zhengting Gan,  D. Hait,  P. R. Horn,  L. D. Jacobson,  
 I. Kaliman,  J. Kussmann,  A. W. Lange,  Ka Un Lao,  D. S. Levine,  Jie Liu,  
 S. C. McKenzie,  A. F. Morrison,  K. Nanda,  F. Plasser,  D. R. Rehn,  
 M. L. Vidal,  Zhi-Qiang You,  Ying Zhu,  B. Alam,  B. Albrecht,  
 A. Aldossary,  E. Alguire,  J. H. Andersen,  D. Barton,  K. Begam,  A. Behn,  
 Y. A. Bernard,  E. J. Berquist,  H. Burton,  A. Carreras,  K. Carter-Fenk,  
 R. Chakraborty,  A. D. Chien,  K. D. Closser,  V. Cofer-Shabica,  
 S. Dasgupta,  Jia Deng,  M. de Wergifosse,  M. Diedenhofen,  Hainam Do,  
 S. Ehlert,  Po-Tung Fang,  S. Fatehi,  Qingguo Feng,  T. Friedhoff,  
 J. Gayvert,  Qinghui Ge,  G. Gidofalvi,  M. Goldey,  J. Gomes,  
 C. Gonzalez-Espinoza,  S. Gulania,  A. Gunina,  M. W. D. Hanson-Heine,  
 P. H. P. Harbach,  A. W. Hauser,  M. F. Herbst,  M. Hernandez Vera,  
 M. Hodecker,  Z. C. Holden,  S. Houck,  Xunkun Huang,  Kerwin Hui,  
 B. C. Huynh,  M. Ivanov,  Hyunjun Ji,  Hanjie Jiang,  B. Kaduk,  S. Kaehler,  
 K. Khistyaev,  Jaehoon Kim,  P. Klunzinger,  Z. Koczor-Benda,  
 Joong Hoon Koh,  D. Kosenkov,  L. Koulias,  T. Kowalczyk,  C. M. Krauter,  
 K. Kue,  A. Kunitsa,  T. Kus,  A. Landau,  K. V. Lawler,  D. Lefrancois,  
 S. Lehtola,  Rain Li,  Yi-Pei Li,  Jiashu Liang,  M. Liebenthal,  
 Hung-Hsuan Lin,  You-Sheng Lin,  Fenglai Liu,  Kuan-Yu Liu,  
 M. Loipersberger,  A. Luenser,  A. Manjanath,  P. Manohar,  E. Mansoor,  
 S. F. Manzer,  Shan-Ping Mao,  A. V. Marenich,  T. Markovich,  S. Mason,  
 S. A. Maurer,  P. F. McLaughlin,  M. F. S. J. Menger,  J.-M. Mewes,  
 S. A. Mewes,  P. Morgante,  J. W. Mullinax,  K. J. Oosterbaan,  G. Paran,  
 Alexander C. Paul,  Suranjan K. Paul,  F. Pavosevic,  Zheng Pei,  S. Prager,  
 E. I. Proynov,  E. Ramos,  B. Rana,  A. E. Rask,  A. Rettig,  R. M. Richard,  
 F. Rob,  E. Rossomme,  T. Scheele,  M. Scheurer,  M. Schneider,  
 N. Sergueev,  S. M. Sharada,  W. Skomorowski,  D. W. Small,  C. J. Stein,  
 Yu-Chuan Su,  E. J. Sundstrom,  Zhen Tao,  J. Thirman,  T. Tsuchimochi,  
 N. M. Tubman,  S. P. Veccham,  O. Vydrov,  J. Wenzel,  J. Witte,  A. Yamada,  
 Kun Yao,  S. Yeganeh,  S. R. Yost,  A. Zech,  Igor Ying Zhang,  Xing Zhang,  
 Yu Zhang,  D. Zuev,  A. Aspuru-Guzik,  A. T. Bell,  N. A. Besley,  
 K. B. Bravaya,  B. R. Brooks,  D. Casanova,  Jeng-Da Chai,  S. Coriani,  
 C. J. Cramer,  A. E. DePrince, III,  R. A. DiStasio Jr.,  A. Dreuw,  
 B. D. Dunietz,  T. R. Furlani,  W. A. Goddard III,  S. Grimme,  
 S. Hammes-Schiffer,  T. Head-Gordon,  W. J. Hehre,  Chao-Ping Hsu,  
 T.-C. Jagau,  Yousung Jung,  A. Klamt,  Jing Kong,  D. S. Lambrecht,  
 WanZhen Liang,  N. J. Mayhall,  C. W. McCurdy,  J. B. Neaton,  
 C. Ochsenfeld,  J. A. Parkhill,  R. Peverati,  V. A. Rassolov,  Yihan Shao,  
 L. V. Slipchenko,  T. Stauch,  R. P. Steele,  J. E. Subotnik,  
 A. J. W. Thom,  A. Tkatchenko,  D. G. Truhlar,  T. Van Voorhis,  
 T. A. Wesolowski,  K. B. Whaley,  H. L. Woodcock III,  P. M. Zimmerman,  
 S. Faraji,  P. M. W. Gill,  M. Head-Gordon,  J. M. Herbert,  A. I. Krylov

 Additional authors for Version 5.4.1: 
 S. Kotaru,  Shaozhi Li,  Xiangyuan Li,  F. Matz,  A. Molle,  Haisheng Ren,  
 Yingli Su,  Hung-Yi Tsai,  C. Utku,  Fang Wang

 Contributors to earlier versions of Q-Chem not listed above: 
 R. D. Adamson,  B. Austin,  R. Baer,  J. Baker,  G. J. O. Beran,  
 K. Brandhorst,  S. T. Brown,  E. F. C. Byrd,  A. K. Chakraborty,  
 G. K. L. Chan,  Chun-Min Chang,  Yunqing Chen,  C.-L. Cheng,  
 Siu Hung Chien,  D. M. Chipman,  D. L. Crittenden,  H. Dachsel,  
 R. J. Doerksen,  A. D. Dutoi,  R. G. Edgar,  J. Fosso-Tande,  
 L. Fusti-Molnar,  D. Ghosh,  A. Ghysels,  A. Golubeva-Zadorozhnaya,  
 J. Gonthier,  M. S. Gordon,  S. R. Gwaltney,  G. Hawkins,  J. E. Herr,  
 A. Heyden,  S. Hirata,  E. G. Hohenstein,  G. Kedziora,  F. J. Keil,  
 C. Kelley,  Jihan Kim,  R. A. King,  R. Z. Khaliullin,  P. P. Korambath,  
 W. Kurlancheek,  A. Laurent,  A. M. Lee,  M. S. Lee,  S. V. Levchenko,  
 Ching Yeh Lin,  D. Liotard,  E. Livshits,  R. C. Lochan,  I. Lotan,  
 L. A. Martinez-Martinez,  P. E. Maslen,  N. Nair,  D. P. O'Neill,  
 D. Neuhauser,  E. Neuscamman,  C. M. Oana,  R. Olivares-Amaya,  R. Olson,  
 T. M. Perrine,  B. Peters,  P. A. Pieniazek,  A. Prociuk,  Y. M. Rhee,  
 J. Ritchie,  M. A. Rohrdanz,  E. Rosta,  N. J. Russ,  H. F. Schaefer III,  
 M. W. Schmidt,  N. E. Schultz,  S. Sharma,  N. Shenvi,  C. D. Sherrill,  
 A. C. Simmonett,  A. Sodt,  T. Stein,  D. Stuck,  K. S. Thanthiriwatte,  
 V. Vanovschi,  L. Vogt,  Tao Wang,  A. Warshel,  M. A. Watson,  
 C. F. Williams,  Q. Wu,  X. Xu,  Jun Yang,  W. Zhang,  Yan Zhao

 Please cite Q-Chem as follows:
 Y. Shao et al., Mol. Phys. 113, 184-215 (2015)
 DOI: 10.1080/00268976.2014.952696

 Q-Chem 5.4.1 for Intel X86 EM64T Linux

 Parts of Q-Chem use Armadillo 9.900.5 (Nocturnal Misbehaviour).
 http://arma.sourceforge.net/

 Q-Chem begins on Fri Mar  4 18:16:00 2022  

 Host: node01
0

     Scratch files written to /src/jdavis/qchem.scratch/qchem13696//
 Processing $rem in /src/tsommerfeld/qchem/config/preferences:
 Processing $rem in /home/jdavis/.qchemrc:

 Checking the input file for inconsistencies... 	...done.

--------------------------------------------------------------
User input:
--------------------------------------------------------------
$molecule
-1 1
C        -0.6645000000    0.0000000000    1.1619088658
C         0.6645000000    0.0000000000    1.1619088658
H        -1.1590800000    0.0000000000    0.1995598658
H         1.1590800000    0.0000000000    0.1995598658
H        -1.1590800000    0.0000000000    2.1242568658
H         1.1590800000    0.0000000000    2.1242568658
O         0.0000000000    0.0000000000   -1.5841414040
H         0.0000000000    0.0000000000   -2.5471307683
$end
$rem
   METHOD adc(2)
   BASIS gen
   PURECART 11
   EE_STATES [0,0,0,10]
   scf_convergence 8
   ADC_DAVIDSON_MAXITER 120
   ADC_DAVIDSON_MAXSUBSPACE 200
   adc_nguess_singles 100
   THRESH 14
   S2THRESH 14
   adc_davidson_conv 5
   adc_davidson_thresh 14
   THREADS 10
   MEM_TOTAL 95000
   STATE_ANALYSIS TRUE
$end
$basis
C 1
S   9   1.00
      6.665000D+03           6.920000D-04
      1.000000D+03           5.329000D-03
      2.280000D+02           2.707700D-02
      6.471000D+01           1.017180D-01
      2.106000D+01           2.747400D-01
      7.495000D+00           4.485640D-01
      2.797000D+00           2.850740D-01
      5.215000D-01           1.520400D-02
      1.596000D-01          -3.191000D-03
S   9   1.00
      6.665000D+03          -1.460000D-04
      1.000000D+03          -1.154000D-03
      2.280000D+02          -5.725000D-03
      6.471000D+01          -2.331200D-02
      2.106000D+01          -6.395500D-02
      7.495000D+00          -1.499810D-01
      2.797000D+00          -1.272620D-01
      5.215000D-01           5.445290D-01
      1.596000D-01           5.804960D-01
S   1   1.00
      1.596000D-01           1.000000D+00
S   1   1.00
      0.0469000              1.0000000
P   4   1.00
      9.439000D+00           3.810900D-02
      2.002000D+00           2.094800D-01
      5.456000D-01           5.085570D-01
      1.517000D-01           4.688420D-01
P   1   1.00
      1.517000D-01           1.000000D+00
P   1   1.00
      0.0992945      1.0000000
P   1   1.00
      0.0496473      1.0000000
P   1   1.00
      0.0248236      1.0000000
P   1   1.00
      0.0124118      1.0000000
D   1   1.00
      5.500000D-01           1.0000000
****
C 2
S   9   1.00
      6.665000D+03           6.920000D-04
      1.000000D+03           5.329000D-03
      2.280000D+02           2.707700D-02
      6.471000D+01           1.017180D-01
      2.106000D+01           2.747400D-01
      7.495000D+00           4.485640D-01
      2.797000D+00           2.850740D-01
      5.215000D-01           1.520400D-02
      1.596000D-01          -3.191000D-03
S   9   1.00
      6.665000D+03          -1.460000D-04
      1.000000D+03          -1.154000D-03
      2.280000D+02          -5.725000D-03
      6.471000D+01          -2.331200D-02
      2.106000D+01          -6.395500D-02
      7.495000D+00          -1.499810D-01
      2.797000D+00          -1.272620D-01
      5.215000D-01           5.445290D-01
      1.596000D-01           5.804960D-01
S   1   1.00
      1.596000D-01           1.000000D+00
S   1   1.00
      0.0469000              1.0000000
P   4   1.00
      9.439000D+00           3.810900D-02
      2.002000D+00           2.094800D-01
      5.456000D-01           5.085570D-01
      1.517000D-01           4.688420D-01
P   1   1.00
      1.517000D-01           1.000000D+00
P   1   1.00
      0.0992945      1.0000000
P   1   1.00
      0.0496473      1.0000000
P   1   1.00
      0.0248236      1.0000000
P   1   1.00
      0.0124118      1.0000000
D   1   1.00
      5.500000D-01           1.0000000
****
H 3
cc-pVDZ
****
H 4
cc-pVDZ
****
H 5
cc-pVDZ
****
H 6
cc-pVDZ
****
O 7
aug-cc-pVDZ
****
H 8
cc-pVDZ
****
$end
--------------------------------------------------------------
 ----------------------------------------------------------------
             Standard Nuclear Orientation (Angstroms)
    I     Atom           X                Y                Z
 ----------------------------------------------------------------
    1      C      -0.6645000000    -0.0000000000     1.0270977517
    2      C       0.6645000000     0.0000000000     1.0270977517
    3      H      -1.1590800000    -0.0000000000     0.0647487517
    4      H       1.1590800000     0.0000000000     0.0647487517
    5      H      -1.1590800000    -0.0000000000     1.9894457517
    6      H       1.1590800000     0.0000000000     1.9894457517
    7      O       0.0000000000    -0.0000000000    -1.7189525181
    8      H       0.0000000000    -0.0000000000    -2.6819418824
 ----------------------------------------------------------------
 Molecular Point Group                 C2v   NOp =  4
 Largest Abelian Subgroup              C2v   NOp =  4
 Nuclear Repulsion Energy =          64.38561153 hartrees
 There are       13 alpha and       13 beta electrons
 Requested basis set is non-standard
 There are 46 shells and 102 basis functions
 Total memory of 95000 MB is distributed as follows: 
   MEM_STATIC is set to 192 MB
   QALLOC/CCMAN JOB total memory use is  94808 MB
 Warning: actual memory use might exceed 95000 MB

 Total QAlloc Memory Limit  95000 MB
 Mega-Array Size       188 MB
 MEM_STATIC part       192 MB

                       Distance Matrix (Angstroms)
             C (  1)   C (  2)   H (  3)   H (  4)   H (  5)   H (  6)
   C (  2)  1.329000
   H (  3)  1.082000  2.061931
   H (  4)  2.061931  1.082000  2.318160
   H (  5)  1.082000  2.061931  1.924697  3.013026
   H (  6)  2.061931  1.082000  3.013026  1.924697  2.318160
   O (  7)  2.825306  2.825306  2.127218  2.127218  3.885316  3.885316
   H (  8)  3.768094  3.768094  2.981237  2.981237  4.813037  4.813037
             O (  7)
   H (  8)  0.962989
 
 A cutoff of  1.0D-14 yielded   1081 shell pairs
 There are      5353 function pairs (      5791 Cartesian)
 Smallest overlap matrix eigenvalue = 1.45E-04

 Scale SEOQF with 1.000000e-01/1.000000e-01/1.000000e-01

 Standard Electronic Orientation quadrupole field applied
 Nucleus-field energy     =    -0.0000000051 hartrees
 ================ Generating on-the-fly SAD Guess ================
Attempting to make child job directory: /src/jdavis/qchem.scratch/qchem13696//Frg1/
Attempting to make child job directory: /src/jdavis/qchem.scratch/qchem13696//Frg2/
Attempting to make child job directory: /src/jdavis/qchem.scratch/qchem13696//Frg3/
Creating input file /src/jdavis/qchem.scratch/qchem13696/Frg1.input
using default PutDataFrgm: nothing
calling putenv with: QCSCRATCH=/src/jdavis/qchem.scratch/qchem13696/ 
Spawning Job For Fragment 0
Done Job For Fragment 0
calling putenv with: QCSCRATCH=/src/jdavis/qchem.scratch 
calling putenv with: QCTHREADS=1 
Creating input file /src/jdavis/qchem.scratch/qchem13696/Frg2.input
using default PutDataFrgm: nothing
calling putenv with: QCSCRATCH=/src/jdavis/qchem.scratch/qchem13696/ 
Spawning Job For Fragment 1
Done Job For Fragment 1
calling putenv with: QCSCRATCH=/src/jdavis/qchem.scratch 
calling putenv with: QCTHREADS=1 
Creating input file /src/jdavis/qchem.scratch/qchem13696/Frg3.input
using default PutDataFrgm: nothing
calling putenv with: QCSCRATCH=/src/jdavis/qchem.scratch/qchem13696/ 
Spawning Job For Fragment 2
Done Job For Fragment 2
calling putenv with: QCSCRATCH=/src/jdavis/qchem.scratch 
calling putenv with: QCTHREADS=1 
 Time for running child jobs:  CPU 1.77 s  wall 80.88 s
 ============= Method Specific SAD Guess Constructed =============
 Guess from on-the-fly superposition of atomic densities
 Warning: Energy on first SCF cycle will be non-variational
 A restricted Hartree-Fock SCF calculation will be
 performed using Pulay DIIS extrapolation
 SCF converges when DIIS error is below 1.0E-08
 using 10 threads for integral computing
 -------------------------------------------------------
 OpenMP Integral computing Module                
 Release: version 1.0, May 2013, Q-Chem Inc. Pittsburgh 
 -------------------------------------------------------
 ---------------------------------------
  Cycle       Energy         DIIS Error
 ---------------------------------------
    1    -153.5772067372      5.28E-02
    2    -153.2903454969      1.08E-02
    3    -153.3537299354      9.16E-03
    4    -153.4407470788      6.90E-04
    5    -153.4417226312      1.90E-04
    6    -153.4417999122      4.14E-05
    7    -153.4418055836      1.10E-05
    8    -153.4418061854      3.33E-06
    9    -153.4418062364      6.40E-07
   10    -153.4418062380      1.18E-07
   11    -153.4418062381      3.85E-08
   12    -153.4418062381      1.26E-08
   13    -153.4418062381      2.44E-09 Convergence criterion met
 ---------------------------------------
 SCF time:  CPU 16.48 s  wall 1.66 s
 SCF   energy in the final basis set = -153.44180624
 Total energy in the final basis set = -153.44180624
================================================================================
|                                                                              |
|                                 A D C  M A N                                 |
|                                                                              |
 ------------------------------------------------------------------------------ 
|                                                                              |
| Components:                                                                  |
|                                                                              |
| - libvmm - 1.3-trunk                                                         |
|   Authors:                                                                   |
|   Evgeny Epifanovsky, Ilya Kaliman                                           |
|                                                                              |
| - libtensor - 2.5-trunk                                                      |
|   Authors:                                                                   |
|   Evgeny Epifanovsky, Michael Wormit, Dmitry Zuev, Sam Manzer,               |
|   Ilya Kaliman                                                               |
|                                                                              |
| - libwfa - 1.1-trunk                                                         |
|   Authors:                                                                   |
|   Felix Plasser, Stefanie Mewes (Baeppler), Benjamin Thomitzni,              |
|   Michael Wormit, Feng Chen, Anna I. Krylov, Pavel Pokhilko                  |
|                                                                              |
| - libadc - 1.1-trunk                                                         |
|   Authors:                                                                   |
|   Michael Wormit, Adrian L. Dempwolff, Philipp H. P. Harbach,                |
|   Caroline Krauter, Dirk Rehn, Matthias Schneider, Jan Wenzel                |
|                                                                              |
| - adcman - 2.6-trunk                                                         |
|   Authors:                                                                   |
|   Michael Wormit, Adrian L. Dempwolff, Philipp H. P. Harbach,                |
|   Caroline Krauter, Daniel Lefrancois, Jan-Michael Mewes, Dirk Rehn,         |
|   Matthias Schneider, Jan Wenzel, Andreas Dreuw                              |
|                                                                              |
| Authors of earlier versions of ADCMAN:                                       |
| Andreas Dreuw, Jan Hendrik Starcke, Dirk Rehn, Michael Wormit                |
|                                                                              |
================================================================================

 
 Alpha MOs, Restricted
 -- Occupied --                  
-20.213 -11.049 -11.047  -0.930  -0.854  -0.598  -0.473  -0.384
  1 A1    2 A1    1 B1    3 A1    4 A1    2 B1    5 A1    6 A1                 
 -0.328  -0.271  -0.194  -0.130  -0.129
  3 B1    7 A1    1 B2    4 B1    2 B2                                         
 -- Virtual --                   
  0.095   0.104   0.105   0.107   0.116   0.126   0.170   0.178
  5 B1    3 B2    8 A1    1 A2    6 B1    9 A1   10 A1    7 B1                 
  0.197   0.197   0.201   0.219   0.279   0.305   0.328   0.328
  4 B2   11 A1    2 A2    8 B1   12 A1    3 A2    9 B1   13 A1                 
  0.347   0.349   0.364   0.374   0.392   0.438   0.452   0.486
 10 B1   14 A1    5 B2   15 A1   11 B1    4 A2    6 B2   12 B1                 
  0.499   0.527   0.543   0.579   0.642   0.643   0.683   0.703
 16 A1   17 A1   13 B1   18 A1   14 B1   19 A1   20 A1   15 B1                 
  0.708   0.731   0.746   0.764   0.827   1.011   1.059   1.130
  7 B2   16 B1   21 A1    5 A2   17 B1   22 A1   23 A1   18 B1                 
  1.166   1.200   1.287   1.291   1.322   1.327   1.329   1.369
 24 A1    8 B2   19 B1    6 A2   25 A1   20 B1   26 A1    9 B2                 
  1.372   1.372   1.425   1.446   1.482   1.550   1.567   1.649
 27 A1   21 B1   28 A1   10 B2    7 A2    8 A2   11 B2   22 B1                 
  1.676   1.698   1.719   1.851   1.887   2.047   2.050   2.078
 23 B1   29 A1   12 B2   24 B1   30 A1   25 B1   31 A1    9 A2                 
  2.134   2.170   2.210   2.213   2.286   2.372   2.374   2.398
 13 B2   32 A1   26 B1   14 B2   33 A1   34 A1   10 A2   15 B2                 
  2.440   2.537   2.587   2.604   2.772   2.778   2.858   3.077
 27 B1   28 B1   35 A1   11 A2   29 B1   36 A1   30 B1   37 A1                 
  3.132   3.172   3.543   3.593   3.923   3.945   3.973   4.091
 38 A1   39 A1   31 B1   32 B1   16 B2   12 A2   40 A1   33 B1                 
  4.548
 41 A1                                                                         
 
 Beta MOs, Restricted
 -- Occupied --                  
-20.213 -11.049 -11.047  -0.930  -0.854  -0.598  -0.473  -0.384
  1 A1    2 A1    1 B1    3 A1    4 A1    2 B1    5 A1    6 A1                 
 -0.328  -0.271  -0.194  -0.130  -0.129
  3 B1    7 A1    1 B2    4 B1    2 B2                                         
 -- Virtual --                   
  0.095   0.104   0.105   0.107   0.116   0.126   0.170   0.178
  5 B1    3 B2    8 A1    1 A2    6 B1    9 A1   10 A1    7 B1                 
  0.197   0.197   0.201   0.219   0.279   0.305   0.328   0.328
  4 B2   11 A1    2 A2    8 B1   12 A1    3 A2    9 B1   13 A1                 
  0.347   0.349   0.364   0.374   0.392   0.438   0.452   0.486
 10 B1   14 A1    5 B2   15 A1   11 B1    4 A2    6 B2   12 B1                 
  0.499   0.527   0.543   0.579   0.642   0.643   0.683   0.703
 16 A1   17 A1   13 B1   18 A1   14 B1   19 A1   20 A1   15 B1                 
  0.708   0.731   0.746   0.764   0.827   1.011   1.059   1.130
  7 B2   16 B1   21 A1    5 A2   17 B1   22 A1   23 A1   18 B1                 
  1.166   1.200   1.287   1.291   1.322   1.327   1.329   1.369
 24 A1    8 B2   19 B1    6 A2   25 A1   20 B1   26 A1    9 B2                 
  1.372   1.372   1.425   1.446   1.482   1.550   1.567   1.649
 27 A1   21 B1   28 A1   10 B2    7 A2    8 A2   11 B2   22 B1                 
  1.676   1.698   1.719   1.851   1.887   2.047   2.050   2.078
 23 B1   29 A1   12 B2   24 B1   30 A1   25 B1   31 A1    9 A2                 
  2.134   2.170   2.210   2.213   2.286   2.372   2.374   2.398
 13 B2   32 A1   26 B1   14 B2   33 A1   34 A1   10 A2   15 B2                 
  2.440   2.537   2.587   2.604   2.772   2.778   2.858   3.077
 27 B1   28 B1   35 A1   11 A2   29 B1   36 A1   30 B1   37 A1                 
  3.132   3.172   3.543   3.593   3.923   3.945   3.973   4.091
 38 A1   39 A1   31 B1   32 B1   16 B2   12 A2   40 A1   33 B1                 
  4.548
 41 A1                                                                         

--------------------------------------------------------------------------------
                                   HF Summary                                   
--------------------------------------------------------------------------------
  Energy:                                                 -153.4418062381 a.u.
  Dip. moment [a.u.]:                  [  -0.000000,    0.000000,    2.081008]
  Total dipole [Debye]:                                               5.289396
  <r^2> [a.u.]:                        [  55.695864,   19.719970,  208.056816]
  Total <r^2> [a.u.]:                                               283.472650
--------------------------------------------------------------------------------

--------------------------------------------------------------------------------
                                 MP(2) Summary                                  
--------------------------------------------------------------------------------
  MP energy contribution:                                   -0.5310597267 a.u.
  Total energy:                                           -153.9728659648 a.u.
  Dip. moment [a.u.]:                  [   0.000000,   -0.000000,    2.151561]
  Total dipole [Debye]:                                               5.468724
  <r^2> [a.u.]:                        [  56.693112,   20.420702,  209.349266]
  Total <r^2> [a.u.]:                                               286.463080

  Density matrix analysis:
  ------------------------
  NOs
    Occupation of frontier NOs:
       0.0447   1.9355
    Number of electrons: 26.000000
    Number of unpaired electrons: n_u =  0.71644, n_u,nl =  0.08559
    NO participation ratio (PR_NO): 23.026222
  
  
  Mulliken Population Analysis
  Atom      Charge (e)              h+              e-           Del q
  --------------------------------------------------------------------
   1 C       -0.271413        0.094302       -0.099124       -0.004823
   2 C       -0.271413        0.094302       -0.099124       -0.004823
   3 H        0.226661        0.017515       -0.011030        0.006485
   4 H        0.226661        0.017515       -0.011030        0.006485
   5 H        0.057479        0.019523       -0.012183        0.007340
   6 H        0.057479        0.019523       -0.012183        0.007340
   7 O       -1.079795        0.278942       -0.279965       -0.001023
   8 H        0.054341        0.015211       -0.032193       -0.016983
  --------------------------------------------------------------------
  Sum:       -1.000000        0.556832       -0.556832        0.000000
  
  Multipole moment analysis of the density matrix
    Molecular charge:                      -1.000000
    Number of electrons:                   26.000000
      Center of electronic charge [Ang]: [ -0.000000,   0.000000,  -0.043791]
    Total nuclear charge:                  25.000000
      Center of nuclear charge [Ang]:    [  0.000000,   0.000000,  -0.000000]
    Dipole moment [D]:                     5.468722
      Cartesian components [D]:          [  0.000000,  -0.000000,   5.468722]
    RMS size of the density [Ang]:         1.755957
      Cartesian components [Ang]:        [  0.781411,   0.468975,   1.500947]
  
  Exciton analysis of the difference density matrix
    <r_h> [Ang]:                  [ -0.000000,   0.000000,  -0.481923]
    <r_e> [Ang]:                  [ -0.000000,   0.000000,  -0.548972]
    |<r_e - r_h>| [Ang]:            0.067049
    Hole size [Ang]:                1.973063
      Cartesian components [Ang]: [  0.891193,   0.761522,   1.587084]
    Electron size [Ang]:            2.308188
      Cartesian components [Ang]: [  1.138304,   0.965563,   1.760591]
--------------------------------------------------------------------------------
  Starting Davidson for singlet states of irrep B2 ... 
--------------------------------------------------------------------------------
   It NVec Conv  Avg. Norm  Max. Norm  Conv. states           Remark
--------------------------------------------------------------------------------
       100    0  1.506e-01  5.335e-01  0.2180 n n n n n n n n Guess.
    1  110    0  1.413e-02  5.612e-02  0.0450 n n n n n n n n 
    2  120    0  1.620e-02  1.474e-01  0.0437 n n n n n n n n 
    3  130    0  1.242e-02  1.222e-01  0.0437 n n n n n n n n 
    4  140    0  2.926e-03  2.898e-02  0.0437 n n n n n n n n 
    5  150    3  5.202e-04  5.028e-03  0.0437 y y y n n n n n 
    6  160    5  7.294e-04  7.253e-03  0.0437 y y y y y n n n 
    7  170    7  9.603e-05  9.552e-04  0.0437 y y y y y y y n 
    8  180    8  1.947e-05  1.944e-04  0.0437 y y y y y y y n 
    9  190    9  3.065e-06  3.061e-05  0.0437 y y y y y y y y 
   10  200   10  5.105e-07  5.102e-06  0.0437 y y y y y y y y Converged.
--------------------------------------------------------------------------------
  Davidson Summary: 
 ------------------------------------------------------------
  State  0: excitation energy =   0.0437 a.u.   (converged)
  State  1: excitation energy =   0.0563 a.u.   (converged)
  State  2: excitation energy =   0.0632 a.u.   (converged)
  State  3: excitation energy =   0.0923 a.u.   (converged)
  State  4: excitation energy =   0.1117 a.u.   (converged)
  State  5: excitation energy =   0.1182 a.u.   (converged)
  State  6: excitation energy =   0.1581 a.u.   (converged)
  State  7: excitation energy =   0.1698 a.u.   (converged)
  State  8: excitation energy =   0.1777 a.u.   (converged)
  State  9: excitation energy =   0.1981 a.u.   (converged)
 ------------------------------------------------------------


--------------------------------------------------------------------------------
                   State-averaged natural transition orbitals
--------------------------------------------------------------------------------
--------------------------------------------------------------------------------

--------------------------------------------------------------------------------
                             Excited State Summary
--------------------------------------------------------------------------------
--------------------------------------------------------------------------------

  Excited state 1 (singlet, B2)                                    [converged]
  ----------------------------------------------------------------------------
  Term symbol:  1 (1) B2                                    R^2 =  1.24004e-10

  Total energy:                                           -153.9291690195 a.u.
  Excitation energy:                                               1.189054 eV

  Osc. strength:                                                      0.003561
  Trans. dip. moment [a.u.]:           [  -0.000000,   -0.349620,   -0.000000]
  <i|r^2|0> [a.u.]:                    [  -0.000000,   -0.000000,   -0.000000]

  Dip. moment [a.u.]:                  [   0.000000,   -0.000000,   -2.782034]
  Total dipole [Debye]:                                               7.071227
  <r^2> [a.u.]:                        [  87.216193,   49.325622,  294.893334]
  Total <r^2> [a.u.]:                                               431.435149

  V1^2 = 0.8659, V2^2 = 0.1341

  Important amplitudes:
      occ i      occ j       vir a       vir b          v   
    ---------------------------------------------------------
     2 (B2) A               8 (A1) A                 -0.5991
     2 (B2) A               9 (A1) A                 -0.2179
    ---------------------------------------------------------

  Density matrix analysis:
  ------------------------
  NOs
    Occupation of frontier NOs:
       0.9602   0.9994
    Number of electrons: 26.000000
    Number of unpaired electrons: n_u =  2.75156, n_u,nl =  2.11654
    NO participation ratio (PR_NO):  3.877656
  
  
  Mulliken Population Analysis
  Atom      Charge (e)              h+              e-           Del q
  --------------------------------------------------------------------
   1 C       -0.774866        0.033205       -0.536658       -0.503453
   2 C       -0.774866        0.033205       -0.536658       -0.503453
   3 H        0.188091       -0.001879       -0.036691       -0.038570
   4 H        0.188091       -0.001879       -0.036691       -0.038570
   5 H        0.094619        0.037208       -0.000069        0.037140
   6 H        0.094619        0.037208       -0.000069        0.037140
   7 O       -0.193299        1.411919       -0.525423        0.886496
   8 H        0.177611        0.146687       -0.023417        0.123270
  --------------------------------------------------------------------
  Sum:       -1.000000        1.695675       -1.695675        0.000000
  
  Multipole moment analysis of the density matrix
    Molecular charge:                      -1.000000
    Number of electrons:                   26.000000
      Center of electronic charge [Ang]: [ -0.000000,   0.000000,   0.056623]
    Total nuclear charge:                  25.000000
      Center of nuclear charge [Ang]:    [  0.000000,   0.000000,  -0.000000]
    Dipole moment [D]:                     7.071225
      Cartesian components [D]:          [  0.000000,  -0.000000,  -7.071225]
    RMS size of the density [Ang]:         2.154876
      Cartesian components [Ang]:        [  0.969199,   0.728871,   1.781261]
  
  Exciton analysis of the difference density matrix
    <r_h> [Ang]:                  [  0.000000,   0.000000,  -1.492427]
    <r_e> [Ang]:                  [ -0.000000,   0.000000,   0.047222]
    |<r_e - r_h>| [Ang]:            1.539650
    Hole size [Ang]:                1.802323
      Cartesian components [Ang]: [  0.858774,   0.895191,   1.307482]
    Electron size [Ang]:            5.423519
      Cartesian components [Ang]: [  2.403780,   2.361102,   4.249894]

  Transition density matrix analysis:
  -----------------------------------
  
  CT numbers (Mulliken)
    omega =     0.8512
    <Phe> =    -0.0007
  
  Exciton analysis of the transition density matrix
    Trans. dipole moment [D]:             0.444323
      Cartesian components [D]:         [ -0.000000,  -0.444323,  -0.000000]
    <r_h> [Ang]:                        [  0.000000,   0.000000,  -1.746552]
    <r_e> [Ang]:                        [ -0.000000,   0.000000,   0.919832]
    |<r_e - r_h>| [Ang]:                  2.666384
    Hole size [Ang]:                      1.096270
      Cartesian components [Ang]:       [  0.478854,   0.826959,   0.537257]
    Electron size [Ang]:                  6.757015
      Cartesian components [Ang]:       [  3.032381,   3.005524,   5.237246]
    RMS electron-hole separation [Ang]:   7.345341
      Cartesian components [Ang]:       [  3.069789,   3.116785,   5.900515]
    Covariance(r_h, r_e) [Ang^2]:         0.007317
    Correlation coefficient:              0.000988
    Center-of-mass size [Ang]:            3.423218
      Cartesian components [Ang]:       [  1.535062,   1.558824,   2.632883]

  Decomposition into state-averaged NTOs
    H- 0 -> L+ 6:  0.4215 ( 35.5%)
    H- 0 -> L+ 4: -0.3212 ( 20.6%)
    H- 0 -> L+ 8:  0.2924 ( 17.1%)
    H- 0 -> L+ 0:  0.1837 (  6.7%)
    H- 0 -> L+ 3:  0.1199 (  2.9%)
    H- 0 -> L+ 1:  0.1048 (  2.2%)
                   omega =  85.1%
  ----------------------------------------------------------------------------


  Excited state 2 (singlet, B2)                                    [converged]
  ----------------------------------------------------------------------------
  Term symbol:  2 (1) B2                                    R^2 =  1.21158e-10

  Total energy:                                           -153.9166069696 a.u.
  Excitation energy:                                               1.530885 eV

  Osc. strength:                                                      0.000766
  Trans. dip. moment [a.u.]:           [   0.000000,   -0.142930,    0.000000]
  <i|r^2|0> [a.u.]:                    [  -0.000000,   -0.000000,    0.000000]

  Dip. moment [a.u.]:                  [   0.000000,    0.000000,   -2.887885]
  Total dipole [Debye]:                                               7.340272
  <r^2> [a.u.]:                        [ 137.557528,  101.963892,  225.378021]
  Total <r^2> [a.u.]:                                               464.899441

  V1^2 = 0.8619, V2^2 = 0.1381

  Important amplitudes:
      occ i      occ j       vir a       vir b          v   
    ---------------------------------------------------------
     4 (B1) A               1 (A2) A                 -0.6493
     4 (B1) A               2 (A2) A                 -0.0932
    ---------------------------------------------------------

  Density matrix analysis:
  ------------------------
  NOs
    Occupation of frontier NOs:
       0.9597   0.9995
    Number of electrons: 26.000000
    Number of unpaired electrons: n_u =  2.75537, n_u,nl =  2.11788
    NO participation ratio (PR_NO):  3.889470
  
  
  Mulliken Population Analysis
  Atom      Charge (e)              h+              e-           Del q
  --------------------------------------------------------------------
   1 C       -0.763210        0.045589       -0.537386       -0.491797
   2 C       -0.763210        0.045589       -0.537386       -0.491797
   3 H        0.176604       -0.006595       -0.043463       -0.050057
   4 H        0.176604       -0.006595       -0.043463       -0.050057
   5 H        0.093524        0.037118       -0.001073        0.036045
   6 H        0.093524        0.037118       -0.001073        0.036045
   7 O       -0.183167        1.422726       -0.526097        0.896628
   8 H        0.169331        0.140290       -0.025300        0.114990
  --------------------------------------------------------------------
  Sum:       -1.000000        1.715241       -1.715241       -0.000000
  
  Multipole moment analysis of the density matrix
    Molecular charge:                      -1.000000
    Number of electrons:                   26.000000
      Center of electronic charge [Ang]: [ -0.000000,  -0.000000,   0.058777]
    Total nuclear charge:                  25.000000
      Center of nuclear charge [Ang]:    [  0.000000,   0.000000,  -0.000000]
    Dipole moment [D]:                     7.340270
      Cartesian components [D]:          [  0.000000,   0.000000,  -7.340270]
    RMS size of the density [Ang]:         2.236887
      Cartesian components [Ang]:        [  1.217185,   1.047943,   1.556901]
  
  Exciton analysis of the difference density matrix
    <r_h> [Ang]:                  [  0.000000,   0.000000,  -1.468438]
    <r_e> [Ang]:                  [ -0.000000,  -0.000000,   0.086305]
    |<r_e - r_h>| [Ang]:            1.554743
    Hole size [Ang]:                1.814193
      Cartesian components [Ang]: [  0.943931,   0.806323,   1.322926]
    Electron size [Ang]:            5.879753
      Cartesian components [Ang]: [  3.754044,   3.736685,   2.552613]

  Transition density matrix analysis:
  -----------------------------------
  
  CT numbers (Mulliken)
    omega =     0.8475
    <Phe> =     0.0000
  
  Exciton analysis of the transition density matrix
    Trans. dipole moment [D]:             0.181646
      Cartesian components [D]:         [  0.000000,  -0.181646,   0.000000]
    <r_h> [Ang]:                        [ -0.000000,  -0.000000,  -1.728501]
    <r_e> [Ang]:                        [ -0.000000,  -0.000000,   1.027258]
    |<r_e - r_h>| [Ang]:                  2.755758
    Hole size [Ang]:                      1.140570
      Cartesian components [Ang]:       [  0.827953,   0.472908,   0.625900]
    Electron size [Ang]:                  7.410271
      Cartesian components [Ang]:       [  4.861853,   4.842917,   2.796543]
    RMS electron-hole separation [Ang]:   7.987290
      Cartesian components [Ang]:       [  4.930863,   4.865879,   3.975753]
    Covariance(r_h, r_e) [Ang^2]:         0.005208
    Correlation coefficient:              0.000616
    Center-of-mass size [Ang]:            3.749114
      Cartesian components [Ang]:       [  2.466416,   2.433012,   1.432865]

  Decomposition into state-averaged NTOs
    H- 1 -> L+ 7: -0.5841 ( 68.2%)
    H- 1 -> L+ 2:  0.2811 ( 15.8%)
                   omega =  84.7%
  ----------------------------------------------------------------------------


  Excited state 3 (singlet, B2)                                    [converged]
  ----------------------------------------------------------------------------
  Term symbol:  3 (1) B2                                    R^2 =  1.71365e-10

  Total energy:                                           -153.9096781652 a.u.
  Excitation energy:                                               1.719427 eV

  Osc. strength:                                                      0.005472
  Trans. dip. moment [a.u.]:           [  -0.000000,   -0.360401,    0.000000]
  <i|r^2|0> [a.u.]:                    [   0.000000,    0.000000,   -0.000000]

  Dip. moment [a.u.]:                  [   0.000000,    0.000000,   -3.166334]
  Total dipole [Debye]:                                               8.048020
  <r^2> [a.u.]:                        [ 155.151989,   51.398651,  231.222585]
  Total <r^2> [a.u.]:                                               437.773225

  V1^2 = 0.8642, V2^2 = 0.1358

  Important amplitudes:
      occ i      occ j       vir a       vir b          v   
    ---------------------------------------------------------
     2 (B2) A               9 (A1) A                 -0.5992
     2 (B2) A               8 (A1) A                  0.2355
    ---------------------------------------------------------

  Density matrix analysis:
  ------------------------
  NOs
    Occupation of frontier NOs:
       0.9600   0.9987
    Number of electrons: 26.000000
    Number of unpaired electrons: n_u =  2.75368, n_u,nl =  2.11748
    NO participation ratio (PR_NO):  3.887112
  
  
  Mulliken Population Analysis
  Atom      Charge (e)              h+              e-           Del q
  --------------------------------------------------------------------
   1 C       -0.773879        0.038178       -0.540643       -0.502465
   2 C       -0.773879        0.038178       -0.540643       -0.502465
   3 H        0.183460       -0.001658       -0.041543       -0.043201
   4 H        0.183460       -0.001658       -0.041543       -0.043201
   5 H        0.088005        0.036336       -0.005810        0.030526
   6 H        0.088005        0.036336       -0.005810        0.030526
   7 O       -0.151845        1.416866       -0.488915        0.927950
   8 H        0.156672        0.139861       -0.037530        0.102331
  --------------------------------------------------------------------
  Sum:       -1.000000        1.702437       -1.702437       -0.000000
  
  Multipole moment analysis of the density matrix
    Molecular charge:                      -1.000000
    Number of electrons:                   26.000000
      Center of electronic charge [Ang]: [ -0.000000,  -0.000000,   0.064444]
    Total nuclear charge:                  25.000000
      Center of nuclear charge [Ang]:    [  0.000000,   0.000000,  -0.000000]
    Dipole moment [D]:                     8.048018
      Cartesian components [D]:          [  0.000000,   0.000000,  -8.048018]
    RMS size of the density [Ang]:         2.170440
      Cartesian components [Ang]:        [  1.292686,   0.744030,   1.576766]
  
  Exciton analysis of the difference density matrix
    <r_h> [Ang]:                  [  0.000000,   0.000000,  -1.483698]
    <r_e> [Ang]:                  [ -0.000000,  -0.000000,   0.169291]
    |<r_e - r_h>| [Ang]:            1.652988
    Hole size [Ang]:                1.799722
      Cartesian components [Ang]: [  0.865718,   0.892014,   1.301477]
    Electron size [Ang]:            5.504564
      Cartesian components [Ang]: [  4.116389,   2.427170,   2.732108]

  Transition density matrix analysis:
  -----------------------------------
  
  CT numbers (Mulliken)
    omega =     0.8496
    <Phe> =    -0.0006
  
  Exciton analysis of the transition density matrix
    Trans. dipole moment [D]:             0.458025
      Cartesian components [D]:         [ -0.000000,  -0.458025,   0.000000]
    <r_h> [Ang]:                        [  0.000000,   0.000000,  -1.744254]
    <r_e> [Ang]:                        [ -0.000000,  -0.000000,   1.147146]
    |<r_e - r_h>| [Ang]:                  2.891401
    Hole size [Ang]:                      1.099744
      Cartesian components [Ang]:       [  0.479157,   0.827010,   0.543969]
    Electron size [Ang]:                  6.853888
      Cartesian components [Ang]:       [  5.309131,   3.103032,   3.026567]
    RMS electron-hole separation [Ang]:   7.518273
      Cartesian components [Ang]:       [  5.330610,   3.209818,   4.219727]
    Covariance(r_h, r_e) [Ang^2]:         0.010494
    Correlation coefficient:              0.001392
    Center-of-mass size [Ang]:            3.471535
      Cartesian components [Ang]:       [  2.665404,   1.606438,   1.538353]

  Decomposition into state-averaged NTOs
    H- 0 -> L+ 6:  0.3784 ( 28.6%)
    H- 0 -> L+ 8: -0.3287 ( 21.6%)
    H- 0 -> L+ 3: -0.2698 ( 14.6%)
    H- 0 -> L+ 4:  0.2238 ( 10.0%)
    H- 0 -> L+ 1:  0.1882 (  7.1%)
    H- 0 -> L+ 0:  0.1233 (  3.0%)
                   omega =  85.0%
  ----------------------------------------------------------------------------


  Excited state 4 (singlet, B2)                                    [converged]
  ----------------------------------------------------------------------------
  Term symbol:  4 (1) B2                                    R^2 =  4.68475e-10

  Total energy:                                           -153.8806013340 a.u.
  Excitation energy:                                               2.510648 eV

  Osc. strength:                                                      0.000113
  Trans. dip. moment [a.u.]:           [  -0.000000,   -0.042843,    0.000000]
  <i|r^2|0> [a.u.]:                    [   0.000000,   -0.000000,   -0.000000]

  Dip. moment [a.u.]:                  [   0.000000,    0.000000,   -3.612316]
  Total dipole [Debye]:                                               9.181593
  <r^2> [a.u.]:                        [ 106.336184,   27.986750,  216.259062]
  Total <r^2> [a.u.]:                                               350.581996

  V1^2 = 0.8672, V2^2 = 0.1328

  Important amplitudes:
      occ i      occ j       vir a       vir b          v   
    ---------------------------------------------------------
     2 (B2) A              10 (A1) A                 -0.6291
     2 (B2) A              11 (A1) A                 -0.1204
    ---------------------------------------------------------

  Density matrix analysis:
  ------------------------
  NOs
    Occupation of frontier NOs:
       0.9613   0.9965
    Number of electrons: 26.000000
    Number of unpaired electrons: n_u =  2.75281, n_u,nl =  2.11654
    NO participation ratio (PR_NO):  3.888832
  
  
  Mulliken Population Analysis
  Atom      Charge (e)              h+              e-           Del q
  --------------------------------------------------------------------
   1 C       -0.788626        0.035908       -0.553121       -0.517213
   2 C       -0.788626        0.035908       -0.553121       -0.517213
   3 H        0.200450        0.001374       -0.027586       -0.026211
   4 H        0.200450        0.001374       -0.027586       -0.026211
   5 H        0.112481        0.042433        0.012568        0.055001
   6 H        0.112481        0.042433        0.012568        0.055001
   7 O       -0.271447        1.396760       -0.588412        0.808348
   8 H        0.222839        0.139249        0.029249        0.168498
  --------------------------------------------------------------------
  Sum:       -1.000000        1.695441       -1.695441       -0.000000
  
  Multipole moment analysis of the density matrix
    Molecular charge:                      -1.000000
    Number of electrons:                   26.000000
      Center of electronic charge [Ang]: [ -0.000000,  -0.000000,   0.073521]
    Total nuclear charge:                  25.000000
      Center of nuclear charge [Ang]:    [  0.000000,   0.000000,  -0.000000]
    Dipole moment [D]:                     9.181590
      Cartesian components [D]:          [  0.000000,   0.000000,  -9.181590]
    RMS size of the density [Ang]:         1.941772
      Cartesian components [Ang]:        [  1.070175,   0.549023,   1.524394]
  
  Exciton analysis of the difference density matrix
    <r_h> [Ang]:                  [ -0.000000,   0.000000,  -1.462280]
    <r_e> [Ang]:                  [ -0.000000,  -0.000000,   0.336728]
    |<r_e - r_h>| [Ang]:            1.799008
    Hole size [Ang]:                1.788823
      Cartesian components [Ang]: [  0.859056,   0.875532,   1.302057]
    Electron size [Ang]:            3.976808
      Cartesian components [Ang]: [  2.989533,   1.419932,   2.204879]

  Transition density matrix analysis:
  -----------------------------------
  
  CT numbers (Mulliken)
    omega =     0.8519
    <Phe> =    -0.0002
  
  Exciton analysis of the transition density matrix
    Trans. dipole moment [D]:             0.054448
      Cartesian components [D]:         [ -0.000000,  -0.054448,   0.000000]
    <r_h> [Ang]:                        [  0.000000,   0.000000,  -1.740207]
    <r_e> [Ang]:                        [ -0.000000,  -0.000000,   1.407048]
    |<r_e - r_h>| [Ang]:                  3.147255
    Hole size [Ang]:                      1.103847
      Cartesian components [Ang]:       [  0.478777,   0.825578,   0.554681]
    Electron size [Ang]:                  4.682204
      Cartesian components [Ang]:       [  3.819859,   1.749841,   2.066341]
    RMS electron-hole separation [Ang]:   5.747105
      Cartesian components [Ang]:       [  3.849380,   1.934388,   3.803897]
    Covariance(r_h, r_e) [Ang^2]:         0.008753
    Correlation coefficient:              0.001694
    Center-of-mass size [Ang]:            2.406191
      Cartesian components [Ang]:       [  1.925057,   0.967624,   1.071267]

  Decomposition into state-averaged NTOs
    H- 0 -> L+ 3:  0.4926 ( 48.5%)
    H- 0 -> L+ 4:  0.3607 ( 26.0%)
    H- 0 -> L+ 1:  0.2015 (  8.1%)
    H- 0 -> L+ 0:  0.1060 (  2.2%)
                   omega =  85.2%
  ----------------------------------------------------------------------------


  Excited state 5 (singlet, B2)                                    [converged]
  ----------------------------------------------------------------------------
  Term symbol:  5 (1) B2                                    R^2 =  1.02212e-09

  Total energy:                                           -153.8611766191 a.u.
  Excitation energy:                                               3.039222 eV

  Osc. strength:                                                      0.021878
  Trans. dip. moment [a.u.]:           [   0.000000,    0.542059,    0.000000]
  <i|r^2|0> [a.u.]:                    [  -0.000000,    0.000000,   -0.000000]

  Dip. moment [a.u.]:                  [   0.000000,    0.000000,   -3.349711]
  Total dipole [Debye]:                                               8.514118
  <r^2> [a.u.]:                        [  81.766932,   38.846218,  256.605673]
  Total <r^2> [a.u.]:                                               377.218823

  V1^2 = 0.8696, V2^2 = 0.1304

  Important amplitudes:
      occ i      occ j       vir a       vir b          v   
    ---------------------------------------------------------
     2 (B2) A              11 (A1) A                  0.6025
     2 (B2) A              10 (A1) A                 -0.1488
    ---------------------------------------------------------

  Density matrix analysis:
  ------------------------
  NOs
    Occupation of frontier NOs:
       0.9648   0.9930
    Number of electrons: 26.000000
    Number of unpaired electrons: n_u =  2.75640, n_u,nl =  2.11801
    NO participation ratio (PR_NO):  3.898543
  
  
  Mulliken Population Analysis
  Atom      Charge (e)              h+              e-           Del q
  --------------------------------------------------------------------
   1 C       -0.780832        0.031144       -0.540563       -0.509418
   2 C       -0.780832        0.031144       -0.540563       -0.509418
   3 H        0.188473        0.000303       -0.038491       -0.038188
   4 H        0.188473        0.000303       -0.038491       -0.038188
   5 H        0.078931        0.039069       -0.017618        0.021451
   6 H        0.078931        0.039069       -0.017618        0.021451
   7 O       -0.122737        1.402745       -0.445686        0.957058
   8 H        0.149592        0.134308       -0.039056        0.095252
  --------------------------------------------------------------------
  Sum:       -1.000000        1.678085       -1.678085        0.000000
  
  Multipole moment analysis of the density matrix
    Molecular charge:                      -1.000000
    Number of electrons:                   26.000000
      Center of electronic charge [Ang]: [ -0.000000,  -0.000000,   0.068177]
    Total nuclear charge:                  25.000000
      Center of nuclear charge [Ang]:    [  0.000000,   0.000000,  -0.000000]
    Dipole moment [D]:                     8.514115
      Cartesian components [D]:          [  0.000000,   0.000000,  -8.514115]
    RMS size of the density [Ang]:         2.014478
      Cartesian components [Ang]:        [  0.938433,   0.646828,   1.661048]
  
  Exciton analysis of the difference density matrix
    <r_h> [Ang]:                  [  0.000000,   0.000000,  -1.478428]
    <r_e> [Ang]:                  [ -0.000000,  -0.000000,   0.256376]
    |<r_e - r_h>| [Ang]:            1.734804
    Hole size [Ang]:                1.789028
      Cartesian components [Ang]: [  0.845760,   0.883996,   1.305321]
    Electron size [Ang]:            4.523871
      Cartesian components [Ang]: [  2.213476,   1.963718,   3.421950]

  Transition density matrix analysis:
  -----------------------------------
  
  CT numbers (Mulliken)
    omega =     0.8543
    <Phe> =    -0.0016
  
  Exciton analysis of the transition density matrix
    Trans. dipole moment [D]:             0.688888
      Cartesian components [D]:         [  0.000000,   0.688888,   0.000000]
    <r_h> [Ang]:                        [  0.000000,   0.000000,  -1.741493]
    <r_e> [Ang]:                        [ -0.000000,  -0.000000,   1.249170]
    |<r_e - r_h>| [Ang]:                  2.990663
    Hole size [Ang]:                      1.101615
      Cartesian components [Ang]:       [  0.480295,   0.824366,   0.550720]
    Electron size [Ang]:                  5.445861
      Cartesian components [Ang]:       [  2.766081,   2.466423,   3.990358]
    RMS electron-hole separation [Ang]:   6.307905
      Cartesian components [Ang]:       [  2.807106,   2.599103,   5.015425]
    Covariance(r_h, r_e) [Ang^2]:         0.012677
    Correlation coefficient:              0.002113
    Center-of-mass size [Ang]:            2.779223
      Cartesian components [Ang]:       [  1.403916,   1.300990,   2.015073]

  Decomposition into state-averaged NTOs
    H- 0 -> L+ 1: -0.3975 ( 31.6%)
    H- 0 -> L+ 4:  0.3228 ( 20.8%)
    H- 0 -> L+ 8:  0.2701 ( 14.6%)
    H- 0 -> L+ 6:  0.2430 ( 11.8%)
    H- 0 -> L+ 0: -0.1630 (  5.3%)
                   omega =  85.4%
  ----------------------------------------------------------------------------


  Excited state 6 (singlet, B2)                                    [converged]
  ----------------------------------------------------------------------------
  Term symbol:  6 (1) B2                                    R^2 =  5.64448e-09

  Total energy:                                           -153.8546500335 a.u.
  Excitation energy:                                               3.216819 eV

  Osc. strength:                                                      0.001802
  Trans. dip. moment [a.u.]:           [   0.000000,   -0.151221,    0.000000]
  <i|r^2|0> [a.u.]:                    [  -0.000000,    0.000000,   -0.000000]

  Dip. moment [a.u.]:                  [   0.000000,    0.000000,   -2.849390]
  Total dipole [Debye]:                                               7.242428
  <r^2> [a.u.]:                        [  91.341677,   55.718448,  210.736613]
  Total <r^2> [a.u.]:                                               357.796738

  V1^2 = 0.8688, V2^2 = 0.1312

  Important amplitudes:
      occ i      occ j       vir a       vir b          v   
    ---------------------------------------------------------
     4 (B1) A               2 (A2) A                 -0.6040
     4 (B1) A               3 (A2) A                  0.2406
    ---------------------------------------------------------

  Density matrix analysis:
  ------------------------
  NOs
    Occupation of frontier NOs:
       0.9659   0.9925
    Number of electrons: 26.000000
    Number of unpaired electrons: n_u =  2.75171, n_u,nl =  2.11409
    NO participation ratio (PR_NO):  3.885550
  
  
  Mulliken Population Analysis
  Atom      Charge (e)              h+              e-           Del q
  --------------------------------------------------------------------
   1 C       -0.741646        0.043539       -0.513772       -0.470232
   2 C       -0.741646        0.043539       -0.513772       -0.470232
   3 H        0.170332       -0.003047       -0.053283       -0.056329
   4 H        0.170332       -0.003047       -0.053283       -0.056329
   5 H        0.080855        0.023516       -0.000140        0.023376
   6 H        0.080855        0.023516       -0.000140        0.023376
   7 O       -0.179322        1.394222       -0.493749        0.900473
   8 H        0.160240        0.128824       -0.022925        0.105899
  --------------------------------------------------------------------
  Sum:       -1.000000        1.651063       -1.651063        0.000000
  
  Multipole moment analysis of the density matrix
    Molecular charge:                      -1.000000
    Number of electrons:                   26.000000
      Center of electronic charge [Ang]: [ -0.000000,  -0.000000,   0.057994]
    Total nuclear charge:                  25.000000
      Center of nuclear charge [Ang]:    [  0.000000,   0.000000,  -0.000000]
    Dipole moment [D]:                     7.242426
      Cartesian components [D]:          [  0.000000,   0.000000,  -7.242426]
    RMS size of the density [Ang]:         1.962199
      Cartesian components [Ang]:        [  0.991857,   0.774665,   1.505437]
  
  Exciton analysis of the difference density matrix
    <r_h> [Ang]:                  [  0.000000,   0.000000,  -1.514691]
    <r_e> [Ang]:                  [ -0.000000,  -0.000000,   0.088149]
    |<r_e - r_h>| [Ang]:            1.602840
    Hole size [Ang]:                1.702763
      Cartesian components [Ang]: [  0.912817,   0.763769,   1.217712]
    Electron size [Ang]:            4.157459
      Cartesian components [Ang]: [  2.590329,   2.563204,   2.001160]

  Transition density matrix analysis:
  -----------------------------------
  
  CT numbers (Mulliken)
    omega =     0.8506
    <Phe> =    -0.0001
  
  Exciton analysis of the transition density matrix
    Trans. dipole moment [D]:             0.192183
      Cartesian components [D]:         [  0.000000,  -0.192183,   0.000000]
    <r_h> [Ang]:                        [ -0.000000,  -0.000000,  -1.716348]
    <r_e> [Ang]:                        [ -0.000000,  -0.000000,   1.025975]
    |<r_e - r_h>| [Ang]:                  2.742323
    Hole size [Ang]:                      1.153262
      Cartesian components [Ang]:       [  0.825203,   0.472830,   0.652293]
    Electron size [Ang]:                  4.961482
      Cartesian components [Ang]:       [  3.260077,   3.232266,   1.881665]
    RMS electron-hole separation [Ang]:   5.783717
      Cartesian components [Ang]:       [  3.360881,   3.266483,   3.389093]
    Covariance(r_h, r_e) [Ang^2]:         0.007636
    Correlation coefficient:              0.001334
    Center-of-mass size [Ang]:            2.547626
      Cartesian components [Ang]:       [  1.682453,   1.633425,   0.995827]

  Decomposition into state-averaged NTOs
    H- 1 -> L+ 2:  0.5511 ( 60.7%)
    H- 1 -> L+ 7:  0.2825 ( 16.0%)
    H- 1 -> L+ 9: -0.1997 (  8.0%)
                   omega =  85.1%
  ----------------------------------------------------------------------------


  Excited state 7 (singlet, B2)                                    [converged]
  ----------------------------------------------------------------------------
  Term symbol:  7 (1) B2                                    R^2 =  6.43768e-09

  Total energy:                                           -153.8148076876 a.u.
  Excitation energy:                                               4.300984 eV

  Osc. strength:                                                      0.026061
  Trans. dip. moment [a.u.]:           [   0.000000,    0.497317,   -0.000000]
  <i|r^2|0> [a.u.]:                    [   0.000000,   -0.000000,    0.000000]

  Dip. moment [a.u.]:                  [  -0.000000,    0.000000,    1.805272]
  Total dipole [Debye]:                                               4.588546
  <r^2> [a.u.]:                        [  87.605412,   31.009649,  230.325558]
  Total <r^2> [a.u.]:                                               348.940618

  V1^2 = 0.8920, V2^2 = 0.1080

  Important amplitudes:
      occ i      occ j       vir a       vir b          v   
    ---------------------------------------------------------
     2 (B2) A              13 (A1) A                  0.5573
     2 (B2) A              12 (A1) A                 -0.2631
    ---------------------------------------------------------

  Density matrix analysis:
  ------------------------
  NOs
    Occupation of frontier NOs:
       0.9660   0.9955
    Number of electrons: 26.000000
    Number of unpaired electrons: n_u =  2.72460, n_u,nl =  2.10501
    NO participation ratio (PR_NO):  3.802000
  
  
  Mulliken Population Analysis
  Atom      Charge (e)              h+              e-           Del q
  --------------------------------------------------------------------
   1 C       -0.453886        0.027056       -0.209528       -0.182472
   2 C       -0.453886        0.027056       -0.209528       -0.182472
   3 H        0.174958        0.001373       -0.053076       -0.051703
   4 H        0.174958        0.001373       -0.053076       -0.051703
   5 H        0.037117        0.022045       -0.042408       -0.020363
   6 H        0.037117        0.022045       -0.042408       -0.020363
   7 O       -1.439671        1.259033       -1.618909       -0.359876
   8 H        0.923293        0.192378        0.676575        0.868952
  --------------------------------------------------------------------
  Sum:       -1.000000        1.552359       -1.552359       -0.000000
  
  Multipole moment analysis of the density matrix
    Molecular charge:                      -1.000000
    Number of electrons:                   26.000000
      Center of electronic charge [Ang]: [  0.000000,  -0.000000,  -0.036743]
    Total nuclear charge:                  25.000000
      Center of nuclear charge [Ang]:    [  0.000000,   0.000000,  -0.000000]
    Dipole moment [D]:                     4.588544
      Cartesian components [D]:          [ -0.000000,   0.000000,   4.588544]
    RMS size of the density [Ang]:         1.938261
      Cartesian components [Ang]:        [  0.971359,   0.577914,   1.574589]
  
  Exciton analysis of the difference density matrix
    <r_h> [Ang]:                  [  0.000000,  -0.000000,  -1.574149]
    <r_e> [Ang]:                  [  0.000000,  -0.000000,  -1.456105]
    |<r_e - r_h>| [Ang]:            0.118045
    Hole size [Ang]:                1.714591
      Cartesian components [Ang]: [  0.868583,   0.896463,   1.175474]
    Electron size [Ang]:            3.816777
      Cartesian components [Ang]: [  2.516083,   1.647354,   2.350178]

  Transition density matrix analysis:
  -----------------------------------
  
  CT numbers (Mulliken)
    omega =     0.8740
    <Phe> =    -0.0105
  
  Exciton analysis of the transition density matrix
    Trans. dipole moment [D]:             0.632027
      Cartesian components [D]:         [  0.000000,   0.632027,  -0.000000]
    <r_h> [Ang]:                        [  0.000000,   0.000000,  -1.744500]
    <r_e> [Ang]:                        [  0.000000,  -0.000000,  -1.598321]
    |<r_e - r_h>| [Ang]:                  0.146179
    Hole size [Ang]:                      1.090501
      Cartesian components [Ang]:       [  0.475574,   0.820687,   0.538046]
    Electron size [Ang]:                  4.518852
      Cartesian components [Ang]:       [  3.004985,   1.950669,   2.754083]
    RMS electron-hole separation [Ang]:   4.643172
      Cartesian components [Ang]:       [  3.042134,   2.114726,   2.798643]
    Covariance(r_h, r_e) [Ang^2]:         0.035766
    Correlation coefficient:              0.007258
    Center-of-mass size [Ang]:            2.328129
      Cartesian components [Ang]:       [  1.521318,   1.058915,   1.408714]

  Decomposition into state-averaged NTOs
    H- 0 -> L+ 0: -0.5518 ( 60.9%)
    H- 0 -> L+ 6:  0.1915 (  7.3%)
    H- 0 -> L+ 8: -0.1911 (  7.3%)
    H- 0 -> L+ 3:  0.1898 (  7.2%)
    H- 0 -> L+ 4: -0.1363 (  3.7%)
                   omega =  87.4%
  ----------------------------------------------------------------------------


  Excited state 8 (singlet, B2)                                    [converged]
  ----------------------------------------------------------------------------
  Term symbol:  8 (1) B2                                    R^2 =  1.76114e-07

  Total energy:                                           -153.8030893261 a.u.
  Excitation energy:                                               4.619857 eV

  Osc. strength:                                                      0.000536
  Trans. dip. moment [a.u.]:           [   0.000000,   -0.068819,    0.000000]
  <i|r^2|0> [a.u.]:                    [   0.000000,    0.000000,    0.000000]

  Dip. moment [a.u.]:                  [   0.000000,   -0.000000,   -2.806603]
  Total dipole [Debye]:                                               7.133675
  <r^2> [a.u.]:                        [  77.940376,   42.024552,  206.896468]
  Total <r^2> [a.u.]:                                               326.861396

  V1^2 = 0.8661, V2^2 = 0.1339

  Important amplitudes:
      occ i      occ j       vir a       vir b          v   
    ---------------------------------------------------------
     4 (B1) A               3 (A2) A                 -0.5815
     4 (B1) A               2 (A2) A                 -0.2404
    ---------------------------------------------------------

  Density matrix analysis:
  ------------------------
  NOs
    Occupation of frontier NOs:
       0.9655   0.9931
    Number of electrons: 26.000000
    Number of unpaired electrons: n_u =  2.73347, n_u,nl =  2.10497
    NO participation ratio (PR_NO):  3.838348
  
  
  Mulliken Population Analysis
  Atom      Charge (e)              h+              e-           Del q
  --------------------------------------------------------------------
   1 C       -0.690752        0.095261       -0.514600       -0.419338
   2 C       -0.690752        0.095261       -0.514600       -0.419338
   3 H        0.151094       -0.000108       -0.075459       -0.075568
   4 H        0.151094       -0.000108       -0.075459       -0.075568
   5 H        0.052217        0.010457       -0.015719       -0.005263
   6 H        0.052217        0.010457       -0.015719       -0.005263
   7 O       -0.177745        1.360661       -0.458611        0.902050
   8 H        0.152628        0.119400       -0.021112        0.098288
  --------------------------------------------------------------------
  Sum:       -1.000000        1.691280       -1.691280        0.000000
  
  Multipole moment analysis of the density matrix
    Molecular charge:                      -1.000000
    Number of electrons:                   26.000000
      Center of electronic charge [Ang]: [ -0.000000,   0.000000,   0.057123]
    Total nuclear charge:                  25.000000
      Center of nuclear charge [Ang]:    [  0.000000,   0.000000,  -0.000000]
    Dipole moment [D]:                     7.133672
      Cartesian components [D]:          [  0.000000,  -0.000000,  -7.133672]
    RMS size of the density [Ang]:         1.875404
      Cartesian components [Ang]:        [  0.916211,   0.672769,   1.491670]
  
  Exciton analysis of the difference density matrix
    <r_h> [Ang]:                  [ -0.000000,   0.000000,  -1.393786]
    <r_e> [Ang]:                  [ -0.000000,   0.000000,   0.157552]
    |<r_e - r_h>| [Ang]:            1.551338
    Hole size [Ang]:                1.715644
      Cartesian components [Ang]: [  0.895471,   0.734117,   1.265954]
    Electron size [Ang]:            3.398541
      Cartesian components [Ang]: [  2.078417,   2.028773,   1.764750]

  Transition density matrix analysis:
  -----------------------------------
  
  CT numbers (Mulliken)
    omega =     0.8408
    <Phe> =    -0.0007
  
  Exciton analysis of the transition density matrix
    Trans. dipole moment [D]:             0.087460
      Cartesian components [D]:         [  0.000000,  -0.087460,   0.000000]
    <r_h> [Ang]:                        [ -0.000000,  -0.000000,  -1.693169]
    <r_e> [Ang]:                        [ -0.000000,   0.000000,   1.025132]
    |<r_e - r_h>| [Ang]:                  2.718301
    Hole size [Ang]:                      1.181296
      Cartesian components [Ang]:       [  0.825769,   0.469316,   0.702359]
    Electron size [Ang]:                  3.941846
      Cartesian components [Ang]:       [  2.599274,   2.563196,   1.487263]
    RMS electron-hole separation [Ang]:   4.930070
      Cartesian components [Ang]:       [  2.724648,   2.605571,   3.176930]
    Covariance(r_h, r_e) [Ang^2]:         0.008592
    Correlation coefficient:              0.001845
    Center-of-mass size [Ang]:            2.058567
      Cartesian components [Ang]:       [  1.364967,   1.303022,   0.822617]

  Decomposition into state-averaged NTOs
    H- 1 -> L+ 9:  0.6124 ( 75.0%)
    H- 1 -> L+ 2:  0.2070 (  8.6%)
                   omega =  84.1%
  ----------------------------------------------------------------------------


  Excited state 9 (singlet, B2)                                    [converged]
  ----------------------------------------------------------------------------
  Term symbol:  9 (1) B2                                    R^2 =  3.66062e-08

  Total energy:                                           -153.7951686303 a.u.
  Excitation energy:                                               4.835390 eV

  Osc. strength:                                                      0.000534
  Trans. dip. moment [a.u.]:           [   0.000000,   -0.067160,    0.000000]
  <i|r^2|0> [a.u.]:                    [  -0.000000,   -0.000000,   -0.000000]

  Dip. moment [a.u.]:                  [   0.000000,   -0.000000,   -2.292726]
  Total dipole [Debye]:                                               5.827530
  <r^2> [a.u.]:                        [  79.696822,   32.654890,  219.564353]
  Total <r^2> [a.u.]:                                               331.916065

  V1^2 = 0.8766, V2^2 = 0.1234

  Important amplitudes:
      occ i      occ j       vir a       vir b          v   
    ---------------------------------------------------------
     2 (B2) A              12 (A1) A                  0.5540
     2 (B2) A              13 (A1) A                  0.2836
    ---------------------------------------------------------

  Density matrix analysis:
  ------------------------
  NOs
    Occupation of frontier NOs:
       0.9675   0.9900
    Number of electrons: 26.000000
    Number of unpaired electrons: n_u =  2.75198, n_u,nl =  2.11458
    NO participation ratio (PR_NO):  3.889902
  
  
  Mulliken Population Analysis
  Atom      Charge (e)              h+              e-           Del q
  --------------------------------------------------------------------
   1 C       -0.747428        0.049311       -0.525326       -0.476014
   2 C       -0.747428        0.049311       -0.525326       -0.476014
   3 H        0.264356        0.001667        0.036027        0.037695
   4 H        0.264356        0.001667        0.036027        0.037695
   5 H        0.208615        0.023631        0.127504        0.151135
   6 H        0.208615        0.023631        0.127504        0.151135
   7 O       -0.731485        1.330711       -0.982401        0.348311
   8 H        0.280399        0.144133        0.081925        0.226058
  --------------------------------------------------------------------
  Sum:       -1.000000        1.624064       -1.624064       -0.000000
  
  Multipole moment analysis of the density matrix
    Molecular charge:                      -1.000000
    Number of electrons:                   26.000000
      Center of electronic charge [Ang]: [ -0.000000,   0.000000,   0.046664]
    Total nuclear charge:                  25.000000
      Center of nuclear charge [Ang]:    [  0.000000,   0.000000,  -0.000000]
    Dipole moment [D]:                     5.827528
      Cartesian components [D]:          [  0.000000,  -0.000000,  -5.827528]
    RMS size of the density [Ang]:         1.890150
      Cartesian components [Ang]:        [  0.926478,   0.593046,   1.537076]
  
  Exciton analysis of the difference density matrix
    <r_h> [Ang]:                  [  0.000000,   0.000000,  -1.491078]
    <r_e> [Ang]:                  [ -0.000000,   0.000000,  -0.042973]
    |<r_e - r_h>| [Ang]:            1.448106
    Hole size [Ang]:                1.729469
      Cartesian components [Ang]: [  0.837204,   0.870213,   1.238096]
    Electron size [Ang]:            3.612443
      Cartesian components [Ang]: [  2.160397,   1.693147,   2.348549]

  Transition density matrix analysis:
  -----------------------------------
  
  CT numbers (Mulliken)
    omega =     0.8596
    <Phe> =    -0.0009
  
  Exciton analysis of the transition density matrix
    Trans. dipole moment [D]:             0.085351
      Cartesian components [D]:         [  0.000000,  -0.085351,   0.000000]
    <r_h> [Ang]:                        [  0.000000,   0.000000,  -1.722041]
    <r_e> [Ang]:                        [ -0.000000,   0.000000,   0.683722]
    |<r_e - r_h>| [Ang]:                  2.405763
    Hole size [Ang]:                      1.124340
      Cartesian components [Ang]:       [  0.479540,   0.822254,   0.598398]
    Electron size [Ang]:                  4.226721
      Cartesian components [Ang]:       [  2.640442,   2.078214,   2.564032]
    RMS electron-hole separation [Ang]:   4.982496
      Cartesian components [Ang]:       [  2.683334,   2.230332,   3.556769]
    Covariance(r_h, r_e) [Ang^2]:         0.045868
    Correlation coefficient:              0.009652
    Center-of-mass size [Ang]:            2.192091
      Cartesian components [Ang]:       [  1.341967,   1.119796,   1.323043]

  Decomposition into state-averaged NTOs
    H- 0 -> L+ 1:  0.4237 ( 35.9%)
    H- 0 -> L+ 8:  0.3444 ( 23.7%)
    H- 0 -> L+ 3: -0.2354 ( 11.1%)
    H- 0 -> L+ 0: -0.2232 ( 10.0%)
    H- 0 -> L+ 4:  0.1310 (  3.4%)
    H- 0 -> L+ 6: -0.0835 (  1.4%)
                   omega =  86.0%
  ----------------------------------------------------------------------------


  Excited state 10 (singlet, B2)                                    [converged]
  ----------------------------------------------------------------------------
  Term symbol:  10 (1) B2                                   R^2 =  5.10154e-06

  Total energy:                                           -153.7747594662 a.u.
  Excitation energy:                                               5.390752 eV

  Osc. strength:                                                      0.000174
  Trans. dip. moment [a.u.]:           [  -0.000000,   -0.036253,    0.000000]
  <i|r^2|0> [a.u.]:                    [   0.000000,    0.000000,    0.000000]

  Dip. moment [a.u.]:                  [  -0.000000,   -0.000000,   -2.794272]
  Total dipole [Debye]:                                               7.102332
  <r^2> [a.u.]:                        [  87.581828,  116.645962,  229.151637]
  Total <r^2> [a.u.]:                                               433.379427

  V1^2 = 0.8672, V2^2 = 0.1328

  Important amplitudes:
      occ i      occ j       vir a       vir b          v   
    ---------------------------------------------------------
     7 (A1) A               3 (B2) A                 -0.6479
     7 (A1) A               4 (B2) A                 -0.1037
    ---------------------------------------------------------

  Density matrix analysis:
  ------------------------
  NOs
    Occupation of frontier NOs:
       0.9789   1.0003
    Number of electrons: 26.000000
    Number of unpaired electrons: n_u =  2.80405, n_u,nl =  2.13328
    NO participation ratio (PR_NO):  3.944519
  
  
  Mulliken Population Analysis
  Atom      Charge (e)              h+              e-           Del q
  --------------------------------------------------------------------
   1 C       -0.758370        0.062306       -0.549263       -0.486956
   2 C       -0.758370        0.062306       -0.549263       -0.486956
   3 H        0.184324       -0.001639       -0.040698       -0.042338
   4 H        0.184324       -0.001639       -0.040698       -0.042338
   5 H        0.094489        0.038837       -0.001827        0.037010
   6 H        0.094489        0.038837       -0.001827        0.037010
   7 O       -0.376327        1.225274       -0.521805        0.703468
   8 H        0.335441        0.298047       -0.016946        0.281100
  --------------------------------------------------------------------
  Sum:       -1.000000        1.722328       -1.722328        0.000000
  
  Multipole moment analysis of the density matrix
    Molecular charge:                      -1.000000
    Number of electrons:                   26.000000
      Center of electronic charge [Ang]: [  0.000000,   0.000000,   0.056872]
    Total nuclear charge:                  25.000000
      Center of nuclear charge [Ang]:    [  0.000000,   0.000000,  -0.000000]
    Dipole moment [D]:                     7.102329
      Cartesian components [D]:          [ -0.000000,  -0.000000,  -7.102329]
    RMS size of the density [Ang]:         2.159723
      Cartesian components [Ang]:        [  0.971229,   1.120855,   1.569969]
  
  Exciton analysis of the difference density matrix
    <r_h> [Ang]:                  [ -0.000000,  -0.000000,  -1.392797]
    <r_e> [Ang]:                  [  0.000000,   0.000000,   0.126787]
    |<r_e - r_h>| [Ang]:            1.519584
    Hole size [Ang]:                1.855971
      Cartesian components [Ang]: [  0.865706,   0.795102,   1.436314]
    Electron size [Ang]:            5.408804
      Cartesian components [Ang]: [  2.402406,   4.034499,   2.684477]

  Transition density matrix analysis:
  -----------------------------------
  
  CT numbers (Mulliken)
    omega =     0.8505
    <Phe> =     0.0000
  
  Exciton analysis of the transition density matrix
    Trans. dipole moment [D]:             0.046073
      Cartesian components [D]:         [ -0.000000,  -0.046073,   0.000000]
    <r_h> [Ang]:                        [  0.000000,  -0.000000,  -1.712964]
    <r_e> [Ang]:                        [  0.000000,   0.000000,   1.042872]
    |<r_e - r_h>| [Ang]:                  2.755836
    Hole size [Ang]:                      1.147643
      Cartesian components [Ang]:       [  0.453737,   0.406436,   0.972634]
    Electron size [Ang]:                  6.778862
      Cartesian components [Ang]:       [  3.053431,   5.244403,   3.020887]
    RMS electron-hole separation [Ang]:   7.406542
      Cartesian components [Ang]:       [  3.086482,   5.260089,   4.202613]
    Covariance(r_h, r_e) [Ang^2]:         0.003909
    Correlation coefficient:              0.000502
    Center-of-mass size [Ang]:            3.437945
      Cartesian components [Ang]:       [  1.543718,   2.630084,   1.587154]

  Decomposition into state-averaged NTOs
    H- 2 -> L+ 5:  0.6520 ( 85.0%)
                   omega =  85.0%
  ----------------------------------------------------------------------------


--------------------------------------------------------------------------------
  Time of ADC calculation:  CPU 343.26 s  wall 83.06 s
================================================================================
 
 --------------------------------------------------------------
             Orbital Energies (a.u.) and Symmetries
 --------------------------------------------------------------
 
 Alpha MOs, Restricted
 -- Occupied --                  
-20.213 -11.049 -11.047  -0.930  -0.854  -0.598  -0.473  -0.384
  1 A1    2 A1    1 B1    3 A1    4 A1    2 B1    5 A1    6 A1                 
 -0.328  -0.271  -0.194  -0.130  -0.129
  3 B1    7 A1    1 B2    4 B1    2 B2                                         
 -- Virtual --                   
  0.095   0.104   0.105   0.107   0.116   0.126   0.170   0.178
  5 B1    3 B2    8 A1    1 A2    6 B1    9 A1   10 A1    7 B1                 
  0.197   0.197   0.201   0.219   0.279   0.305   0.328   0.328
  4 B2   11 A1    2 A2    8 B1   12 A1    3 A2    9 B1   13 A1                 
  0.347   0.349   0.364   0.374   0.392   0.438   0.452   0.486
 10 B1   14 A1    5 B2   15 A1   11 B1    4 A2    6 B2   12 B1                 
  0.499   0.527   0.543   0.579   0.642   0.643   0.683   0.703
 16 A1   17 A1   13 B1   18 A1   14 B1   19 A1   20 A1   15 B1                 
  0.708   0.731   0.746   0.764   0.827   1.011   1.059   1.130
  7 B2   16 B1   21 A1    5 A2   17 B1   22 A1   23 A1   18 B1                 
  1.166   1.200   1.287   1.291   1.322   1.327   1.329   1.369
 24 A1    8 B2   19 B1    6 A2   25 A1   20 B1   26 A1    9 B2                 
  1.372   1.372   1.425   1.446   1.482   1.550   1.567   1.649
 27 A1   21 B1   28 A1   10 B2    7 A2    8 A2   11 B2   22 B1                 
  1.676   1.698   1.719   1.851   1.887   2.047   2.050   2.078
 23 B1   29 A1   12 B2   24 B1   30 A1   25 B1   31 A1    9 A2                 
  2.134   2.170   2.210   2.213   2.286   2.372   2.374   2.398
 13 B2   32 A1   26 B1   14 B2   33 A1   34 A1   10 A2   15 B2                 
  2.440   2.537   2.587   2.604   2.772   2.778   2.858   3.077
 27 B1   28 B1   35 A1   11 A2   29 B1   36 A1   30 B1   37 A1                 
  3.132   3.172   3.543   3.593   3.923   3.945   3.973   4.091
 38 A1   39 A1   31 B1   32 B1   16 B2   12 A2   40 A1   33 B1                 
  4.548
 41 A1                                                                         
 
 Beta MOs, Restricted
 -- Occupied --                  
-20.213 -11.049 -11.047  -0.930  -0.854  -0.598  -0.473  -0.384
  1 A1    2 A1    1 B1    3 A1    4 A1    2 B1    5 A1    6 A1                 
 -0.328  -0.271  -0.194  -0.130  -0.129
  3 B1    7 A1    1 B2    4 B1    2 B2                                         
 -- Virtual --                   
  0.095   0.104   0.105   0.107   0.116   0.126   0.170   0.178
  5 B1    3 B2    8 A1    1 A2    6 B1    9 A1   10 A1    7 B1                 
  0.197   0.197   0.201   0.219   0.279   0.305   0.328   0.328
  4 B2   11 A1    2 A2    8 B1   12 A1    3 A2    9 B1   13 A1                 
  0.347   0.349   0.364   0.374   0.392   0.438   0.452   0.486
 10 B1   14 A1    5 B2   15 A1   11 B1    4 A2    6 B2   12 B1                 
  0.499   0.527   0.543   0.579   0.642   0.643   0.683   0.703
 16 A1   17 A1   13 B1   18 A1   14 B1   19 A1   20 A1   15 B1                 
  0.708   0.731   0.746   0.764   0.827   1.011   1.059   1.130
  7 B2   16 B1   21 A1    5 A2   17 B1   22 A1   23 A1   18 B1                 
  1.166   1.200   1.287   1.291   1.322   1.327   1.329   1.369
 24 A1    8 B2   19 B1    6 A2   25 A1   20 B1   26 A1    9 B2                 
  1.372   1.372   1.425   1.446   1.482   1.550   1.567   1.649
 27 A1   21 B1   28 A1   10 B2    7 A2    8 A2   11 B2   22 B1                 
  1.676   1.698   1.719   1.851   1.887   2.047   2.050   2.078
 23 B1   29 A1   12 B2   24 B1   30 A1   25 B1   31 A1    9 A2                 
  2.134   2.170   2.210   2.213   2.286   2.372   2.374   2.398
 13 B2   32 A1   26 B1   14 B2   33 A1   34 A1   10 A2   15 B2                 
  2.440   2.537   2.587   2.604   2.772   2.778   2.858   3.077
 27 B1   28 B1   35 A1   11 A2   29 B1   36 A1   30 B1   37 A1                 
  3.132   3.172   3.543   3.593   3.923   3.945   3.973   4.091
 38 A1   39 A1   31 B1   32 B1   16 B2   12 A2   40 A1   33 B1                 
  4.548
 41 A1                                                                         
 --------------------------------------------------------------
 
          Ground-State Mulliken Net Atomic Charges

     Atom                 Charge (a.u.)
  ----------------------------------------
      1 C                    -0.266591
      2 C                    -0.266591
      3 H                     0.220176
      4 H                     0.220176
      5 H                     0.050139
      6 H                     0.050139
      7 O                    -1.078772
      8 H                     0.071323
  ----------------------------------------
  Sum of atomic charges =    -1.000000

 -----------------------------------------------------------------
                    Cartesian Multipole Moments
 -----------------------------------------------------------------
    Charge (ESU x 10^10)
                -4.8032
    Dipole Moment (Debye)
         X      -0.0000      Y       0.0000      Z       5.2894
       Tot       5.2894
    Quadrupole Moments (Debye-Ang)
        XX     -23.6502     XY       0.0000     YY     -26.5240
        XZ       0.0000     YZ      -0.0000     ZZ     -32.8891
    Octopole Moments (Debye-Ang^2)
       XXX      -0.0000    XXY       0.0000    XYY       0.0000
       YYY       0.0000    XXZ       1.1270    XYZ       0.0000
       YYZ      -0.0834    XZZ       0.0000    YZZ       0.0000
       ZZZ       6.5287
    Hexadecapole Moments (Debye-Ang^3)
      XXXX     -88.0800   XXXY      -0.0000   XXYY     -21.8749
      XYYY       0.0000   YYYY     -40.0021   XXXZ      -0.0000
      XXYZ      -0.0000   XYYZ       0.0000   YYYZ       0.0000
      XXZZ     -70.5568   XYZZ       0.0000   YYZZ     -65.5447
      XZZZ       0.0000   YZZZ       0.0000   ZZZZ    -292.8540
 -----------------------------------------------------------------
 Total job time:  192.57s(wall), 393.72s(cpu) 
 Fri Mar  4 18:19:13 2022

        *************************************************************
        *                                                           *
        *  Thank you very much for using Q-Chem.  Have a nice day.  *
        *                                                           *
        *************************************************************


