/src/tsommerfeld/qchem/exe/qcprog.exe .input0.763636.10848.qcin.1 /src/jdavis/qchem.scratch/qchem10848/

                  Welcome to Q-Chem
     A Quantum Leap Into The Future Of Chemistry


 Q-Chem 5.4 (devel), Q-Chem, Inc., Pleasanton, CA (2021)

 E. Epifanovsky,  A. T. B. Gilbert,  Xintian Feng,  Joonho Lee,  Yuezhi Mao,  
 N. Mardirossian,  P. Pokhilko,  A. White,  M. Wormit,  M. P. Coons,  
 A. L. Dempwolff,  Zhengting Gan,  D. Hait,  P. R. Horn,  L. D. Jacobson,  
 I. Kaliman,  J. Kussmann,  A. W. Lange,  Ka Un Lao,  D. S. Levine,  Jie Liu,  
 S. C. McKenzie,  A. F. Morrison,  K. Nanda,  F. Plasser,  D. R. Rehn,  
 M. L. Vidal,  Zhi-Qiang You,  Ying Zhu,  B. Alam,  B. Albrecht,  
 A. Aldossary,  E. Alguire,  J. H. Andersen,  D. Barton,  K. Begam,  A. Behn,  
 Y. A. Bernard,  E. J. Berquist,  H. Burton,  A. Carreras,  K. Carter-Fenk,  
 R. Chakraborty,  A. D. Chien,  K. D. Closser,  V. Cofer-Shabica,  
 S. Dasgupta,  Jia Deng,  M. de Wergifosse,  M. Diedenhofen,  Hainam Do,  
 S. Ehlert,  Po-Tung Fang,  S. Fatehi,  Qingguo Feng,  T. Friedhoff,  
 J. Gayvert,  Qinghui Ge,  G. Gidofalvi,  M. Goldey,  J. Gomes,  
 C. Gonzalez-Espinoza,  S. Gulania,  A. Gunina,  M. W. D. Hanson-Heine,  
 P. H. P. Harbach,  A. W. Hauser,  M. F. Herbst,  M. Hernandez Vera,  
 M. Hodecker,  Z. C. Holden,  S. Houck,  Xunkun Huang,  Kerwin Hui,  
 B. C. Huynh,  M. Ivanov,  Hyunjun Ji,  Hanjie Jiang,  B. Kaduk,  S. Kaehler,  
 K. Khistyaev,  Jaehoon Kim,  P. Klunzinger,  Z. Koczor-Benda,  
 Joong Hoon Koh,  D. Kosenkov,  L. Koulias,  T. Kowalczyk,  C. M. Krauter,  
 K. Kue,  A. Kunitsa,  T. Kus,  A. Landau,  K. V. Lawler,  D. Lefrancois,  
 S. Lehtola,  Rain Li,  Yi-Pei Li,  Jiashu Liang,  M. Liebenthal,  
 Hung-Hsuan Lin,  You-Sheng Lin,  Fenglai Liu,  Kuan-Yu Liu,  
 M. Loipersberger,  A. Luenser,  A. Manjanath,  P. Manohar,  E. Mansoor,  
 S. F. Manzer,  Shan-Ping Mao,  A. V. Marenich,  T. Markovich,  S. Mason,  
 S. A. Maurer,  P. F. McLaughlin,  M. F. S. J. Menger,  J.-M. Mewes,  
 S. A. Mewes,  P. Morgante,  J. W. Mullinax,  K. J. Oosterbaan,  G. Paran,  
 Alexander C. Paul,  Suranjan K. Paul,  F. Pavosevic,  Zheng Pei,  S. Prager,  
 E. I. Proynov,  E. Ramos,  B. Rana,  A. E. Rask,  A. Rettig,  R. M. Richard,  
 F. Rob,  E. Rossomme,  T. Scheele,  M. Scheurer,  M. Schneider,  
 N. Sergueev,  S. M. Sharada,  W. Skomorowski,  D. W. Small,  C. J. Stein,  
 Yu-Chuan Su,  E. J. Sundstrom,  Zhen Tao,  J. Thirman,  T. Tsuchimochi,  
 N. M. Tubman,  S. P. Veccham,  O. Vydrov,  J. Wenzel,  J. Witte,  A. Yamada,  
 Kun Yao,  S. Yeganeh,  S. R. Yost,  A. Zech,  Igor Ying Zhang,  Xing Zhang,  
 Yu Zhang,  D. Zuev,  A. Aspuru-Guzik,  A. T. Bell,  N. A. Besley,  
 K. B. Bravaya,  B. R. Brooks,  D. Casanova,  Jeng-Da Chai,  S. Coriani,  
 C. J. Cramer,  A. E. DePrince, III,  R. A. DiStasio Jr.,  A. Dreuw,  
 B. D. Dunietz,  T. R. Furlani,  W. A. Goddard III,  S. Grimme,  
 S. Hammes-Schiffer,  T. Head-Gordon,  W. J. Hehre,  Chao-Ping Hsu,  
 T.-C. Jagau,  Yousung Jung,  A. Klamt,  Jing Kong,  D. S. Lambrecht,  
 WanZhen Liang,  N. J. Mayhall,  C. W. McCurdy,  J. B. Neaton,  
 C. Ochsenfeld,  J. A. Parkhill,  R. Peverati,  V. A. Rassolov,  Yihan Shao,  
 L. V. Slipchenko,  T. Stauch,  R. P. Steele,  J. E. Subotnik,  
 A. J. W. Thom,  A. Tkatchenko,  D. G. Truhlar,  T. Van Voorhis,  
 T. A. Wesolowski,  K. B. Whaley,  H. L. Woodcock III,  P. M. Zimmerman,  
 S. Faraji,  P. M. W. Gill,  M. Head-Gordon,  J. M. Herbert,  A. I. Krylov

 Additional authors for Version 5.4.1: 
 S. Kotaru,  Shaozhi Li,  Xiangyuan Li,  F. Matz,  A. Molle,  Haisheng Ren,  
 Yingli Su,  Hung-Yi Tsai,  C. Utku,  Fang Wang

 Contributors to earlier versions of Q-Chem not listed above: 
 R. D. Adamson,  B. Austin,  R. Baer,  J. Baker,  G. J. O. Beran,  
 K. Brandhorst,  S. T. Brown,  E. F. C. Byrd,  A. K. Chakraborty,  
 G. K. L. Chan,  Chun-Min Chang,  Yunqing Chen,  C.-L. Cheng,  
 Siu Hung Chien,  D. M. Chipman,  D. L. Crittenden,  H. Dachsel,  
 R. J. Doerksen,  A. D. Dutoi,  R. G. Edgar,  J. Fosso-Tande,  
 L. Fusti-Molnar,  D. Ghosh,  A. Ghysels,  A. Golubeva-Zadorozhnaya,  
 J. Gonthier,  M. S. Gordon,  S. R. Gwaltney,  G. Hawkins,  J. E. Herr,  
 A. Heyden,  S. Hirata,  E. G. Hohenstein,  G. Kedziora,  F. J. Keil,  
 C. Kelley,  Jihan Kim,  R. A. King,  R. Z. Khaliullin,  P. P. Korambath,  
 W. Kurlancheek,  A. Laurent,  A. M. Lee,  M. S. Lee,  S. V. Levchenko,  
 Ching Yeh Lin,  D. Liotard,  E. Livshits,  R. C. Lochan,  I. Lotan,  
 L. A. Martinez-Martinez,  P. E. Maslen,  N. Nair,  D. P. O'Neill,  
 D. Neuhauser,  E. Neuscamman,  C. M. Oana,  R. Olivares-Amaya,  R. Olson,  
 T. M. Perrine,  B. Peters,  P. A. Pieniazek,  A. Prociuk,  Y. M. Rhee,  
 J. Ritchie,  M. A. Rohrdanz,  E. Rosta,  N. J. Russ,  H. F. Schaefer III,  
 M. W. Schmidt,  N. E. Schultz,  S. Sharma,  N. Shenvi,  C. D. Sherrill,  
 A. C. Simmonett,  A. Sodt,  T. Stein,  D. Stuck,  K. S. Thanthiriwatte,  
 V. Vanovschi,  L. Vogt,  Tao Wang,  A. Warshel,  M. A. Watson,  
 C. F. Williams,  Q. Wu,  X. Xu,  Jun Yang,  W. Zhang,  Yan Zhao

 Please cite Q-Chem as follows:
 Y. Shao et al., Mol. Phys. 113, 184-215 (2015)
 DOI: 10.1080/00268976.2014.952696

 Q-Chem 5.4.1 for Intel X86 EM64T Linux

 Parts of Q-Chem use Armadillo 9.900.5 (Nocturnal Misbehaviour).
 http://arma.sourceforge.net/

 Q-Chem begins on Fri Mar  4 16:22:46 2022  

 Host: node01
0

     Scratch files written to /src/jdavis/qchem.scratch/qchem10848//
 Processing $rem in /src/tsommerfeld/qchem/config/preferences:
 Processing $rem in /home/jdavis/.qchemrc:

 Checking the input file for inconsistencies... 	...done.

--------------------------------------------------------------
User input:
--------------------------------------------------------------
$molecule
-1 1
C        -0.6645000000    0.0000000000    1.1619088658
C         0.6645000000    0.0000000000    1.1619088658
H        -1.1590800000    0.0000000000    0.1995598658
H         1.1590800000    0.0000000000    0.1995598658
H        -1.1590800000    0.0000000000    2.1242568658
H         1.1590800000    0.0000000000    2.1242568658
O         0.0000000000    0.0000000000   -1.5841414040
H         0.0000000000    0.0000000000   -2.5471307683
$end
$rem
   METHOD adc(2)
   BASIS gen
   PURECART 11
   EE_STATES [0,0,0,10]
   scf_convergence 8
   ADC_DAVIDSON_MAXITER 120
   ADC_DAVIDSON_MAXSUBSPACE 200
   adc_nguess_singles 100
   THRESH 14
   S2THRESH 14
   adc_davidson_conv 5
   adc_davidson_thresh 14
   THREADS 10
   MEM_TOTAL 95000
   STATE_ANALYSIS TRUE
$end
$basis
C 1
S   9   1.00
      6.665000D+03           6.920000D-04
      1.000000D+03           5.329000D-03
      2.280000D+02           2.707700D-02
      6.471000D+01           1.017180D-01
      2.106000D+01           2.747400D-01
      7.495000D+00           4.485640D-01
      2.797000D+00           2.850740D-01
      5.215000D-01           1.520400D-02
      1.596000D-01          -3.191000D-03
S   9   1.00
      6.665000D+03          -1.460000D-04
      1.000000D+03          -1.154000D-03
      2.280000D+02          -5.725000D-03
      6.471000D+01          -2.331200D-02
      2.106000D+01          -6.395500D-02
      7.495000D+00          -1.499810D-01
      2.797000D+00          -1.272620D-01
      5.215000D-01           5.445290D-01
      1.596000D-01           5.804960D-01
S   1   1.00
      1.596000D-01           1.000000D+00
S   1   1.00
      0.0469000              1.0000000
P   4   1.00
      9.439000D+00           3.810900D-02
      2.002000D+00           2.094800D-01
      5.456000D-01           5.085570D-01
      1.517000D-01           4.688420D-01
P   1   1.00
      1.517000D-01           1.000000D+00
P   1   1.00
      0.0330982      1.0000000
P   1   1.00
      0.0165491      1.0000000
P   1   1.00
      0.0082745      1.0000000
P   1   1.00
      0.0041373      1.0000000
D   1   1.00
      5.500000D-01           1.0000000
****
C 2
S   9   1.00
      6.665000D+03           6.920000D-04
      1.000000D+03           5.329000D-03
      2.280000D+02           2.707700D-02
      6.471000D+01           1.017180D-01
      2.106000D+01           2.747400D-01
      7.495000D+00           4.485640D-01
      2.797000D+00           2.850740D-01
      5.215000D-01           1.520400D-02
      1.596000D-01          -3.191000D-03
S   9   1.00
      6.665000D+03          -1.460000D-04
      1.000000D+03          -1.154000D-03
      2.280000D+02          -5.725000D-03
      6.471000D+01          -2.331200D-02
      2.106000D+01          -6.395500D-02
      7.495000D+00          -1.499810D-01
      2.797000D+00          -1.272620D-01
      5.215000D-01           5.445290D-01
      1.596000D-01           5.804960D-01
S   1   1.00
      1.596000D-01           1.000000D+00
S   1   1.00
      0.0469000              1.0000000
P   4   1.00
      9.439000D+00           3.810900D-02
      2.002000D+00           2.094800D-01
      5.456000D-01           5.085570D-01
      1.517000D-01           4.688420D-01
P   1   1.00
      1.517000D-01           1.000000D+00
P   1   1.00
      0.0330982      1.0000000
P   1   1.00
      0.0165491      1.0000000
P   1   1.00
      0.0082745      1.0000000
P   1   1.00
      0.0041373      1.0000000
D   1   1.00
      5.500000D-01           1.0000000
****
H 3
cc-pVDZ
****
H 4
cc-pVDZ
****
H 5
cc-pVDZ
****
H 6
cc-pVDZ
****
O 7
aug-cc-pVDZ
****
H 8
cc-pVDZ
****
$end
--------------------------------------------------------------
 ----------------------------------------------------------------
             Standard Nuclear Orientation (Angstroms)
    I     Atom           X                Y                Z
 ----------------------------------------------------------------
    1      C      -0.6645000000    -0.0000000000     1.0270977517
    2      C       0.6645000000     0.0000000000     1.0270977517
    3      H      -1.1590800000    -0.0000000000     0.0647487517
    4      H       1.1590800000     0.0000000000     0.0647487517
    5      H      -1.1590800000    -0.0000000000     1.9894457517
    6      H       1.1590800000     0.0000000000     1.9894457517
    7      O       0.0000000000    -0.0000000000    -1.7189525181
    8      H       0.0000000000    -0.0000000000    -2.6819418824
 ----------------------------------------------------------------
 Molecular Point Group                 C2v   NOp =  4
 Largest Abelian Subgroup              C2v   NOp =  4
 Nuclear Repulsion Energy =          64.38561153 hartrees
 There are       13 alpha and       13 beta electrons
 Requested basis set is non-standard
 There are 46 shells and 102 basis functions
 Total memory of 95000 MB is distributed as follows: 
   MEM_STATIC is set to 192 MB
   QALLOC/CCMAN JOB total memory use is  94808 MB
 Warning: actual memory use might exceed 95000 MB

 Total QAlloc Memory Limit  95000 MB
 Mega-Array Size       188 MB
 MEM_STATIC part       192 MB

                       Distance Matrix (Angstroms)
             C (  1)   C (  2)   H (  3)   H (  4)   H (  5)   H (  6)
   C (  2)  1.329000
   H (  3)  1.082000  2.061931
   H (  4)  2.061931  1.082000  2.318160
   H (  5)  1.082000  2.061931  1.924697  3.013026
   H (  6)  2.061931  1.082000  3.013026  1.924697  2.318160
   O (  7)  2.825306  2.825306  2.127218  2.127218  3.885316  3.885316
   H (  8)  3.768094  3.768094  2.981237  2.981237  4.813037  4.813037
             O (  7)
   H (  8)  0.962989
 
 A cutoff of  1.0D-14 yielded   1081 shell pairs
 There are      5353 function pairs (      5791 Cartesian)
 Smallest overlap matrix eigenvalue = 4.29E-04

 Scale SEOQF with 1.000000e-02/1.000000e-02/1.000000e-02

 Standard Electronic Orientation quadrupole field applied
 Nucleus-field energy     =    -0.0000000005 hartrees
 ================ Generating on-the-fly SAD Guess ================
Attempting to make child job directory: /src/jdavis/qchem.scratch/qchem10848//Frg1/
Attempting to make child job directory: /src/jdavis/qchem.scratch/qchem10848//Frg2/
Attempting to make child job directory: /src/jdavis/qchem.scratch/qchem10848//Frg3/
Creating input file /src/jdavis/qchem.scratch/qchem10848/Frg1.input
using default PutDataFrgm: nothing
calling putenv with: QCSCRATCH=/src/jdavis/qchem.scratch/qchem10848/ 
Spawning Job For Fragment 0
Done Job For Fragment 0
calling putenv with: QCSCRATCH=/src/jdavis/qchem.scratch 
calling putenv with: QCTHREADS=1 
Creating input file /src/jdavis/qchem.scratch/qchem10848/Frg2.input
using default PutDataFrgm: nothing
calling putenv with: QCSCRATCH=/src/jdavis/qchem.scratch/qchem10848/ 
Spawning Job For Fragment 1
Done Job For Fragment 1
calling putenv with: QCSCRATCH=/src/jdavis/qchem.scratch 
calling putenv with: QCTHREADS=1 
Creating input file /src/jdavis/qchem.scratch/qchem10848/Frg3.input
using default PutDataFrgm: nothing
calling putenv with: QCSCRATCH=/src/jdavis/qchem.scratch/qchem10848/ 
Spawning Job For Fragment 2
Done Job For Fragment 2
calling putenv with: QCSCRATCH=/src/jdavis/qchem.scratch 
calling putenv with: QCTHREADS=1 
 Time for running child jobs:  CPU 1.80 s  wall 80.90 s
 ============= Method Specific SAD Guess Constructed =============
 Guess from on-the-fly superposition of atomic densities
 Warning: Energy on first SCF cycle will be non-variational
 A restricted Hartree-Fock SCF calculation will be
 performed using Pulay DIIS extrapolation
 SCF converges when DIIS error is below 1.0E-08
 using 10 threads for integral computing
 -------------------------------------------------------
 OpenMP Integral computing Module                
 Release: version 1.0, May 2013, Q-Chem Inc. Pittsburgh 
 -------------------------------------------------------
 ---------------------------------------
  Cycle       Energy         DIIS Error
 ---------------------------------------
    1    -153.5741420675      5.28E-02
    2    -153.2897537866      1.08E-02
    3    -149.1384487142      2.94E-02
    4    -153.3553311967      8.13E-03
    5    -153.3932217710      5.92E-03
    6    -153.4314994184      2.60E-03
    7    -153.4409487812      3.74E-04
    8    -153.4411795664      7.45E-05
    9    -153.4411905951      2.33E-05
   10    -153.4411915929      4.55E-06
   11    -153.4411916445      1.62E-06
   12    -153.4411916494      2.69E-07
   13    -153.4411916496      4.56E-08
   14    -153.4411916496      9.75E-09 Convergence criterion met
 ---------------------------------------
 SCF time:  CPU 17.67 s  wall 1.77 s
 SCF   energy in the final basis set = -153.44119165
 Total energy in the final basis set = -153.44119165
================================================================================
|                                                                              |
|                                 A D C  M A N                                 |
|                                                                              |
 ------------------------------------------------------------------------------ 
|                                                                              |
| Components:                                                                  |
|                                                                              |
| - libvmm - 1.3-trunk                                                         |
|   Authors:                                                                   |
|   Evgeny Epifanovsky, Ilya Kaliman                                           |
|                                                                              |
| - libtensor - 2.5-trunk                                                      |
|   Authors:                                                                   |
|   Evgeny Epifanovsky, Michael Wormit, Dmitry Zuev, Sam Manzer,               |
|   Ilya Kaliman                                                               |
|                                                                              |
| - libwfa - 1.1-trunk                                                         |
|   Authors:                                                                   |
|   Felix Plasser, Stefanie Mewes (Baeppler), Benjamin Thomitzni,              |
|   Michael Wormit, Feng Chen, Anna I. Krylov, Pavel Pokhilko                  |
|                                                                              |
| - libadc - 1.1-trunk                                                         |
|   Authors:                                                                   |
|   Michael Wormit, Adrian L. Dempwolff, Philipp H. P. Harbach,                |
|   Caroline Krauter, Dirk Rehn, Matthias Schneider, Jan Wenzel                |
|                                                                              |
| - adcman - 2.6-trunk                                                         |
|   Authors:                                                                   |
|   Michael Wormit, Adrian L. Dempwolff, Philipp H. P. Harbach,                |
|   Caroline Krauter, Daniel Lefrancois, Jan-Michael Mewes, Dirk Rehn,         |
|   Matthias Schneider, Jan Wenzel, Andreas Dreuw                              |
|                                                                              |
| Authors of earlier versions of ADCMAN:                                       |
| Andreas Dreuw, Jan Hendrik Starcke, Dirk Rehn, Michael Wormit                |
|                                                                              |
================================================================================

 
 Alpha MOs, Restricted
 -- Occupied --                  
-20.213 -11.049 -11.047  -0.930  -0.854  -0.598  -0.473  -0.384
  1 A1    2 A1    1 B1    3 A1    4 A1    2 B1    5 A1    6 A1                 
 -0.328  -0.271  -0.194  -0.130  -0.129
  3 B1    7 A1    1 B2    4 B1    2 B2                                         
 -- Virtual --                   
  0.051   0.054   0.055   0.055   0.057   0.069   0.089   0.098
  5 B1    1 A2    3 B2    8 A1    6 B1    9 A1    7 B1    2 A2                 
  0.099   0.100   0.104   0.112   0.151   0.160   0.169   0.172
  4 B2   10 A1    8 B1   11 A1    9 B1   12 A1   13 A1    3 A2                 
  0.173   0.184   0.242   0.257   0.279   0.301   0.312   0.330
  5 B2   10 B1   14 A1   11 B1    4 A2   15 A1   12 B1    6 B2                 
  0.337   0.364   0.414   0.451   0.452   0.478   0.487   0.530
 16 A1   17 A1    5 A2    7 B2   13 B1   14 B1   18 A1   19 A1                 
  0.544   0.580   0.640   0.663   0.687   0.857   0.967   1.029
 15 B1   20 A1   16 B1   21 A1   17 B1   22 A1   23 A1    8 B2                 
  1.060   1.083   1.084   1.132   1.187   1.203   1.214   1.216
 24 A1   25 A1    6 A2   18 B1   19 B1    9 B2   20 B1   26 A1                 
  1.291   1.306   1.333   1.333   1.370   1.468   1.483   1.498
  7 A2   27 A1   28 A1   21 B1   10 B2   11 B2    8 A2   22 B1                 
  1.562   1.643   1.692   1.719   1.853   1.927   1.969   2.035
 23 B1   29 A1   24 B1   12 B2   30 A1   25 B1   31 A1    9 A2                 
  2.124   2.131   2.140   2.197   2.212   2.290   2.357   2.393
 13 B2   32 A1   26 B1   33 A1   14 B2   34 A1   10 A2   15 B2                 
  2.438   2.476   2.553   2.604   2.735   2.752   2.847   3.008
 27 B1   28 B1   35 A1   11 A2   29 B1   36 A1   30 B1   37 A1                 
  3.038   3.088   3.465   3.562   3.921   3.945   3.970   4.087
 38 A1   39 A1   31 B1   32 B1   16 B2   12 A2   40 A1   33 B1                 
  4.537
 41 A1                                                                         
 
 Beta MOs, Restricted
 -- Occupied --                  
-20.213 -11.049 -11.047  -0.930  -0.854  -0.598  -0.473  -0.384
  1 A1    2 A1    1 B1    3 A1    4 A1    2 B1    5 A1    6 A1                 
 -0.328  -0.271  -0.194  -0.130  -0.129
  3 B1    7 A1    1 B2    4 B1    2 B2                                         
 -- Virtual --                   
  0.051   0.054   0.055   0.055   0.057   0.069   0.089   0.098
  5 B1    1 A2    3 B2    8 A1    6 B1    9 A1    7 B1    2 A2                 
  0.099   0.100   0.104   0.112   0.151   0.160   0.169   0.172
  4 B2   10 A1    8 B1   11 A1    9 B1   12 A1   13 A1    3 A2                 
  0.173   0.184   0.242   0.257   0.279   0.301   0.312   0.330
  5 B2   10 B1   14 A1   11 B1    4 A2   15 A1   12 B1    6 B2                 
  0.337   0.364   0.414   0.451   0.452   0.478   0.487   0.530
 16 A1   17 A1    5 A2    7 B2   13 B1   14 B1   18 A1   19 A1                 
  0.544   0.580   0.640   0.663   0.687   0.857   0.967   1.029
 15 B1   20 A1   16 B1   21 A1   17 B1   22 A1   23 A1    8 B2                 
  1.060   1.083   1.084   1.132   1.187   1.203   1.214   1.216
 24 A1   25 A1    6 A2   18 B1   19 B1    9 B2   20 B1   26 A1                 
  1.291   1.306   1.333   1.333   1.370   1.468   1.483   1.498
  7 A2   27 A1   28 A1   21 B1   10 B2   11 B2    8 A2   22 B1                 
  1.562   1.643   1.692   1.719   1.853   1.927   1.969   2.035
 23 B1   29 A1   24 B1   12 B2   30 A1   25 B1   31 A1    9 A2                 
  2.124   2.131   2.140   2.197   2.212   2.290   2.357   2.393
 13 B2   32 A1   26 B1   33 A1   14 B2   34 A1   10 A2   15 B2                 
  2.438   2.476   2.553   2.604   2.735   2.752   2.847   3.008
 27 B1   28 B1   35 A1   11 A2   29 B1   36 A1   30 B1   37 A1                 
  3.038   3.088   3.465   3.562   3.921   3.945   3.970   4.087
 38 A1   39 A1   31 B1   32 B1   16 B2   12 A2   40 A1   33 B1                 
  4.537
 41 A1                                                                         

--------------------------------------------------------------------------------
                                   HF Summary                                   
--------------------------------------------------------------------------------
  Energy:                                                 -153.4411916496 a.u.
  Dip. moment [a.u.]:                  [   0.000000,    0.000000,    2.075630]
  Total dipole [Debye]:                                               5.275727
  <r^2> [a.u.]:                        [  55.717747,   19.707471,  208.034216]
  Total <r^2> [a.u.]:                                               283.459433
--------------------------------------------------------------------------------

--------------------------------------------------------------------------------
                                 MP(2) Summary                                  
--------------------------------------------------------------------------------
  MP energy contribution:                                   -0.5277836654 a.u.
  Total energy:                                           -153.9689753150 a.u.
  Dip. moment [a.u.]:                  [   0.000000,   -0.000000,    2.143441]
  Total dipole [Debye]:                                               5.448085
  <r^2> [a.u.]:                        [  56.718916,   20.421278,  209.309636]
  Total <r^2> [a.u.]:                                               286.449830

  Density matrix analysis:
  ------------------------
  NOs
    Occupation of frontier NOs:
       0.0446   1.9358
    Number of electrons: 26.000000
    Number of unpaired electrons: n_u =  0.71424, n_u,nl =  0.08519
    NO participation ratio (PR_NO): 22.997303
  
  
  Mulliken Population Analysis
  Atom      Charge (e)              h+              e-           Del q
  --------------------------------------------------------------------
   1 C       -0.187402        0.094726       -0.100184       -0.005458
   2 C       -0.187402        0.094726       -0.100184       -0.005458
   3 H        0.181198        0.017375       -0.010456        0.006919
   4 H        0.181198        0.017375       -0.010456        0.006919
   5 H        0.007938        0.018361       -0.012806        0.005554
   6 H        0.007938        0.018361       -0.012806        0.005554
   7 O       -1.057464        0.277798       -0.274458        0.003340
   8 H        0.053998        0.015391       -0.032762       -0.017371
  --------------------------------------------------------------------
  Sum:       -1.000000        0.554112       -0.554112        0.000000
  
  Multipole moment analysis of the density matrix
    Molecular charge:                      -1.000000
    Number of electrons:                   26.000000
      Center of electronic charge [Ang]: [ -0.000000,   0.000000,  -0.043625]
    Total nuclear charge:                  25.000000
      Center of nuclear charge [Ang]:    [  0.000000,   0.000000,  -0.000000]
    Dipole moment [D]:                     5.448084
      Cartesian components [D]:          [  0.000000,  -0.000000,   5.448084]
    RMS size of the density [Ang]:         1.755920
      Cartesian components [Ang]:        [  0.781589,   0.468982,   1.500810]
  
  Exciton analysis of the difference density matrix
    <r_h> [Ang]:                  [ -0.000000,   0.000000,  -0.482653]
    <r_e> [Ang]:                  [ -0.000000,   0.000000,  -0.547413]
    |<r_e - r_h>| [Ang]:            0.064760
    Hole size [Ang]:                1.985514
      Cartesian components [Ang]: [  0.905394,   0.770796,   1.590095]
    Electron size [Ang]:            2.320948
      Cartesian components [Ang]: [  1.151387,   0.977169,   1.762455]
--------------------------------------------------------------------------------
  Starting Davidson for singlet states of irrep B2 ... 
--------------------------------------------------------------------------------
   It NVec Conv  Avg. Norm  Max. Norm  Conv. states           Remark
--------------------------------------------------------------------------------
       100    0  1.548e-01  5.244e-01  0.2035 n n n n n n n n Guess.
    1  110    0  1.553e-02  5.860e-02  0.0255 n n n n n n n n 
    2  120    0  2.328e-02  2.008e-01  0.0239 n n n n n n n n 
    3  130    0  1.320e-02  1.250e-01  0.0239 n n n n n n n n 
    4  140    0  1.893e-03  1.753e-02  0.0239 n n n n n n n n 
    5  150    3  2.687e-04  2.179e-03  0.0239 y y y n n n n n 
    6  160    6  5.304e-05  4.429e-04  0.0239 y y y y y y n n 
    7  170    8  8.005e-06  6.843e-05  0.0239 y y y y y y y y 
    8  180   10  1.108e-06  8.277e-06  0.0239 y y y y y y y y Converged.
--------------------------------------------------------------------------------
  Davidson Summary: 
 ------------------------------------------------------------
  State  0: excitation energy =   0.0239 a.u.   (converged)
  State  1: excitation energy =   0.0281 a.u.   (converged)
  State  2: excitation energy =   0.0313 a.u.   (converged)
  State  3: excitation energy =   0.0460 a.u.   (converged)
  State  4: excitation energy =   0.0546 a.u.   (converged)
  State  5: excitation energy =   0.0571 a.u.   (converged)
  State  6: excitation energy =   0.0915 a.u.   (converged)
  State  7: excitation energy =   0.0955 a.u.   (converged)
  State  8: excitation energy =   0.1037 a.u.   (converged)
  State  9: excitation energy =   0.1429 a.u.   (converged)
 ------------------------------------------------------------


--------------------------------------------------------------------------------
                   State-averaged natural transition orbitals
--------------------------------------------------------------------------------
--------------------------------------------------------------------------------

--------------------------------------------------------------------------------
                             Excited State Summary
--------------------------------------------------------------------------------
--------------------------------------------------------------------------------

  Excited state 1 (singlet, B2)                                    [converged]
  ----------------------------------------------------------------------------
  Term symbol:  1 (1) B2                                    R^2 =  7.48728e-09

  Total energy:                                           -153.9451141195 a.u.
  Excitation energy:                                               0.649296 eV

  Osc. strength:                                                      0.000185
  Trans. dip. moment [a.u.]:           [  -0.000000,    0.107893,    0.000000]
  <i|r^2|0> [a.u.]:                    [   0.000000,    0.000000,   -0.000000]

  Dip. moment [a.u.]:                  [  -0.000000,    0.000000,   -2.409663]
  Total dipole [Debye]:                                               6.124754
  <r^2> [a.u.]:                        [ 150.244947,  111.699418,  478.559724]
  Total <r^2> [a.u.]:                                               740.504089

  V1^2 = 0.8570, V2^2 = 0.1430

  Important amplitudes:
      occ i      occ j       vir a       vir b          v   
    ---------------------------------------------------------
     2 (B2) A               8 (A1) A                  0.6095
     2 (B2) A              10 (A1) A                  0.1585
    ---------------------------------------------------------

  Density matrix analysis:
  ------------------------
  NOs
    Occupation of frontier NOs:
       0.9584   0.9999
    Number of electrons: 26.000000
    Number of unpaired electrons: n_u =  2.75759, n_u,nl =  2.12015
    NO participation ratio (PR_NO):  3.897584
  
  
  Mulliken Population Analysis
  Atom      Charge (e)              h+              e-           Del q
  --------------------------------------------------------------------
   1 C       -0.687486        0.042380       -0.542464       -0.500084
   2 C       -0.687486        0.042380       -0.542464       -0.500084
   3 H        0.143409       -0.002803       -0.034985       -0.037789
   4 H        0.143409       -0.002803       -0.034985       -0.037789
   5 H        0.041916        0.036234       -0.002256        0.033978
   6 H        0.041916        0.036234       -0.002256        0.033978
   7 O       -0.170275        1.421927       -0.534738        0.887188
   8 H        0.174599        0.148634       -0.028033        0.120601
  --------------------------------------------------------------------
  Sum:       -1.000000        1.722181       -1.722181       -0.000000
  
  Multipole moment analysis of the density matrix
    Molecular charge:                      -1.000000
    Number of electrons:                   26.000000
      Center of electronic charge [Ang]: [  0.000000,  -0.000000,   0.049044]
    Total nuclear charge:                  25.000000
      Center of nuclear charge [Ang]:    [  0.000000,   0.000000,  -0.000000]
    Dipole moment [D]:                     6.124752
      Cartesian components [D]:          [ -0.000000,   0.000000,  -6.124752]
    RMS size of the density [Ang]:         2.823662
      Cartesian components [Ang]:        [  1.272080,   1.096831,   2.269766]
  
  Exciton analysis of the difference density matrix
    <r_h> [Ang]:                  [ -0.000000,   0.000000,  -1.494065]
    <r_e> [Ang]:                  [  0.000000,  -0.000000,  -0.095026]
    |<r_e - r_h>| [Ang]:            1.399039
    Hole size [Ang]:                1.813311
      Cartesian components [Ang]: [  0.873125,   0.902508,   1.308139]
    Electron size [Ang]:            8.907357
      Cartesian components [Ang]: [  3.996221,   3.956822,   6.907588]

  Transition density matrix analysis:
  -----------------------------------
  
  CT numbers (Mulliken)
    omega =     0.8429
    <Phe> =    -0.0000
  
  Exciton analysis of the transition density matrix
    Trans. dipole moment [D]:             0.137118
      Cartesian components [D]:         [ -0.000000,   0.137118,   0.000000]
    <r_h> [Ang]:                        [ -0.000000,  -0.000000,  -1.746858]
    <r_e> [Ang]:                        [  0.000000,  -0.000000,   0.735192]
    |<r_e - r_h>| [Ang]:                  2.482050
    Hole size [Ang]:                      1.098713
      Cartesian components [Ang]:       [  0.480023,   0.829175,   0.537789]
    Electron size [Ang]:                 11.509151
      Cartesian components [Ang]:       [  5.181122,   5.147554,   8.894898]
    RMS electron-hole separation [Ang]:  11.824694
      Cartesian components [Ang]:       [  5.203257,   5.213870,   9.250138]
    Covariance(r_h, r_e) [Ang^2]:         0.002454
    Correlation coefficient:              0.000194
    Center-of-mass size [Ang]:            5.780844
      Cartesian components [Ang]:       [  2.601683,   2.606973,   4.455681]

  Decomposition into state-averaged NTOs
    H- 0 -> L+ 8:  0.5383 ( 58.0%)
    H- 0 -> L+ 4: -0.2138 (  9.1%)
    H- 0 -> L+ 3:  0.1870 (  7.0%)
    H- 0 -> L+ 5: -0.1757 (  6.2%)
    H- 0 -> L+ 7:  0.1087 (  2.4%)
    H- 0 -> L+ 0: -0.0875 (  1.5%)
                   omega =  84.3%
  ----------------------------------------------------------------------------


  Excited state 2 (singlet, B2)                                    [converged]
  ----------------------------------------------------------------------------
  Term symbol:  2 (1) B2                                    R^2 =  6.09004e-09

  Total energy:                                           -153.9408585503 a.u.
  Excitation energy:                                               0.765096 eV

  Osc. strength:                                                      0.000014
  Trans. dip. moment [a.u.]:           [   0.000000,    0.027051,    0.000000]
  <i|r^2|0> [a.u.]:                    [  -0.000000,   -0.000000,   -0.000000]

  Dip. moment [a.u.]:                  [  -0.000000,    0.000000,   -2.896852]
  Total dipole [Debye]:                                               7.363065
  <r^2> [a.u.]:                        [ 305.737864,  270.113985,  281.318552]
  Total <r^2> [a.u.]:                                               857.170400

  V1^2 = 0.8551, V2^2 = 0.1449

  Important amplitudes:
      occ i      occ j       vir a       vir b          v   
    ---------------------------------------------------------
     4 (B1) A               1 (A2) A                 -0.6436
     4 (B1) A               2 (A2) A                 -0.1131
    ---------------------------------------------------------

  Density matrix analysis:
  ------------------------
  NOs
    Occupation of frontier NOs:
       0.9581   0.9999
    Number of electrons: 26.000000
    Number of unpaired electrons: n_u =  2.75906, n_u,nl =  2.12031
    NO participation ratio (PR_NO):  3.902633
  
  
  Mulliken Population Analysis
  Atom      Charge (e)              h+              e-           Del q
  --------------------------------------------------------------------
   1 C       -0.678483        0.049638       -0.540719       -0.491081
   2 C       -0.678483        0.049638       -0.540719       -0.491081
   3 H        0.133867       -0.006392       -0.040938       -0.047330
   4 H        0.133867       -0.006392       -0.040938       -0.047330
   5 H        0.044421        0.038363       -0.001879        0.036484
   6 H        0.044421        0.038363       -0.001879        0.036484
   7 O       -0.172415        1.423395       -0.538346        0.885048
   8 H        0.172805        0.145526       -0.026720        0.118807
  --------------------------------------------------------------------
  Sum:       -1.000000        1.732139       -1.732139        0.000000
  
  Multipole moment analysis of the density matrix
    Molecular charge:                      -1.000000
    Number of electrons:                   26.000000
      Center of electronic charge [Ang]: [  0.000000,  -0.000000,   0.058960]
    Total nuclear charge:                  25.000000
      Center of nuclear charge [Ang]:    [  0.000000,   0.000000,  -0.000000]
    Dipole moment [D]:                     7.363063
      Cartesian components [D]:          [ -0.000000,   0.000000,  -7.363063]
    RMS size of the density [Ang]:         3.037850
      Cartesian components [Ang]:        [  1.814634,   1.705642,   1.739660]
  
  Exciton analysis of the difference density matrix
    <r_h> [Ang]:                  [ -0.000000,   0.000000,  -1.466922]
    <r_e> [Ang]:                  [  0.000000,  -0.000000,   0.072913]
    |<r_e - r_h>| [Ang]:            1.539835
    Hole size [Ang]:                1.828709
      Cartesian components [Ang]: [  0.949900,   0.817990,   1.331450]
    Electron size [Ang]:            9.887214
      Cartesian components [Ang]: [  6.415628,   6.405935,   3.944707]

  Transition density matrix analysis:
  -----------------------------------
  
  CT numbers (Mulliken)
    omega =     0.8409
    <Phe> =     0.0000
  
  Exciton analysis of the transition density matrix
    Trans. dipole moment [D]:             0.034378
      Cartesian components [D]:         [  0.000000,   0.034378,   0.000000]
    <r_h> [Ang]:                        [ -0.000000,   0.000000,  -1.728038]
    <r_e> [Ang]:                        [  0.000000,  -0.000000,   1.027157]
    |<r_e - r_h>| [Ang]:                  2.755196
    Hole size [Ang]:                      1.142556
      Cartesian components [Ang]:       [  0.828961,   0.475812,   0.625988]
    Electron size [Ang]:                 12.834951
      Cartesian components [Ang]:       [  8.408501,   8.397836,   4.848652]
    RMS electron-hole separation [Ang]:  13.176737
      Cartesian components [Ang]:       [  8.448925,   8.411281,   5.611808]
    Covariance(r_h, r_e) [Ang^2]:         0.003056
    Correlation coefficient:              0.000208
    Center-of-mass size [Ang]:            6.442971
      Cartesian components [Ang]:       [  4.224801,   4.205664,   2.444447]

  Decomposition into state-averaged NTOs
    H- 1 -> L+ 9: -0.5847 ( 68.4%)
    H- 1 -> L+ 6:  0.2743 ( 15.1%)
                   omega =  84.1%
  ----------------------------------------------------------------------------


  Excited state 3 (singlet, B2)                                    [converged]
  ----------------------------------------------------------------------------
  Term symbol:  3 (1) B2                                    R^2 =  1.19982e-08

  Total energy:                                           -153.9376624003 a.u.
  Excitation energy:                                               0.852068 eV

  Osc. strength:                                                      0.001271
  Trans. dip. moment [a.u.]:           [  -0.000000,   -0.246757,    0.000000]
  <i|r^2|0> [a.u.]:                    [  -0.000000,   -0.000000,   -0.000000]

  Dip. moment [a.u.]:                  [  -0.000000,   -0.000000,   -3.201097]
  Total dipole [Debye]:                                               8.136378
  <r^2> [a.u.]:                        [ 301.711262,  109.902554,  292.180663]
  Total <r^2> [a.u.]:                                               703.794479

  V1^2 = 0.8588, V2^2 = 0.1412

  Important amplitudes:
      occ i      occ j       vir a       vir b          v   
    ---------------------------------------------------------
     2 (B2) A               9 (A1) A                  0.5905
     2 (B2) A              11 (A1) A                  0.2017
    ---------------------------------------------------------

  Density matrix analysis:
  ------------------------
  NOs
    Occupation of frontier NOs:
       0.9588   0.9994
    Number of electrons: 26.000000
    Number of unpaired electrons: n_u =  2.75609, n_u,nl =  2.11936
    NO participation ratio (PR_NO):  3.894209
  
  
  Mulliken Population Analysis
  Atom      Charge (e)              h+              e-           Del q
  --------------------------------------------------------------------
   1 C       -0.686615        0.042781       -0.541993       -0.499213
   2 C       -0.686615        0.042781       -0.541993       -0.499213
   3 H        0.142597       -0.002571       -0.036030       -0.038600
   4 H        0.142597       -0.002571       -0.036030       -0.038600
   5 H        0.041017        0.036084       -0.003004        0.033080
   6 H        0.041017        0.036084       -0.003004        0.033080
   7 O       -0.165382        1.418339       -0.526258        0.892081
   8 H        0.171383        0.146015       -0.028630        0.117385
  --------------------------------------------------------------------
  Sum:       -1.000000        1.716943       -1.716943       -0.000000
  
  Multipole moment analysis of the density matrix
    Molecular charge:                      -1.000000
    Number of electrons:                   26.000000
      Center of electronic charge [Ang]: [  0.000000,   0.000000,   0.065152]
    Total nuclear charge:                  25.000000
      Center of nuclear charge [Ang]:    [  0.000000,   0.000000,  -0.000000]
    Dipole moment [D]:                     8.136375
      Cartesian components [D]:          [ -0.000000,  -0.000000,  -8.136375]
    RMS size of the density [Ang]:         2.752427
      Cartesian components [Ang]:        [  1.802645,   1.087974,   1.772748]
  
  Exciton analysis of the difference density matrix
    <r_h> [Ang]:                  [ -0.000000,   0.000000,  -1.488622]
    <r_e> [Ang]:                  [  0.000000,   0.000000,   0.158612]
    |<r_e - r_h>| [Ang]:            1.647234
    Hole size [Ang]:                1.812100
      Cartesian components [Ang]: [  0.875884,   0.901079,   1.305600]
    Electron size [Ang]:            8.575679
      Cartesian components [Ang]: [  6.381592,   3.925058,   4.172704]

  Transition density matrix analysis:
  -----------------------------------
  
  CT numbers (Mulliken)
    omega =     0.8445
    <Phe> =    -0.0001
  
  Exciton analysis of the transition density matrix
    Trans. dipole moment [D]:             0.313597
      Cartesian components [D]:         [ -0.000000,  -0.313597,   0.000000]
    <r_h> [Ang]:                        [ -0.000000,  -0.000000,  -1.745939]
    <r_e> [Ang]:                        [  0.000000,   0.000000,   1.152392]
    |<r_e - r_h>| [Ang]:                  2.898331
    Hole size [Ang]:                      1.099390
      Cartesian components [Ang]:       [  0.479857,   0.828665,   0.540102]
    Electron size [Ang]:                 11.016790
      Cartesian components [Ang]:       [  8.316925,   5.098496,   5.118962]
    RMS electron-hole separation [Ang]:  11.443677
      Cartesian components [Ang]:       [  8.330708,   5.164452,   5.906393]
    Covariance(r_h, r_e) [Ang^2]:         0.010457
    Correlation coefficient:              0.000863
    Center-of-mass size [Ang]:            5.536227
      Cartesian components [Ang]:       [  4.165402,   2.583173,   2.574190]

  Decomposition into state-averaged NTOs
    H- 0 -> L+ 7: -0.4688 ( 44.0%)
    H- 0 -> L+ 4:  0.3175 ( 20.2%)
    H- 0 -> L+ 8:  0.1956 (  7.7%)
    H- 0 -> L+ 5: -0.1847 (  6.8%)
    H- 0 -> L+ 0:  0.1648 (  5.4%)
                   omega =  84.5%
  ----------------------------------------------------------------------------


  Excited state 4 (singlet, B2)                                    [converged]
  ----------------------------------------------------------------------------
  Term symbol:  4 (1) B2                                    R^2 =  3.53033e-08

  Total energy:                                           -153.9230005579 a.u.
  Excitation energy:                                               1.251037 eV

  Osc. strength:                                                      0.002788
  Trans. dip. moment [a.u.]:           [  -0.000000,    0.301611,   -0.000000]
  <i|r^2|0> [a.u.]:                    [  -0.000000,   -0.000000,   -0.000000]

  Dip. moment [a.u.]:                  [  -0.000000,    0.000000,   -2.968365]
  Total dipole [Debye]:                                               7.544833
  <r^2> [a.u.]:                        [ 114.326151,   76.762524,  378.167911]
  Total <r^2> [a.u.]:                                               569.256586

  V1^2 = 0.8630, V2^2 = 0.1370

  Important amplitudes:
      occ i      occ j       vir a       vir b          v   
    ---------------------------------------------------------
     2 (B2) A              10 (A1) A                  0.4817
     2 (B2) A              11 (A1) A                 -0.3113
    ---------------------------------------------------------

  Density matrix analysis:
  ------------------------
  NOs
    Occupation of frontier NOs:
       0.9597   0.9995
    Number of electrons: 26.000000
    Number of unpaired electrons: n_u =  2.75196, n_u,nl =  2.11737
    NO participation ratio (PR_NO):  3.880175
  
  
  Mulliken Population Analysis
  Atom      Charge (e)              h+              e-           Del q
  --------------------------------------------------------------------
   1 C       -0.687442        0.039897       -0.539936       -0.500040
   2 C       -0.687442        0.039897       -0.539936       -0.500040
   3 H        0.143753       -0.002747       -0.034698       -0.037445
   4 H        0.143753       -0.002747       -0.034698       -0.037445
   5 H        0.045688        0.036878        0.000873        0.037751
   6 H        0.045688        0.036878        0.000873        0.037751
   7 O       -0.190825        1.406591       -0.539953        0.866638
   8 H        0.186827        0.149464       -0.016634        0.132830
  --------------------------------------------------------------------
  Sum:       -1.000000        1.704109       -1.704109       -0.000000
  
  Multipole moment analysis of the density matrix
    Molecular charge:                      -1.000000
    Number of electrons:                   26.000000
      Center of electronic charge [Ang]: [  0.000000,  -0.000000,   0.060415]
    Total nuclear charge:                  25.000000
      Center of nuclear charge [Ang]:    [  0.000000,   0.000000,  -0.000000]
    Dipole moment [D]:                     7.544831
      Cartesian components [D]:          [ -0.000000,   0.000000,  -7.544831]
    RMS size of the density [Ang]:         2.475365
      Cartesian components [Ang]:        [  1.109653,   0.909262,   2.017261]
  
  Exciton analysis of the difference density matrix
    <r_h> [Ang]:                  [ -0.000000,   0.000000,  -1.488996]
    <r_e> [Ang]:                  [  0.000000,  -0.000000,   0.098374]
    |<r_e - r_h>| [Ang]:            1.587370
    Hole size [Ang]:                1.818443
      Cartesian components [Ang]: [  0.868973,   0.903119,   1.317572]
    Electron size [Ang]:            7.210167
      Cartesian components [Ang]: [  3.197100,   3.173945,   5.629488]

  Transition density matrix analysis:
  -----------------------------------
  
  CT numbers (Mulliken)
    omega =     0.8484
    <Phe> =    -0.0005
  
  Exciton analysis of the transition density matrix
    Trans. dipole moment [D]:             0.383310
      Cartesian components [D]:         [ -0.000000,   0.383310,  -0.000000]
    <r_h> [Ang]:                        [ -0.000000,  -0.000000,  -1.746331]
    <r_e> [Ang]:                        [  0.000000,  -0.000000,   1.018768]
    |<r_e - r_h>| [Ang]:                  2.765099
    Hole size [Ang]:                      1.097750
      Cartesian components [Ang]:       [  0.479372,   0.827858,   0.538432]
    Electron size [Ang]:                  9.151292
      Cartesian components [Ang]:       [  4.088807,   4.081381,   7.097192]
    RMS electron-hole separation [Ang]:   9.621900
      Cartesian components [Ang]:       [  4.116708,   4.164257,   7.634962]
    Covariance(r_h, r_e) [Ang^2]:         0.008001
    Correlation coefficient:              0.000796
    Center-of-mass size [Ang]:            4.608883
      Cartesian components [Ang]:       [  2.058457,   2.082366,   3.559256]

  Decomposition into state-averaged NTOs
    H- 0 -> L+ 3:  0.3856 ( 29.7%)
    H- 0 -> L+ 0: -0.2652 ( 14.1%)
    H- 0 -> L+ 7: -0.2606 ( 13.6%)
    H- 0 -> L+ 8: -0.2562 ( 13.1%)
    H- 0 -> L+ 5: -0.1944 (  7.6%)
    H- 0 -> L+ 4: -0.1731 (  6.0%)
                   omega =  84.8%
  ----------------------------------------------------------------------------


  Excited state 5 (singlet, B2)                                    [converged]
  ----------------------------------------------------------------------------
  Term symbol:  5 (1) B2                                    R^2 =  1.24471e-07

  Total energy:                                           -153.9143968541 a.u.
  Excitation energy:                                               1.485155 eV

  Osc. strength:                                                      0.000603
  Trans. dip. moment [a.u.]:           [   0.000000,    0.128706,    0.000000]
  <i|r^2|0> [a.u.]:                    [   0.000000,    0.000000,    0.000000]

  Dip. moment [a.u.]:                  [  -0.000000,    0.000000,   -2.892630]
  Total dipole [Debye]:                                               7.352333
  <r^2> [a.u.]:                        [ 193.885534,  158.587390,  244.222749]
  Total <r^2> [a.u.]:                                               596.695672

  V1^2 = 0.8598, V2^2 = 0.1402

  Important amplitudes:
      occ i      occ j       vir a       vir b          v   
    ---------------------------------------------------------
     4 (B1) A               2 (A2) A                 -0.6340
     4 (B1) A               3 (A2) A                 -0.1211
    ---------------------------------------------------------

  Density matrix analysis:
  ------------------------
  NOs
    Occupation of frontier NOs:
       0.9593   0.9995
    Number of electrons: 26.000000
    Number of unpaired electrons: n_u =  2.75495, n_u,nl =  2.11832
    NO participation ratio (PR_NO):  3.889320
  
  
  Mulliken Population Analysis
  Atom      Charge (e)              h+              e-           Del q
  --------------------------------------------------------------------
   1 C       -0.677560        0.049528       -0.539687       -0.490158
   2 C       -0.677560        0.049528       -0.539687       -0.490158
   3 H        0.134301       -0.006063       -0.040833       -0.046896
   4 H        0.134301       -0.006063       -0.040833       -0.046896
   5 H        0.043446        0.037415       -0.001906        0.035508
   6 H        0.043446        0.037415       -0.001906        0.035508
   7 O       -0.171193        1.415405       -0.529134        0.886271
   8 H        0.170819        0.142857       -0.026036        0.116821
  --------------------------------------------------------------------
  Sum:       -1.000000        1.720022       -1.720022        0.000000
  
  Multipole moment analysis of the density matrix
    Molecular charge:                      -1.000000
    Number of electrons:                   26.000000
      Center of electronic charge [Ang]: [  0.000000,  -0.000000,   0.058874]
    Total nuclear charge:                  25.000000
      Center of nuclear charge [Ang]:    [  0.000000,   0.000000,  -0.000000]
    Dipole moment [D]:                     7.352331
      Cartesian components [D]:          [ -0.000000,   0.000000,  -7.352331]
    RMS size of the density [Ang]:         2.534392
      Cartesian components [Ang]:        [  1.445064,   1.306919,   1.620769]
  
  Exciton analysis of the difference density matrix
    <r_h> [Ang]:                  [ -0.000000,   0.000000,  -1.466336]
    <r_e> [Ang]:                  [  0.000000,  -0.000000,   0.083048]
    |<r_e - r_h>| [Ang]:            1.549383
    Hole size [Ang]:                1.820647
      Cartesian components [Ang]: [  0.947308,   0.812393,   1.325662]
    Electron size [Ang]:            7.481151
      Cartesian components [Ang]: [  4.819629,   4.811875,   3.095910]

  Transition density matrix analysis:
  -----------------------------------
  
  CT numbers (Mulliken)
    omega =     0.8455
    <Phe> =     0.0000
  
  Exciton analysis of the transition density matrix
    Trans. dipole moment [D]:             0.163569
      Cartesian components [D]:         [  0.000000,   0.163569,   0.000000]
    <r_h> [Ang]:                        [ -0.000000,   0.000000,  -1.727082]
    <r_e> [Ang]:                        [  0.000000,  -0.000000,   1.027006]
    |<r_e - r_h>| [Ang]:                  2.754089
    Hole size [Ang]:                      1.142505
      Cartesian components [Ang]:       [  0.828045,   0.475329,   0.627473]
    Electron size [Ang]:                  9.572638
      Cartesian components [Ang]:       [  6.270703,   6.263475,   3.616984]
    RMS electron-hole separation [Ang]:  10.025802
      Cartesian components [Ang]:       [  6.324466,   6.281444,   4.589259]
    Covariance(r_h, r_e) [Ang^2]:         0.004514
    Correlation coefficient:              0.000413
    Center-of-mass size [Ang]:            4.820523
      Cartesian components [Ang]:       [  3.162906,   3.140763,   1.835504]

  Decomposition into state-averaged NTOs
    H- 1 -> L+ 6:  0.5091 ( 51.8%)
    H- 1 -> L+ 1:  0.3035 ( 18.4%)
    H- 1 -> L+ 9:  0.2670 ( 14.3%)
                   omega =  84.5%
  ----------------------------------------------------------------------------


  Excited state 6 (singlet, B2)                                    [converged]
  ----------------------------------------------------------------------------
  Term symbol:  6 (1) B2                                    R^2 =  2.74164e-08

  Total energy:                                           -153.9118998455 a.u.
  Excitation energy:                                               1.553103 eV

  Osc. strength:                                                      0.002916
  Trans. dip. moment [a.u.]:           [   0.000000,    0.276845,    0.000000]
  <i|r^2|0> [a.u.]:                    [  -0.000000,   -0.000000,   -0.000000]

  Dip. moment [a.u.]:                  [  -0.000000,   -0.000000,   -3.118187]
  Total dipole [Debye]:                                               7.925643
  <r^2> [a.u.]:                        [ 223.185679,   62.765334,  242.824427]
  Total <r^2> [a.u.]:                                               528.775441

  V1^2 = 0.8615, V2^2 = 0.1385

  Important amplitudes:
      occ i      occ j       vir a       vir b          v   
    ---------------------------------------------------------
     2 (B2) A              11 (A1) A                 -0.4879
     2 (B2) A              10 (A1) A                 -0.3875
    ---------------------------------------------------------

  Density matrix analysis:
  ------------------------
  NOs
    Occupation of frontier NOs:
       0.9594   0.9991
    Number of electrons: 26.000000
    Number of unpaired electrons: n_u =  2.75373, n_u,nl =  2.11822
    NO participation ratio (PR_NO):  3.886903
  
  
  Mulliken Population Analysis
  Atom      Charge (e)              h+              e-           Del q
  --------------------------------------------------------------------
   1 C       -0.686927        0.042736       -0.542261       -0.499525
   2 C       -0.686927        0.042736       -0.542261       -0.499525
   3 H        0.140807       -0.002211       -0.038180       -0.040391
   4 H        0.140807       -0.002211       -0.038180       -0.040391
   5 H        0.038354        0.036139       -0.005723        0.030416
   6 H        0.038354        0.036139       -0.005723        0.030416
   7 O       -0.147221        1.413899       -0.503656        0.910242
   8 H        0.162755        0.143372       -0.034614        0.108758
  --------------------------------------------------------------------
  Sum:       -1.000000        1.710600       -1.710600       -0.000000
  
  Multipole moment analysis of the density matrix
    Molecular charge:                      -1.000000
    Number of electrons:                   26.000000
      Center of electronic charge [Ang]: [  0.000000,   0.000000,   0.063464]
    Total nuclear charge:                  25.000000
      Center of nuclear charge [Ang]:    [  0.000000,   0.000000,  -0.000000]
    Dipole moment [D]:                     7.925640
      Cartesian components [D]:          [ -0.000000,  -0.000000,  -7.925640]
    RMS size of the density [Ang]:         2.385594
      Cartesian components [Ang]:        [  1.550414,   0.822194,   1.615943]
  
  Exciton analysis of the difference density matrix
    <r_h> [Ang]:                  [ -0.000000,   0.000000,  -1.484816]
    <r_e> [Ang]:                  [  0.000000,   0.000000,   0.142879]
    |<r_e - r_h>| [Ang]:            1.627695
    Hole size [Ang]:                1.808051
      Cartesian components [Ang]: [  0.873960,   0.897869,   1.303485]
    Electron size [Ang]:            6.717328
      Cartesian components [Ang]: [  5.292895,   2.781721,   3.061009]

  Transition density matrix analysis:
  -----------------------------------
  
  CT numbers (Mulliken)
    omega =     0.8471
    <Phe> =    -0.0003
  
  Exciton analysis of the transition density matrix
    Trans. dipole moment [D]:             0.351834
      Cartesian components [D]:         [  0.000000,   0.351834,   0.000000]
    <r_h> [Ang]:                        [ -0.000000,  -0.000000,  -1.745059]
    <r_e> [Ang]:                        [  0.000000,   0.000000,   1.118598]
    |<r_e - r_h>| [Ang]:                  2.863658
    Hole size [Ang]:                      1.099840
      Cartesian components [Ang]:       [  0.479638,   0.828020,   0.542198]
    Electron size [Ang]:                  8.510117
      Cartesian components [Ang]:       [  6.866942,   3.577758,   3.530843]
    RMS electron-hole separation [Ang]:   9.045292
      Cartesian components [Ang]:       [  6.883577,   3.671376,   4.577628]
    Covariance(r_h, r_e) [Ang^2]:         0.007485
    Correlation coefficient:              0.000800
    Center-of-mass size [Ang]:            4.290883
      Cartesian components [Ang]:       [  3.441884,   1.836636,   1.786583]

  Decomposition into state-averaged NTOs
    H- 0 -> L+ 5:  0.4160 ( 34.6%)
    H- 0 -> L+ 7: -0.2743 ( 15.0%)
    H- 0 -> L+ 2:  0.2642 ( 14.0%)
    H- 0 -> L+ 4: -0.1910 (  7.3%)
    H- 0 -> L+ 0: -0.1813 (  6.6%)
    H- 0 -> L+ 3: -0.1433 (  4.1%)
    H- 0 -> L+ 8:  0.1241 (  3.1%)
                   omega =  84.7%
  ----------------------------------------------------------------------------


  Excited state 7 (singlet, B2)                                    [converged]
  ----------------------------------------------------------------------------
  Term symbol:  7 (1) B2                                    R^2 =  2.10780e-07

  Total energy:                                           -153.8775015807 a.u.
  Excitation energy:                                               2.489127 eV

  Osc. strength:                                                      0.006355
  Trans. dip. moment [a.u.]:           [   0.000000,   -0.322815,    0.000000]
  <i|r^2|0> [a.u.]:                    [  -0.000000,   -0.000000,   -0.000000]

  Dip. moment [a.u.]:                  [   0.000000,    0.000000,   -4.961741]
  Total dipole [Debye]:                                              12.611490
  <r^2> [a.u.]:                        [ 128.694238,   47.662573,  263.985460]
  Total <r^2> [a.u.]:                                               440.342271

  V1^2 = 0.8641, V2^2 = 0.1359

  Important amplitudes:
      occ i      occ j       vir a       vir b          v   
    ---------------------------------------------------------
     2 (B2) A              12 (A1) A                  0.6168
     2 (B2) A              11 (A1) A                 -0.1323
    ---------------------------------------------------------

  Density matrix analysis:
  ------------------------
  NOs
    Occupation of frontier NOs:
       0.9603   0.9980
    Number of electrons: 26.000000
    Number of unpaired electrons: n_u =  2.75158, n_u,nl =  2.11685
    NO participation ratio (PR_NO):  3.882897
  
  
  Mulliken Population Analysis
  Atom      Charge (e)              h+              e-           Del q
  --------------------------------------------------------------------
   1 C       -0.714008        0.042900       -0.569505       -0.526605
   2 C       -0.714008        0.042900       -0.569505       -0.526605
   3 H        0.141291       -0.001644       -0.038263       -0.039906
   4 H        0.141291       -0.001644       -0.038263       -0.039906
   5 H        0.051016        0.042446        0.000632        0.043078
   6 H        0.051016        0.042446        0.000632        0.043078
   7 O       -0.091519        1.408068       -0.442123        0.965944
   8 H        0.134921        0.136087       -0.055164        0.080923
  --------------------------------------------------------------------
  Sum:       -1.000000        1.711559       -1.711559       -0.000000
  
  Multipole moment analysis of the density matrix
    Molecular charge:                      -1.000000
    Number of electrons:                   26.000000
      Center of electronic charge [Ang]: [ -0.000000,  -0.000000,   0.100986]
    Total nuclear charge:                  25.000000
      Center of nuclear charge [Ang]:    [  0.000000,   0.000000,  -0.000000]
    Dipole moment [D]:                     12.611487
      Cartesian components [D]:          [  0.000000,   0.000000, -12.611487]
    RMS size of the density [Ang]:         2.175415
      Cartesian components [Ang]:        [  1.177319,   0.716479,   1.683155]
  
  Exciton analysis of the difference density matrix
    <r_h> [Ang]:                  [ -0.000000,   0.000000,  -1.452937]
    <r_e> [Ang]:                  [ -0.000000,  -0.000000,   0.743833]
    |<r_e - r_h>| [Ang]:            2.196770
    Hole size [Ang]:                1.820026
      Cartesian components [Ang]: [  0.871448,   0.889544,   1.327322]
    Electron size [Ang]:            5.481661
      Cartesian components [Ang]: [  3.540526,   2.290905,   3.502149]

  Transition density matrix analysis:
  -----------------------------------
  
  CT numbers (Mulliken)
    omega =     0.8492
    <Phe> =    -0.0002
  
  Exciton analysis of the transition density matrix
    Trans. dipole moment [D]:             0.410257
      Cartesian components [D]:         [  0.000000,  -0.410257,   0.000000]
    <r_h> [Ang]:                        [ -0.000000,  -0.000000,  -1.741675]
    <r_e> [Ang]:                        [ -0.000000,  -0.000000,   2.123240]
    |<r_e - r_h>| [Ang]:                  3.864915
    Hole size [Ang]:                      1.103416
      Cartesian components [Ang]:       [  0.479332,   0.826926,   0.551328]
    Electron size [Ang]:                  6.665400
      Cartesian components [Ang]:       [  4.558979,   2.925288,   3.884066]
    RMS electron-hole separation [Ang]:   7.782926
      Cartesian components [Ang]:       [  4.583958,   3.039509,   5.506600]
    Covariance(r_h, r_e) [Ang^2]:         0.004364
    Correlation coefficient:              0.000593
    Center-of-mass size [Ang]:            3.378380
      Cartesian components [Ang]:       [  2.292129,   1.520166,   1.961809]

  Decomposition into state-averaged NTOs
    H- 0 -> L+ 2: -0.4738 ( 44.9%)
    H- 0 -> L+ 4: -0.3424 ( 23.4%)
    H- 0 -> L+ 7: -0.2134 (  9.1%)
    H- 0 -> L+ 3: -0.1649 (  5.4%)
    H- 0 -> L+ 0:  0.0992 (  2.0%)
                   omega =  84.9%
  ----------------------------------------------------------------------------


  Excited state 8 (singlet, B2)                                    [converged]
  ----------------------------------------------------------------------------
  Term symbol:  8 (1) B2                                    R^2 =  2.14334e-07

  Total energy:                                           -153.8735226419 a.u.
  Excitation energy:                                               2.597399 eV

  Osc. strength:                                                      0.007746
  Trans. dip. moment [a.u.]:           [  -0.000000,   -0.348880,    0.000000]
  <i|r^2|0> [a.u.]:                    [   0.000000,    0.000000,   -0.000000]

  Dip. moment [a.u.]:                  [  -0.000000,   -0.000000,   -2.283386]
  Total dipole [Debye]:                                               5.803790
  <r^2> [a.u.]:                        [ 123.226644,   47.879083,  265.324291]
  Total <r^2> [a.u.]:                                               436.430018

  V1^2 = 0.8678, V2^2 = 0.1322

  Important amplitudes:
      occ i      occ j       vir a       vir b          v   
    ---------------------------------------------------------
     2 (B2) A              13 (A1) A                 -0.5986
     2 (B2) A              12 (A1) A                 -0.1314
    ---------------------------------------------------------

  Density matrix analysis:
  ------------------------
  NOs
    Occupation of frontier NOs:
       0.9620   0.9966
    Number of electrons: 26.000000
    Number of unpaired electrons: n_u =  2.75097, n_u,nl =  2.11663
    NO participation ratio (PR_NO):  3.880399
  
  
  Mulliken Population Analysis
  Atom      Charge (e)              h+              e-           Del q
  --------------------------------------------------------------------
   1 C       -0.672549        0.037088       -0.522235       -0.485146
   2 C       -0.672549        0.037088       -0.522235       -0.485146
   3 H        0.148971        0.000049       -0.032275       -0.032226
   4 H        0.148971        0.000049       -0.032275       -0.032226
   5 H        0.031817        0.035400       -0.011521        0.023879
   6 H        0.031817        0.035400       -0.011521        0.023879
   7 O       -0.191341        1.400023       -0.533901        0.866122
   8 H        0.174862        0.140265       -0.019401        0.120864
  --------------------------------------------------------------------
  Sum:       -1.000000        1.685363       -1.685363       -0.000000
  
  Multipole moment analysis of the density matrix
    Molecular charge:                      -1.000000
    Number of electrons:                   26.000000
      Center of electronic charge [Ang]: [  0.000000,   0.000000,   0.046474]
    Total nuclear charge:                  25.000000
      Center of nuclear charge [Ang]:    [  0.000000,   0.000000,  -0.000000]
    Dipole moment [D]:                     5.803788
      Cartesian components [D]:          [ -0.000000,  -0.000000,  -5.803788]
    RMS size of the density [Ang]:         2.167564
      Cartesian components [Ang]:        [  1.152038,   0.718104,   1.689814]
  
  Exciton analysis of the difference density matrix
    <r_h> [Ang]:                  [ -0.000000,   0.000000,  -1.490648]
    <r_e> [Ang]:                  [  0.000000,   0.000000,  -0.100694]
    |<r_e - r_h>| [Ang]:            1.389954
    Hole size [Ang]:                1.793007
      Cartesian components [Ang]: [  0.863865,   0.892739,   1.292914]
    Electron size [Ang]:            5.508762
      Cartesian components [Ang]: [  3.434638,   2.314992,   3.631878]

  Transition density matrix analysis:
  -----------------------------------
  
  CT numbers (Mulliken)
    omega =     0.8528
    <Phe> =    -0.0009
  
  Exciton analysis of the transition density matrix
    Trans. dipole moment [D]:             0.443383
      Cartesian components [D]:         [ -0.000000,  -0.443383,   0.000000]
    <r_h> [Ang]:                        [ -0.000000,  -0.000000,  -1.744037]
    <r_e> [Ang]:                        [  0.000000,   0.000000,   0.673108]
    |<r_e - r_h>| [Ang]:                  2.417145
    Hole size [Ang]:                      1.099245
      Cartesian components [Ang]:       [  0.479443,   0.826203,   0.543933]
    Electron size [Ang]:                  6.872645
      Cartesian components [Ang]:       [  4.382024,   2.931410,   4.408848]
    RMS electron-hole separation [Ang]:   7.366804
      Cartesian components [Ang]:       [  4.407920,   3.045078,   5.056436]
    Covariance(r_h, r_e) [Ang^2]:         0.007187
    Correlation coefficient:              0.000951
    Center-of-mass size [Ang]:            3.480516
      Cartesian components [Ang]:       [  2.204214,   1.523077,   2.221636]

  Decomposition into state-averaged NTOs
    H- 0 -> L+ 2:  0.3529 ( 24.9%)
    H- 0 -> L+ 0:  0.3488 ( 24.3%)
    H- 0 -> L+ 4: -0.3039 ( 18.5%)
    H- 0 -> L+ 5: -0.2336 ( 10.9%)
    H- 0 -> L+ 3: -0.1473 (  4.3%)
    H- 0 -> L+ 8: -0.1047 (  2.2%)
                   omega =  85.3%
  ----------------------------------------------------------------------------


  Excited state 9 (singlet, B2)                                    [converged]
  ----------------------------------------------------------------------------
  Term symbol:  9 (1) B2                                    R^2 =  8.27742e-06

  Total energy:                                           -153.8653009430 a.u.
  Excitation energy:                                               2.821123 eV

  Osc. strength:                                                      0.002382
  Trans. dip. moment [a.u.]:           [  -0.000000,    0.185653,    0.000000]
  <i|r^2|0> [a.u.]:                    [   0.000000,   -0.000000,    0.000000]

  Dip. moment [a.u.]:                  [  -0.000000,    0.000000,   -2.873108]
  Total dipole [Debye]:                                               7.302712
  <r^2> [a.u.]:                        [ 124.047901,   88.764016,  221.286128]
  Total <r^2> [a.u.]:                                               434.098046

  V1^2 = 0.8662, V2^2 = 0.1338

  Important amplitudes:
      occ i      occ j       vir a       vir b          v   
    ---------------------------------------------------------
     4 (B1) A               3 (A2) A                 -0.6217
     4 (B1) A               4 (A2) A                 -0.1753
    ---------------------------------------------------------

  Density matrix analysis:
  ------------------------
  NOs
    Occupation of frontier NOs:
       0.9621   0.9968
    Number of electrons: 26.000000
    Number of unpaired electrons: n_u =  2.75028, n_u,nl =  2.11543
    NO participation ratio (PR_NO):  3.877854
  
  
  Mulliken Population Analysis
  Atom      Charge (e)              h+              e-           Del q
  --------------------------------------------------------------------
   1 C       -0.669789        0.047281       -0.529668       -0.482387
   2 C       -0.669789        0.047281       -0.529668       -0.482387
   3 H        0.132813       -0.004708       -0.043677       -0.048385
   4 H        0.132813       -0.004708       -0.043677       -0.048385
   5 H        0.038366        0.032134       -0.001705        0.030429
   6 H        0.038366        0.032134       -0.001705        0.030429
   7 O       -0.167974        1.400533       -0.511043        0.889489
   8 H        0.165195        0.135673       -0.024475        0.111198
  --------------------------------------------------------------------
  Sum:       -1.000000        1.685617       -1.685617        0.000000
  
  Multipole moment analysis of the density matrix
    Molecular charge:                      -1.000000
    Number of electrons:                   26.000000
      Center of electronic charge [Ang]: [  0.000000,  -0.000000,   0.058476]
    Total nuclear charge:                  25.000000
      Center of nuclear charge [Ang]:    [  0.000000,   0.000000,  -0.000000]
    Dipole moment [D]:                     7.302710
      Cartesian components [D]:          [ -0.000000,   0.000000,  -7.302710]
    RMS size of the density [Ang]:         2.161471
      Cartesian components [Ang]:        [  1.155870,   0.977761,   1.542694]
  
  Exciton analysis of the difference density matrix
    <r_h> [Ang]:                  [ -0.000000,   0.000000,  -1.483690]
    <r_e> [Ang]:                  [  0.000000,  -0.000000,   0.091189]
    |<r_e - r_h>| [Ang]:            1.574879
    Hole size [Ang]:                1.773340
      Cartesian components [Ang]: [  0.933603,   0.790578,   1.283786]
    Electron size [Ang]:            5.465006
      Cartesian components [Ang]: [  3.472298,   3.461021,   2.414697]

  Transition density matrix analysis:
  -----------------------------------
  
  CT numbers (Mulliken)
    omega =     0.8504
    <Phe> =     0.0000
  
  Exciton analysis of the transition density matrix
    Trans. dipole moment [D]:             0.235941
      Cartesian components [D]:         [ -0.000000,   0.235941,   0.000000]
    <r_h> [Ang]:                        [ -0.000000,   0.000000,  -1.722063]
    <r_e> [Ang]:                        [  0.000000,  -0.000000,   1.026176]
    |<r_e - r_h>| [Ang]:                  2.748239
    Hole size [Ang]:                      1.146918
      Cartesian components [Ang]:       [  0.826407,   0.474763,   0.638022]
    Electron size [Ang]:                  6.783450
      Cartesian components [Ang]:       [  4.444957,   4.435407,   2.566070]
    RMS electron-hole separation [Ang]:   7.407442
      Cartesian components [Ang]:       [  4.519791,   4.460633,   3.813718]
    Covariance(r_h, r_e) [Ang^2]:         0.006614
    Correlation coefficient:              0.000850
    Center-of-mass size [Ang]:            3.440343
      Cartesian components [Ang]:       [  2.261232,   2.230427,   1.322114]

  Decomposition into state-averaged NTOs
    H- 1 -> L+ 1:  0.5745 ( 66.0%)
    H- 1 -> L+ 6: -0.2961 ( 17.5%)
    H- 1 -> L+ 9: -0.0824 (  1.4%)
                   omega =  85.0%
  ----------------------------------------------------------------------------


  Excited state 10 (singlet, B2)                                    [converged]
  ----------------------------------------------------------------------------
  Term symbol:  10 (1) B2                                   R^2 =  7.36087e-06

  Total energy:                                           -153.8260818885 a.u.
  Excitation energy:                                               3.888328 eV

  Osc. strength:                                                      0.014546
  Trans. dip. moment [a.u.]:           [   0.000000,   -0.390761,   -0.000000]
  <i|r^2|0> [a.u.]:                    [  -0.000000,   -0.000000,   -0.000000]

  Dip. moment [a.u.]:                  [   0.000000,    0.000000,   -2.553371]
  Total dipole [Debye]:                                               6.490023
  <r^2> [a.u.]:                        [ 111.429212,   37.191188,  223.562145]
  Total <r^2> [a.u.]:                                               372.182545

  V1^2 = 0.8726, V2^2 = 0.1274

  Important amplitudes:
      occ i      occ j       vir a       vir b          v   
    ---------------------------------------------------------
     2 (B2) A              14 (A1) A                  0.5727
     2 (B2) A              16 (A1) A                 -0.2441
    ---------------------------------------------------------

  Density matrix analysis:
  ------------------------
  NOs
    Occupation of frontier NOs:
       0.9647   0.9906
    Number of electrons: 26.000000
    Number of unpaired electrons: n_u =  2.75051, n_u,nl =  2.11574
    NO participation ratio (PR_NO):  3.893209
  
  
  Mulliken Population Analysis
  Atom      Charge (e)              h+              e-           Del q
  --------------------------------------------------------------------
   1 C       -0.727608        0.043035       -0.583241       -0.540205
   2 C       -0.727608        0.043035       -0.583241       -0.540205
   3 H        0.158390       -0.000069       -0.022739       -0.022808
   4 H        0.158390       -0.000069       -0.022739       -0.022808
   5 H        0.111691        0.030348        0.073406        0.103754
   6 H        0.111691        0.030348        0.073406        0.103754
   7 O       -0.362525        1.359778       -0.664839        0.694939
   8 H        0.277578        0.139252        0.084328        0.223580
  --------------------------------------------------------------------
  Sum:       -1.000000        1.645658       -1.645658       -0.000000
  
  Multipole moment analysis of the density matrix
    Molecular charge:                      -1.000000
    Number of electrons:                   26.000000
      Center of electronic charge [Ang]: [ -0.000000,  -0.000000,   0.051969]
    Total nuclear charge:                  25.000000
      Center of nuclear charge [Ang]:    [  0.000000,   0.000000,  -0.000000]
    Dipole moment [D]:                     6.490021
      Cartesian components [D]:          [  0.000000,   0.000000,  -6.490021]
    RMS size of the density [Ang]:         2.001456
      Cartesian components [Ang]:        [  1.095504,   0.632899,   1.550850]
  
  Exciton analysis of the difference density matrix
    <r_h> [Ang]:                  [ -0.000000,   0.000000,  -1.485635]
    <r_e> [Ang]:                  [ -0.000000,  -0.000000,   0.024670]
    |<r_e - r_h>| [Ang]:            1.510305
    Hole size [Ang]:                1.755760
      Cartesian components [Ang]: [  0.850928,   0.873537,   1.263150]
    Electron size [Ang]:            4.458436
      Cartesian components [Ang]: [  3.167601,   1.901754,   2.495453]

  Transition density matrix analysis:
  -----------------------------------
  
  CT numbers (Mulliken)
    omega =     0.8561
    <Phe> =    -0.0038
  
  Exciton analysis of the transition density matrix
    Trans. dipole moment [D]:             0.496607
      Cartesian components [D]:         [  0.000000,  -0.496607,  -0.000000]
    <r_h> [Ang]:                        [ -0.000000,  -0.000000,  -1.730222]
    <r_e> [Ang]:                        [ -0.000000,  -0.000000,   0.822932]
    |<r_e - r_h>| [Ang]:                  2.553154
    Hole size [Ang]:                      1.115484
      Cartesian components [Ang]:       [  0.479523,   0.823405,   0.579972]
    Electron size [Ang]:                  5.375376
      Cartesian components [Ang]:       [  3.973987,   2.361601,   2.743161]
    RMS electron-hole separation [Ang]:   6.049047
      Cartesian components [Ang]:       [  4.002556,   2.498296,   3.785370]
    Covariance(r_h, r_e) [Ang^2]:         0.033301
    Correlation coefficient:              0.005554
    Center-of-mass size [Ang]:            2.747980
      Cartesian components [Ang]:       [  2.001536,   1.251881,   1.406429]

  Decomposition into state-averaged NTOs
    H- 0 -> L+ 3:  0.4120 ( 34.0%)
    H- 0 -> L+ 0:  0.4025 ( 32.4%)
    H- 0 -> L+ 5:  0.3029 ( 18.3%)
                   omega =  85.6%
  ----------------------------------------------------------------------------


--------------------------------------------------------------------------------
  Time of ADC calculation:  CPU 267.54 s  wall 66.12 s
================================================================================
 
 --------------------------------------------------------------
             Orbital Energies (a.u.) and Symmetries
 --------------------------------------------------------------
 
 Alpha MOs, Restricted
 -- Occupied --                  
-20.213 -11.049 -11.047  -0.930  -0.854  -0.598  -0.473  -0.384
  1 A1    2 A1    1 B1    3 A1    4 A1    2 B1    5 A1    6 A1                 
 -0.328  -0.271  -0.194  -0.130  -0.129
  3 B1    7 A1    1 B2    4 B1    2 B2                                         
 -- Virtual --                   
  0.051   0.054   0.055   0.055   0.057   0.069   0.089   0.098
  5 B1    1 A2    3 B2    8 A1    6 B1    9 A1    7 B1    2 A2                 
  0.099   0.100   0.104   0.112   0.151   0.160   0.169   0.172
  4 B2   10 A1    8 B1   11 A1    9 B1   12 A1   13 A1    3 A2                 
  0.173   0.184   0.242   0.257   0.279   0.301   0.312   0.330
  5 B2   10 B1   14 A1   11 B1    4 A2   15 A1   12 B1    6 B2                 
  0.337   0.364   0.414   0.451   0.452   0.478   0.487   0.530
 16 A1   17 A1    5 A2    7 B2   13 B1   14 B1   18 A1   19 A1                 
  0.544   0.580   0.640   0.663   0.687   0.857   0.967   1.029
 15 B1   20 A1   16 B1   21 A1   17 B1   22 A1   23 A1    8 B2                 
  1.060   1.083   1.084   1.132   1.187   1.203   1.214   1.216
 24 A1   25 A1    6 A2   18 B1   19 B1    9 B2   20 B1   26 A1                 
  1.291   1.306   1.333   1.333   1.370   1.468   1.483   1.498
  7 A2   27 A1   28 A1   21 B1   10 B2   11 B2    8 A2   22 B1                 
  1.562   1.643   1.692   1.719   1.853   1.927   1.969   2.035
 23 B1   29 A1   24 B1   12 B2   30 A1   25 B1   31 A1    9 A2                 
  2.124   2.131   2.140   2.197   2.212   2.290   2.357   2.393
 13 B2   32 A1   26 B1   33 A1   14 B2   34 A1   10 A2   15 B2                 
  2.438   2.476   2.553   2.604   2.735   2.752   2.847   3.008
 27 B1   28 B1   35 A1   11 A2   29 B1   36 A1   30 B1   37 A1                 
  3.038   3.088   3.465   3.562   3.921   3.945   3.970   4.087
 38 A1   39 A1   31 B1   32 B1   16 B2   12 A2   40 A1   33 B1                 
  4.537
 41 A1                                                                         
 
 Beta MOs, Restricted
 -- Occupied --                  
-20.213 -11.049 -11.047  -0.930  -0.854  -0.598  -0.473  -0.384
  1 A1    2 A1    1 B1    3 A1    4 A1    2 B1    5 A1    6 A1                 
 -0.328  -0.271  -0.194  -0.130  -0.129
  3 B1    7 A1    1 B2    4 B1    2 B2                                         
 -- Virtual --                   
  0.051   0.054   0.055   0.055   0.057   0.069   0.089   0.098
  5 B1    1 A2    3 B2    8 A1    6 B1    9 A1    7 B1    2 A2                 
  0.099   0.100   0.104   0.112   0.151   0.160   0.169   0.172
  4 B2   10 A1    8 B1   11 A1    9 B1   12 A1   13 A1    3 A2                 
  0.173   0.184   0.242   0.257   0.279   0.301   0.312   0.330
  5 B2   10 B1   14 A1   11 B1    4 A2   15 A1   12 B1    6 B2                 
  0.337   0.364   0.414   0.451   0.452   0.478   0.487   0.530
 16 A1   17 A1    5 A2    7 B2   13 B1   14 B1   18 A1   19 A1                 
  0.544   0.580   0.640   0.663   0.687   0.857   0.967   1.029
 15 B1   20 A1   16 B1   21 A1   17 B1   22 A1   23 A1    8 B2                 
  1.060   1.083   1.084   1.132   1.187   1.203   1.214   1.216
 24 A1   25 A1    6 A2   18 B1   19 B1    9 B2   20 B1   26 A1                 
  1.291   1.306   1.333   1.333   1.370   1.468   1.483   1.498
  7 A2   27 A1   28 A1   21 B1   10 B2   11 B2    8 A2   22 B1                 
  1.562   1.643   1.692   1.719   1.853   1.927   1.969   2.035
 23 B1   29 A1   24 B1   12 B2   30 A1   25 B1   31 A1    9 A2                 
  2.124   2.131   2.140   2.197   2.212   2.290   2.357   2.393
 13 B2   32 A1   26 B1   33 A1   14 B2   34 A1   10 A2   15 B2                 
  2.438   2.476   2.553   2.604   2.735   2.752   2.847   3.008
 27 B1   28 B1   35 A1   11 A2   29 B1   36 A1   30 B1   37 A1                 
  3.038   3.088   3.465   3.562   3.921   3.945   3.970   4.087
 38 A1   39 A1   31 B1   32 B1   16 B2   12 A2   40 A1   33 B1                 
  4.537
 41 A1                                                                         
 --------------------------------------------------------------
 
          Ground-State Mulliken Net Atomic Charges

     Atom                 Charge (a.u.)
  ----------------------------------------
      1 C                    -0.181944
      2 C                    -0.181944
      3 H                     0.174278
      4 H                     0.174278
      5 H                     0.002383
      6 H                     0.002383
      7 O                    -1.060804
      8 H                     0.071369
  ----------------------------------------
  Sum of atomic charges =    -1.000000

 -----------------------------------------------------------------
                    Cartesian Multipole Moments
 -----------------------------------------------------------------
    Charge (ESU x 10^10)
                -4.8032
    Dipole Moment (Debye)
         X       0.0000      Y       0.0000      Z       5.2757
       Tot       5.2757
    Quadrupole Moments (Debye-Ang)
        XX     -23.6797     XY       0.0000     YY     -26.5072
        XZ       0.0000     YZ      -0.0000     ZZ     -32.8587
    Octopole Moments (Debye-Ang^2)
       XXX       0.0000    XXY       0.0000    XYY      -0.0000
       YYY       0.0000    XXZ       1.0235    XYZ       0.0000
       YYZ      -0.0584    XZZ       0.0000    YZZ       0.0000
       ZZZ       6.1634
    Hexadecapole Moments (Debye-Ang^3)
      XXXX     -88.9828   XXXY       0.0000   XXYY     -22.0884
      XYYY       0.0000   YYYY     -40.9016   XXXZ       0.0000
      XXYZ       0.0000   XYYZ       0.0000   YYYZ       0.0000
      XXZZ     -71.0085   XYZZ       0.0000   YYZZ     -65.7095
      XZZZ       0.0000   YZZZ       0.0000   ZZZZ    -293.3985
 -----------------------------------------------------------------
 Total job time:  175.95s(wall), 319.46s(cpu) 
 Fri Mar  4 16:25:42 2022

        *************************************************************
        *                                                           *
        *  Thank you very much for using Q-Chem.  Have a nice day.  *
        *                                                           *
        *************************************************************


