/src/tsommerfeld/qchem/exe/qcprog.exe .input0.636364.10604.qcin.1 /src/jdavis/qchem.scratch/qchem10604/

                  Welcome to Q-Chem
     A Quantum Leap Into The Future Of Chemistry


 Q-Chem 5.4 (devel), Q-Chem, Inc., Pleasanton, CA (2021)

 E. Epifanovsky,  A. T. B. Gilbert,  Xintian Feng,  Joonho Lee,  Yuezhi Mao,  
 N. Mardirossian,  P. Pokhilko,  A. White,  M. Wormit,  M. P. Coons,  
 A. L. Dempwolff,  Zhengting Gan,  D. Hait,  P. R. Horn,  L. D. Jacobson,  
 I. Kaliman,  J. Kussmann,  A. W. Lange,  Ka Un Lao,  D. S. Levine,  Jie Liu,  
 S. C. McKenzie,  A. F. Morrison,  K. Nanda,  F. Plasser,  D. R. Rehn,  
 M. L. Vidal,  Zhi-Qiang You,  Ying Zhu,  B. Alam,  B. Albrecht,  
 A. Aldossary,  E. Alguire,  J. H. Andersen,  D. Barton,  K. Begam,  A. Behn,  
 Y. A. Bernard,  E. J. Berquist,  H. Burton,  A. Carreras,  K. Carter-Fenk,  
 R. Chakraborty,  A. D. Chien,  K. D. Closser,  V. Cofer-Shabica,  
 S. Dasgupta,  Jia Deng,  M. de Wergifosse,  M. Diedenhofen,  Hainam Do,  
 S. Ehlert,  Po-Tung Fang,  S. Fatehi,  Qingguo Feng,  T. Friedhoff,  
 J. Gayvert,  Qinghui Ge,  G. Gidofalvi,  M. Goldey,  J. Gomes,  
 C. Gonzalez-Espinoza,  S. Gulania,  A. Gunina,  M. W. D. Hanson-Heine,  
 P. H. P. Harbach,  A. W. Hauser,  M. F. Herbst,  M. Hernandez Vera,  
 M. Hodecker,  Z. C. Holden,  S. Houck,  Xunkun Huang,  Kerwin Hui,  
 B. C. Huynh,  M. Ivanov,  Hyunjun Ji,  Hanjie Jiang,  B. Kaduk,  S. Kaehler,  
 K. Khistyaev,  Jaehoon Kim,  P. Klunzinger,  Z. Koczor-Benda,  
 Joong Hoon Koh,  D. Kosenkov,  L. Koulias,  T. Kowalczyk,  C. M. Krauter,  
 K. Kue,  A. Kunitsa,  T. Kus,  A. Landau,  K. V. Lawler,  D. Lefrancois,  
 S. Lehtola,  Rain Li,  Yi-Pei Li,  Jiashu Liang,  M. Liebenthal,  
 Hung-Hsuan Lin,  You-Sheng Lin,  Fenglai Liu,  Kuan-Yu Liu,  
 M. Loipersberger,  A. Luenser,  A. Manjanath,  P. Manohar,  E. Mansoor,  
 S. F. Manzer,  Shan-Ping Mao,  A. V. Marenich,  T. Markovich,  S. Mason,  
 S. A. Maurer,  P. F. McLaughlin,  M. F. S. J. Menger,  J.-M. Mewes,  
 S. A. Mewes,  P. Morgante,  J. W. Mullinax,  K. J. Oosterbaan,  G. Paran,  
 Alexander C. Paul,  Suranjan K. Paul,  F. Pavosevic,  Zheng Pei,  S. Prager,  
 E. I. Proynov,  E. Ramos,  B. Rana,  A. E. Rask,  A. Rettig,  R. M. Richard,  
 F. Rob,  E. Rossomme,  T. Scheele,  M. Scheurer,  M. Schneider,  
 N. Sergueev,  S. M. Sharada,  W. Skomorowski,  D. W. Small,  C. J. Stein,  
 Yu-Chuan Su,  E. J. Sundstrom,  Zhen Tao,  J. Thirman,  T. Tsuchimochi,  
 N. M. Tubman,  S. P. Veccham,  O. Vydrov,  J. Wenzel,  J. Witte,  A. Yamada,  
 Kun Yao,  S. Yeganeh,  S. R. Yost,  A. Zech,  Igor Ying Zhang,  Xing Zhang,  
 Yu Zhang,  D. Zuev,  A. Aspuru-Guzik,  A. T. Bell,  N. A. Besley,  
 K. B. Bravaya,  B. R. Brooks,  D. Casanova,  Jeng-Da Chai,  S. Coriani,  
 C. J. Cramer,  A. E. DePrince, III,  R. A. DiStasio Jr.,  A. Dreuw,  
 B. D. Dunietz,  T. R. Furlani,  W. A. Goddard III,  S. Grimme,  
 S. Hammes-Schiffer,  T. Head-Gordon,  W. J. Hehre,  Chao-Ping Hsu,  
 T.-C. Jagau,  Yousung Jung,  A. Klamt,  Jing Kong,  D. S. Lambrecht,  
 WanZhen Liang,  N. J. Mayhall,  C. W. McCurdy,  J. B. Neaton,  
 C. Ochsenfeld,  J. A. Parkhill,  R. Peverati,  V. A. Rassolov,  Yihan Shao,  
 L. V. Slipchenko,  T. Stauch,  R. P. Steele,  J. E. Subotnik,  
 A. J. W. Thom,  A. Tkatchenko,  D. G. Truhlar,  T. Van Voorhis,  
 T. A. Wesolowski,  K. B. Whaley,  H. L. Woodcock III,  P. M. Zimmerman,  
 S. Faraji,  P. M. W. Gill,  M. Head-Gordon,  J. M. Herbert,  A. I. Krylov

 Additional authors for Version 5.4.1: 
 S. Kotaru,  Shaozhi Li,  Xiangyuan Li,  F. Matz,  A. Molle,  Haisheng Ren,  
 Yingli Su,  Hung-Yi Tsai,  C. Utku,  Fang Wang

 Contributors to earlier versions of Q-Chem not listed above: 
 R. D. Adamson,  B. Austin,  R. Baer,  J. Baker,  G. J. O. Beran,  
 K. Brandhorst,  S. T. Brown,  E. F. C. Byrd,  A. K. Chakraborty,  
 G. K. L. Chan,  Chun-Min Chang,  Yunqing Chen,  C.-L. Cheng,  
 Siu Hung Chien,  D. M. Chipman,  D. L. Crittenden,  H. Dachsel,  
 R. J. Doerksen,  A. D. Dutoi,  R. G. Edgar,  J. Fosso-Tande,  
 L. Fusti-Molnar,  D. Ghosh,  A. Ghysels,  A. Golubeva-Zadorozhnaya,  
 J. Gonthier,  M. S. Gordon,  S. R. Gwaltney,  G. Hawkins,  J. E. Herr,  
 A. Heyden,  S. Hirata,  E. G. Hohenstein,  G. Kedziora,  F. J. Keil,  
 C. Kelley,  Jihan Kim,  R. A. King,  R. Z. Khaliullin,  P. P. Korambath,  
 W. Kurlancheek,  A. Laurent,  A. M. Lee,  M. S. Lee,  S. V. Levchenko,  
 Ching Yeh Lin,  D. Liotard,  E. Livshits,  R. C. Lochan,  I. Lotan,  
 L. A. Martinez-Martinez,  P. E. Maslen,  N. Nair,  D. P. O'Neill,  
 D. Neuhauser,  E. Neuscamman,  C. M. Oana,  R. Olivares-Amaya,  R. Olson,  
 T. M. Perrine,  B. Peters,  P. A. Pieniazek,  A. Prociuk,  Y. M. Rhee,  
 J. Ritchie,  M. A. Rohrdanz,  E. Rosta,  N. J. Russ,  H. F. Schaefer III,  
 M. W. Schmidt,  N. E. Schultz,  S. Sharma,  N. Shenvi,  C. D. Sherrill,  
 A. C. Simmonett,  A. Sodt,  T. Stein,  D. Stuck,  K. S. Thanthiriwatte,  
 V. Vanovschi,  L. Vogt,  Tao Wang,  A. Warshel,  M. A. Watson,  
 C. F. Williams,  Q. Wu,  X. Xu,  Jun Yang,  W. Zhang,  Yan Zhao

 Please cite Q-Chem as follows:
 Y. Shao et al., Mol. Phys. 113, 184-215 (2015)
 DOI: 10.1080/00268976.2014.952696

 Q-Chem 5.4.1 for Intel X86 EM64T Linux

 Parts of Q-Chem use Armadillo 9.900.5 (Nocturnal Misbehaviour).
 http://arma.sourceforge.net/

 Q-Chem begins on Fri Mar  4 16:13:57 2022  

 Host: node01
0

     Scratch files written to /src/jdavis/qchem.scratch/qchem10604//
 Processing $rem in /src/tsommerfeld/qchem/config/preferences:
 Processing $rem in /home/jdavis/.qchemrc:

 Checking the input file for inconsistencies... 	...done.

--------------------------------------------------------------
User input:
--------------------------------------------------------------
$molecule
-1 1
C        -0.6645000000    0.0000000000    1.1619088658
C         0.6645000000    0.0000000000    1.1619088658
H        -1.1590800000    0.0000000000    0.1995598658
H         1.1590800000    0.0000000000    0.1995598658
H        -1.1590800000    0.0000000000    2.1242568658
H         1.1590800000    0.0000000000    2.1242568658
O         0.0000000000    0.0000000000   -1.5841414040
H         0.0000000000    0.0000000000   -2.5471307683
$end
$rem
   METHOD adc(2)
   BASIS gen
   PURECART 11
   EE_STATES [0,0,0,10]
   scf_convergence 8
   ADC_DAVIDSON_MAXITER 120
   ADC_DAVIDSON_MAXSUBSPACE 200
   adc_nguess_singles 100
   THRESH 14
   S2THRESH 14
   adc_davidson_conv 5
   adc_davidson_thresh 14
   THREADS 10
   MEM_TOTAL 95000
   STATE_ANALYSIS TRUE
$end
$basis
C 1
S   9   1.00
      6.665000D+03           6.920000D-04
      1.000000D+03           5.329000D-03
      2.280000D+02           2.707700D-02
      6.471000D+01           1.017180D-01
      2.106000D+01           2.747400D-01
      7.495000D+00           4.485640D-01
      2.797000D+00           2.850740D-01
      5.215000D-01           1.520400D-02
      1.596000D-01          -3.191000D-03
S   9   1.00
      6.665000D+03          -1.460000D-04
      1.000000D+03          -1.154000D-03
      2.280000D+02          -5.725000D-03
      6.471000D+01          -2.331200D-02
      2.106000D+01          -6.395500D-02
      7.495000D+00          -1.499810D-01
      2.797000D+00          -1.272620D-01
      5.215000D-01           5.445290D-01
      1.596000D-01           5.804960D-01
S   1   1.00
      1.596000D-01           1.000000D+00
S   1   1.00
      0.0469000              1.0000000
P   4   1.00
      9.439000D+00           3.810900D-02
      2.002000D+00           2.094800D-01
      5.456000D-01           5.085570D-01
      1.517000D-01           4.688420D-01
P   1   1.00
      1.517000D-01           1.000000D+00
P   1   1.00
      0.0275818      1.0000000
P   1   1.00
      0.0137909      1.0000000
P   1   1.00
      0.0068955      1.0000000
P   1   1.00
      0.0034477      1.0000000
D   1   1.00
      5.500000D-01           1.0000000
****
C 2
S   9   1.00
      6.665000D+03           6.920000D-04
      1.000000D+03           5.329000D-03
      2.280000D+02           2.707700D-02
      6.471000D+01           1.017180D-01
      2.106000D+01           2.747400D-01
      7.495000D+00           4.485640D-01
      2.797000D+00           2.850740D-01
      5.215000D-01           1.520400D-02
      1.596000D-01          -3.191000D-03
S   9   1.00
      6.665000D+03          -1.460000D-04
      1.000000D+03          -1.154000D-03
      2.280000D+02          -5.725000D-03
      6.471000D+01          -2.331200D-02
      2.106000D+01          -6.395500D-02
      7.495000D+00          -1.499810D-01
      2.797000D+00          -1.272620D-01
      5.215000D-01           5.445290D-01
      1.596000D-01           5.804960D-01
S   1   1.00
      1.596000D-01           1.000000D+00
S   1   1.00
      0.0469000              1.0000000
P   4   1.00
      9.439000D+00           3.810900D-02
      2.002000D+00           2.094800D-01
      5.456000D-01           5.085570D-01
      1.517000D-01           4.688420D-01
P   1   1.00
      1.517000D-01           1.000000D+00
P   1   1.00
      0.0275818      1.0000000
P   1   1.00
      0.0137909      1.0000000
P   1   1.00
      0.0068955      1.0000000
P   1   1.00
      0.0034477      1.0000000
D   1   1.00
      5.500000D-01           1.0000000
****
H 3
cc-pVDZ
****
H 4
cc-pVDZ
****
H 5
cc-pVDZ
****
H 6
cc-pVDZ
****
O 7
aug-cc-pVDZ
****
H 8
cc-pVDZ
****
$end
--------------------------------------------------------------
 ----------------------------------------------------------------
             Standard Nuclear Orientation (Angstroms)
    I     Atom           X                Y                Z
 ----------------------------------------------------------------
    1      C      -0.6645000000    -0.0000000000     1.0270977517
    2      C       0.6645000000     0.0000000000     1.0270977517
    3      H      -1.1590800000    -0.0000000000     0.0647487517
    4      H       1.1590800000     0.0000000000     0.0647487517
    5      H      -1.1590800000    -0.0000000000     1.9894457517
    6      H       1.1590800000     0.0000000000     1.9894457517
    7      O       0.0000000000    -0.0000000000    -1.7189525181
    8      H       0.0000000000    -0.0000000000    -2.6819418824
 ----------------------------------------------------------------
 Molecular Point Group                 C2v   NOp =  4
 Largest Abelian Subgroup              C2v   NOp =  4
 Nuclear Repulsion Energy =          64.38561153 hartrees
 There are       13 alpha and       13 beta electrons
 Requested basis set is non-standard
 There are 46 shells and 102 basis functions
 Total memory of 95000 MB is distributed as follows: 
   MEM_STATIC is set to 192 MB
   QALLOC/CCMAN JOB total memory use is  94808 MB
 Warning: actual memory use might exceed 95000 MB

 Total QAlloc Memory Limit  95000 MB
 Mega-Array Size       188 MB
 MEM_STATIC part       192 MB

                       Distance Matrix (Angstroms)
             C (  1)   C (  2)   H (  3)   H (  4)   H (  5)   H (  6)
   C (  2)  1.329000
   H (  3)  1.082000  2.061931
   H (  4)  2.061931  1.082000  2.318160
   H (  5)  1.082000  2.061931  1.924697  3.013026
   H (  6)  2.061931  1.082000  3.013026  1.924697  2.318160
   O (  7)  2.825306  2.825306  2.127218  2.127218  3.885316  3.885316
   H (  8)  3.768094  3.768094  2.981237  2.981237  4.813037  4.813037
             O (  7)
   H (  8)  0.962989
 
 A cutoff of  1.0D-14 yielded   1081 shell pairs
 There are      5353 function pairs (      5791 Cartesian)
 Smallest overlap matrix eigenvalue = 4.72E-04

 Scale SEOQF with 1.000000e-02/1.000000e-02/1.000000e-02

 Standard Electronic Orientation quadrupole field applied
 Nucleus-field energy     =    -0.0000000005 hartrees
 ================ Generating on-the-fly SAD Guess ================
Attempting to make child job directory: /src/jdavis/qchem.scratch/qchem10604//Frg1/
Attempting to make child job directory: /src/jdavis/qchem.scratch/qchem10604//Frg2/
Attempting to make child job directory: /src/jdavis/qchem.scratch/qchem10604//Frg3/
Creating input file /src/jdavis/qchem.scratch/qchem10604/Frg1.input
using default PutDataFrgm: nothing
calling putenv with: QCSCRATCH=/src/jdavis/qchem.scratch/qchem10604/ 
Spawning Job For Fragment 0
Done Job For Fragment 0
calling putenv with: QCSCRATCH=/src/jdavis/qchem.scratch 
calling putenv with: QCTHREADS=1 
Creating input file /src/jdavis/qchem.scratch/qchem10604/Frg2.input
using default PutDataFrgm: nothing
calling putenv with: QCSCRATCH=/src/jdavis/qchem.scratch/qchem10604/ 
Spawning Job For Fragment 1
Done Job For Fragment 1
calling putenv with: QCSCRATCH=/src/jdavis/qchem.scratch 
calling putenv with: QCTHREADS=1 
Creating input file /src/jdavis/qchem.scratch/qchem10604/Frg3.input
using default PutDataFrgm: nothing
calling putenv with: QCSCRATCH=/src/jdavis/qchem.scratch/qchem10604/ 
Spawning Job For Fragment 2
Done Job For Fragment 2
calling putenv with: QCSCRATCH=/src/jdavis/qchem.scratch 
calling putenv with: QCTHREADS=1 
 Time for running child jobs:  CPU 1.76 s  wall 80.91 s
 ============= Method Specific SAD Guess Constructed =============
 Guess from on-the-fly superposition of atomic densities
 Warning: Energy on first SCF cycle will be non-variational
 A restricted Hartree-Fock SCF calculation will be
 performed using Pulay DIIS extrapolation
 SCF converges when DIIS error is below 1.0E-08
 using 10 threads for integral computing
 -------------------------------------------------------
 OpenMP Integral computing Module                
 Release: version 1.0, May 2013, Q-Chem Inc. Pittsburgh 
 -------------------------------------------------------
 ---------------------------------------
  Cycle       Energy         DIIS Error
 ---------------------------------------
    1    -153.5742032712      5.28E-02
    2    -153.2896658971      1.08E-02
    3    -149.1271149575      2.94E-02
    4    -153.3551618614      8.13E-03
    5    -153.3930341349      5.93E-03
    6    -153.4313582883      2.61E-03
    7    -153.4408281848      3.73E-04
    8    -153.4410576331      7.44E-05
    9    -153.4410685265      2.34E-05
   10    -153.4410695180      4.69E-06
   11    -153.4410695707      1.67E-06
   12    -153.4410695757      2.67E-07
   13    -153.4410695759      4.41E-08
   14    -153.4410695759      9.81E-09 Convergence criterion met
 ---------------------------------------
 SCF time:  CPU 17.75 s  wall 1.78 s
 SCF   energy in the final basis set = -153.44106958
 Total energy in the final basis set = -153.44106958
================================================================================
|                                                                              |
|                                 A D C  M A N                                 |
|                                                                              |
 ------------------------------------------------------------------------------ 
|                                                                              |
| Components:                                                                  |
|                                                                              |
| - libvmm - 1.3-trunk                                                         |
|   Authors:                                                                   |
|   Evgeny Epifanovsky, Ilya Kaliman                                           |
|                                                                              |
| - libtensor - 2.5-trunk                                                      |
|   Authors:                                                                   |
|   Evgeny Epifanovsky, Michael Wormit, Dmitry Zuev, Sam Manzer,               |
|   Ilya Kaliman                                                               |
|                                                                              |
| - libwfa - 1.1-trunk                                                         |
|   Authors:                                                                   |
|   Felix Plasser, Stefanie Mewes (Baeppler), Benjamin Thomitzni,              |
|   Michael Wormit, Feng Chen, Anna I. Krylov, Pavel Pokhilko                  |
|                                                                              |
| - libadc - 1.1-trunk                                                         |
|   Authors:                                                                   |
|   Michael Wormit, Adrian L. Dempwolff, Philipp H. P. Harbach,                |
|   Caroline Krauter, Dirk Rehn, Matthias Schneider, Jan Wenzel                |
|                                                                              |
| - adcman - 2.6-trunk                                                         |
|   Authors:                                                                   |
|   Michael Wormit, Adrian L. Dempwolff, Philipp H. P. Harbach,                |
|   Caroline Krauter, Daniel Lefrancois, Jan-Michael Mewes, Dirk Rehn,         |
|   Matthias Schneider, Jan Wenzel, Andreas Dreuw                              |
|                                                                              |
| Authors of earlier versions of ADCMAN:                                       |
| Andreas Dreuw, Jan Hendrik Starcke, Dirk Rehn, Michael Wormit                |
|                                                                              |
================================================================================

 
 Alpha MOs, Restricted
 -- Occupied --                  
-20.213 -11.049 -11.047  -0.930  -0.854  -0.598  -0.473  -0.384
  1 A1    2 A1    1 B1    3 A1    4 A1    2 B1    5 A1    6 A1                 
 -0.328  -0.271  -0.194  -0.129  -0.128
  3 B1    7 A1    1 B2    4 B1    2 B2                                         
 -- Virtual --                   
  0.046   0.048   0.049   0.049   0.051   0.062   0.080   0.087
  5 B1    1 A2    3 B2    8 A1    6 B1    9 A1    7 B1    2 A2                 
  0.089   0.089   0.092   0.100   0.134   0.150   0.152   0.152
  4 B2   10 A1    8 B1   11 A1    9 B1   12 A1   13 A1    3 A2                 
  0.154   0.163   0.218   0.230   0.258   0.268   0.280   0.292
  5 B2   10 B1   14 A1   11 B1    4 A2   15 A1   12 B1    6 B2                 
  0.328   0.358   0.390   0.429   0.450   0.469   0.473   0.530
 16 A1   17 A1    5 A2   13 B1    7 B2   18 A1   14 B1   19 A1                 
  0.537   0.580   0.617   0.650   0.691   0.826   0.959   0.990
 15 B1   20 A1   16 B1   21 A1   17 B1   22 A1   23 A1    8 B2                 
  1.054   1.055   1.084   1.132   1.183   1.199   1.203   1.216
  6 A2   24 A1   25 A1   18 B1   19 B1   20 B1    9 B2   26 A1                 
  1.288   1.291   1.331   1.331   1.370   1.467   1.468   1.483
 27 A1    7 A2   28 A1   21 B1   10 B2   11 B2   22 B1    8 A2                 
  1.562   1.643   1.691   1.719   1.849   1.927   1.962   2.030
 23 B1   29 A1   24 B1   12 B2   30 A1   25 B1   31 A1    9 A2                 
  2.123   2.123   2.140   2.191   2.212   2.283   2.356   2.393
 13 B2   32 A1   26 B1   33 A1   14 B2   34 A1   10 A2   15 B2                 
  2.435   2.473   2.551   2.604   2.720   2.748   2.847   3.008
 27 B1   28 B1   35 A1   11 A2   29 B1   36 A1   30 B1   37 A1                 
  3.036   3.086   3.454   3.562   3.921   3.945   3.970   4.087
 38 A1   39 A1   31 B1   32 B1   16 B2   12 A2   40 A1   33 B1                 
  4.536
 41 A1                                                                         
 
 Beta MOs, Restricted
 -- Occupied --                  
-20.213 -11.049 -11.047  -0.930  -0.854  -0.598  -0.473  -0.384
  1 A1    2 A1    1 B1    3 A1    4 A1    2 B1    5 A1    6 A1                 
 -0.328  -0.271  -0.194  -0.129  -0.128
  3 B1    7 A1    1 B2    4 B1    2 B2                                         
 -- Virtual --                   
  0.046   0.048   0.049   0.049   0.051   0.062   0.080   0.087
  5 B1    1 A2    3 B2    8 A1    6 B1    9 A1    7 B1    2 A2                 
  0.089   0.089   0.092   0.100   0.134   0.150   0.152   0.152
  4 B2   10 A1    8 B1   11 A1    9 B1   12 A1   13 A1    3 A2                 
  0.154   0.163   0.218   0.230   0.258   0.268   0.280   0.292
  5 B2   10 B1   14 A1   11 B1    4 A2   15 A1   12 B1    6 B2                 
  0.328   0.358   0.390   0.429   0.450   0.469   0.473   0.530
 16 A1   17 A1    5 A2   13 B1    7 B2   18 A1   14 B1   19 A1                 
  0.537   0.580   0.617   0.650   0.691   0.826   0.959   0.990
 15 B1   20 A1   16 B1   21 A1   17 B1   22 A1   23 A1    8 B2                 
  1.054   1.055   1.084   1.132   1.183   1.199   1.203   1.216
  6 A2   24 A1   25 A1   18 B1   19 B1   20 B1    9 B2   26 A1                 
  1.288   1.291   1.331   1.331   1.370   1.467   1.468   1.483
 27 A1    7 A2   28 A1   21 B1   10 B2   11 B2   22 B1    8 A2                 
  1.562   1.643   1.691   1.719   1.849   1.927   1.962   2.030
 23 B1   29 A1   24 B1   12 B2   30 A1   25 B1   31 A1    9 A2                 
  2.123   2.123   2.140   2.191   2.212   2.283   2.356   2.393
 13 B2   32 A1   26 B1   33 A1   14 B2   34 A1   10 A2   15 B2                 
  2.435   2.473   2.551   2.604   2.720   2.748   2.847   3.008
 27 B1   28 B1   35 A1   11 A2   29 B1   36 A1   30 B1   37 A1                 
  3.036   3.086   3.454   3.562   3.921   3.945   3.970   4.087
 38 A1   39 A1   31 B1   32 B1   16 B2   12 A2   40 A1   33 B1                 
  4.536
 41 A1                                                                         

--------------------------------------------------------------------------------
                                   HF Summary                                   
--------------------------------------------------------------------------------
  Energy:                                                 -153.4410695759 a.u.
  Dip. moment [a.u.]:                  [  -0.000000,   -0.000000,    2.074123]
  Total dipole [Debye]:                                               5.271896
  <r^2> [a.u.]:                        [  55.728731,   19.729990,  208.033097]
  Total <r^2> [a.u.]:                                               283.491818
--------------------------------------------------------------------------------

--------------------------------------------------------------------------------
                                 MP(2) Summary                                  
--------------------------------------------------------------------------------
  MP energy contribution:                                   -0.5275007068 a.u.
  Total energy:                                           -153.9685702827 a.u.
  Dip. moment [a.u.]:                  [  -0.000000,   -0.000000,    2.140935]
  Total dipole [Debye]:                                               5.441715
  <r^2> [a.u.]:                        [  56.734158,   20.454570,  209.303930]
  Total <r^2> [a.u.]:                                               286.492658

  Density matrix analysis:
  ------------------------
  NOs
    Occupation of frontier NOs:
       0.0446   1.9360
    Number of electrons: 26.000000
    Number of unpaired electrons: n_u =  0.71362, n_u,nl =  0.08506
    NO participation ratio (PR_NO): 22.993839
  
  
  Mulliken Population Analysis
  Atom      Charge (e)              h+              e-           Del q
  --------------------------------------------------------------------
   1 C       -0.183064        0.094803       -0.101000       -0.006196
   2 C       -0.183064        0.094803       -0.101000       -0.006196
   3 H        0.179488        0.017240       -0.009852        0.007388
   4 H        0.179488        0.017240       -0.009852        0.007388
   5 H        0.003951        0.018305       -0.013083        0.005223
   6 H        0.003951        0.018305       -0.013083        0.005223
   7 O       -1.051763        0.277042       -0.272458        0.004584
   8 H        0.051011        0.015578       -0.032990       -0.017412
  --------------------------------------------------------------------
  Sum:       -1.000000        0.553318       -0.553318       -0.000000
  
  Multipole moment analysis of the density matrix
    Molecular charge:                      -1.000000
    Number of electrons:                   26.000000
      Center of electronic charge [Ang]: [  0.000000,   0.000000,  -0.043574]
    Total nuclear charge:                  25.000000
      Center of nuclear charge [Ang]:    [  0.000000,   0.000000,  -0.000000]
    Dipole moment [D]:                     5.441713
      Cartesian components [D]:          [ -0.000000,  -0.000000,   5.441713]
    RMS size of the density [Ang]:         1.756053
      Cartesian components [Ang]:        [  0.781694,   0.469364,   1.500791]
  
  Exciton analysis of the difference density matrix
    <r_h> [Ang]:                  [  0.000000,  -0.000000,  -0.481655]
    <r_e> [Ang]:                  [  0.000000,  -0.000000,  -0.545552]
    |<r_e - r_h>| [Ang]:            0.063897
    Hole size [Ang]:                1.994118
      Cartesian components [Ang]: [  0.913337,   0.779314,   1.592166]
    Electron size [Ang]:            2.330143
      Cartesian components [Ang]: [  1.158888,   0.986931,   1.764232]
--------------------------------------------------------------------------------
  Starting Davidson for singlet states of irrep B2 ... 
--------------------------------------------------------------------------------
   It NVec Conv  Avg. Norm  Max. Norm  Conv. states           Remark
--------------------------------------------------------------------------------
       100    0  1.602e-01  5.255e-01  0.2023 n n n n n n n n Guess.
    1  110    0  1.637e-02  5.956e-02  0.0238 n n n n n n n n 
    2  120    0  2.070e-02  2.061e-01  0.0220 n n n n n n n n 
    3  130    0  2.191e-03  2.159e-02  0.0220 n n n n n n n n 
    4  140    0  6.556e-04  6.487e-03  0.0220 n n n n n n n n 
    5  150    3  8.950e-05  8.594e-04  0.0220 y y y n n n n n 
    6  160    8  1.370e-05  1.313e-04  0.0220 y y y y y y y y 
    7  170    9  1.393e-06  1.248e-05  0.0220 y y y y y y y y 
    8  180   10  1.994e-07  1.838e-06  0.0220 y y y y y y y y Converged.
--------------------------------------------------------------------------------
  Davidson Summary: 
 ------------------------------------------------------------
  State  0: excitation energy =   0.0220 a.u.   (converged)
  State  1: excitation energy =   0.0255 a.u.   (converged)
  State  2: excitation energy =   0.0283 a.u.   (converged)
  State  3: excitation energy =   0.0406 a.u.   (converged)
  State  4: excitation energy =   0.0479 a.u.   (converged)
  State  5: excitation energy =   0.0504 a.u.   (converged)
  State  6: excitation energy =   0.0806 a.u.   (converged)
  State  7: excitation energy =   0.0864 a.u.   (converged)
  State  8: excitation energy =   0.0909 a.u.   (converged)
  State  9: excitation energy =   0.1269 a.u.   (converged)
 ------------------------------------------------------------


--------------------------------------------------------------------------------
                   State-averaged natural transition orbitals
--------------------------------------------------------------------------------
--------------------------------------------------------------------------------

--------------------------------------------------------------------------------
                             Excited State Summary
--------------------------------------------------------------------------------
--------------------------------------------------------------------------------

  Excited state 1 (singlet, B2)                                    [converged]
  ----------------------------------------------------------------------------
  Term symbol:  1 (1) B2                                    R^2 =  6.27825e-09

  Total energy:                                           -153.9465913652 a.u.
  Excitation energy:                                               0.598077 eV

  Osc. strength:                                                      0.000108
  Trans. dip. moment [a.u.]:           [  -0.000000,    0.085882,   -0.000000]
  <i|r^2|0> [a.u.]:                    [  -0.000000,   -0.000000,   -0.000000]

  Dip. moment [a.u.]:                  [   0.000000,   -0.000000,   -2.334115]
  Total dipole [Debye]:                                               5.932731
  <r^2> [a.u.]:                        [ 169.684212,  131.007610,  536.027535]
  Total <r^2> [a.u.]:                                               836.719357

  V1^2 = 0.8560, V2^2 = 0.1440

  Important amplitudes:
      occ i      occ j       vir a       vir b          v   
    ---------------------------------------------------------
     2 (B2) A               8 (A1) A                  0.6104
     2 (B2) A              10 (A1) A                  0.1680
    ---------------------------------------------------------

  Density matrix analysis:
  ------------------------
  NOs
    Occupation of frontier NOs:
       0.9582   0.9999
    Number of electrons: 26.000000
    Number of unpaired electrons: n_u =  2.75778, n_u,nl =  2.12041
    NO participation ratio (PR_NO):  3.898631
  
  
  Mulliken Population Analysis
  Atom      Charge (e)              h+              e-           Del q
  --------------------------------------------------------------------
   1 C       -0.681577        0.045308       -0.543821       -0.498513
   2 C       -0.681577        0.045308       -0.543821       -0.498513
   3 H        0.141216       -0.004004       -0.034268       -0.038272
   4 H        0.141216       -0.004004       -0.034268       -0.038272
   5 H        0.038396        0.036875       -0.002430        0.034444
   6 H        0.038396        0.036875       -0.002430        0.034444
   7 O       -0.168855        1.418819       -0.535911        0.882908
   8 H        0.172786        0.149885       -0.028111        0.121774
  --------------------------------------------------------------------
  Sum:       -1.000000        1.725061       -1.725061       -0.000000
  
  Multipole moment analysis of the density matrix
    Molecular charge:                      -1.000000
    Number of electrons:                   26.000000
      Center of electronic charge [Ang]: [ -0.000000,   0.000000,   0.047506]
    Total nuclear charge:                  25.000000
      Center of nuclear charge [Ang]:    [  0.000000,   0.000000,  -0.000000]
    Dipole moment [D]:                     5.932729
      Cartesian components [D]:          [  0.000000,  -0.000000,  -5.932729]
    RMS size of the density [Ang]:         3.001580
      Cartesian components [Ang]:        [  1.351871,   1.187853,   2.402277]
  
  Exciton analysis of the difference density matrix
    <r_h> [Ang]:                  [  0.000000,  -0.000000,  -1.491878]
    <r_e> [Ang]:                  [ -0.000000,   0.000000,  -0.119119]
    |<r_e - r_h>| [Ang]:            1.372760
    Hole size [Ang]:                1.820344
      Cartesian components [Ang]: [  0.877821,   0.908348,   1.310720]
    Electron size [Ang]:            9.738750
      Cartesian components [Ang]: [  4.371008,   4.332566,   7.547610]

  Transition density matrix analysis:
  -----------------------------------
  
  CT numbers (Mulliken)
    omega =     0.8419
    <Phe> =    -0.0000
  
  Exciton analysis of the transition density matrix
    Trans. dipole moment [D]:             0.109145
      Cartesian components [D]:         [ -0.000000,   0.109145,  -0.000000]
    <r_h> [Ang]:                        [ -0.000000,   0.000000,  -1.746463]
    <r_e> [Ang]:                        [ -0.000000,   0.000000,   0.695852]
    |<r_e - r_h>| [Ang]:                  2.442316
    Hole size [Ang]:                      1.100635
      Cartesian components [Ang]:       [  0.480745,   0.830403,   0.539178]
    Electron size [Ang]:                 12.626855
      Cartesian components [Ang]:       [  5.681768,   5.647681,   9.760055]
    RMS electron-hole separation [Ang]:  12.907727
      Cartesian components [Ang]:       [  5.702026,   5.708377,  10.075254]
    Covariance(r_h, r_e) [Ang^2]:         0.002175
    Correlation coefficient:              0.000157
    Center-of-mass size [Ang]:            6.337452
      Cartesian components [Ang]:       [  2.851058,   2.854215,   4.887559]

  Decomposition into state-averaged NTOs
    H- 0 -> L+ 8:  0.5426 ( 58.9%)
    H- 0 -> L+ 4:  0.2339 ( 10.9%)
    H- 0 -> L+ 5: -0.2039 (  8.3%)
    H- 0 -> L+ 3: -0.1246 (  3.1%)
    H- 0 -> L+ 0:  0.0844 (  1.4%)
    H- 0 -> L+ 7: -0.0784 (  1.2%)
                   omega =  84.2%
  ----------------------------------------------------------------------------


  Excited state 2 (singlet, B2)                                    [converged]
  ----------------------------------------------------------------------------
  Term symbol:  2 (1) B2                                    R^2 =  2.71876e-09

  Total energy:                                           -153.9430827209 a.u.
  Excitation energy:                                               0.693552 eV

  Osc. strength:                                                      0.000010
  Trans. dip. moment [a.u.]:           [  -0.000000,   -0.023659,    0.000000]
  <i|r^2|0> [a.u.]:                    [   0.000000,   -0.000000,    0.000000]

  Dip. moment [a.u.]:                  [  -0.000000,   -0.000000,   -2.897921]
  Total dipole [Debye]:                                               7.365783
  <r^2> [a.u.]:                        [ 356.650010,  321.036730,  298.275692]
  Total <r^2> [a.u.]:                                               975.962432

  V1^2 = 0.8542, V2^2 = 0.1458

  Important amplitudes:
      occ i      occ j       vir a       vir b          v   
    ---------------------------------------------------------
     4 (B1) A               1 (A2) A                  0.6425
     4 (B1) A               2 (A2) A                  0.1171
    ---------------------------------------------------------

  Density matrix analysis:
  ------------------------
  NOs
    Occupation of frontier NOs:
       0.9580   0.9999
    Number of electrons: 26.000000
    Number of unpaired electrons: n_u =  2.75912, n_u,nl =  2.12050
    NO participation ratio (PR_NO):  3.903140
  
  
  Mulliken Population Analysis
  Atom      Charge (e)              h+              e-           Del q
  --------------------------------------------------------------------
   1 C       -0.672866        0.052379       -0.542182       -0.489802
   2 C       -0.672866        0.052379       -0.542182       -0.489802
   3 H        0.131523       -0.007818       -0.040148       -0.047966
   4 H        0.131523       -0.007818       -0.040148       -0.047966
   5 H        0.040952        0.039071       -0.002070        0.037001
   6 H        0.040952        0.039071       -0.002070        0.037001
   7 O       -0.170083        1.420009       -0.538329        0.881680
   8 H        0.170866        0.146955       -0.027100        0.119855
  --------------------------------------------------------------------
  Sum:       -1.000000        1.734229       -1.734229        0.000000
  
  Multipole moment analysis of the density matrix
    Molecular charge:                      -1.000000
    Number of electrons:                   26.000000
      Center of electronic charge [Ang]: [  0.000000,   0.000000,   0.058981]
    Total nuclear charge:                  25.000000
      Center of nuclear charge [Ang]:    [  0.000000,   0.000000,  -0.000000]
    Dipole moment [D]:                     7.365780
      Cartesian components [D]:          [ -0.000000,  -0.000000,  -7.365780]
    RMS size of the density [Ang]:         3.241598
      Cartesian components [Ang]:        [  1.959908,   1.859481,   1.791382]
  
  Exciton analysis of the difference density matrix
    <r_h> [Ang]:                  [  0.000000,  -0.000000,  -1.465398]
    <r_e> [Ang]:                  [  0.000000,   0.000000,   0.072143]
    |<r_e - r_h>| [Ang]:            1.537541
    Hole size [Ang]:                1.836382
      Cartesian components [Ang]: [  0.953545,   0.826118,   1.334384]
    Electron size [Ang]:           10.809449
      Cartesian components [Ang]: [  7.024037,   7.015548,   4.276584]

  Transition density matrix analysis:
  -----------------------------------
  
  CT numbers (Mulliken)
    omega =     0.8401
    <Phe> =     0.0000
  
  Exciton analysis of the transition density matrix
    Trans. dipole moment [D]:             0.030067
      Cartesian components [D]:         [ -0.000000,  -0.030067,   0.000000]
    <r_h> [Ang]:                        [  0.000000,  -0.000000,  -1.727755]
    <r_e> [Ang]:                        [  0.000000,   0.000000,   1.027143]
    |<r_e - r_h>| [Ang]:                  2.754898
    Hole size [Ang]:                      1.143587
      Cartesian components [Ang]:       [  0.829541,   0.476565,   0.626530]
    Electron size [Ang]:                 14.070700
      Cartesian components [Ang]:       [  9.216936,   9.207256,   5.315931]
    RMS electron-hole separation [Ang]:  14.383194
      Cartesian components [Ang]:       [  9.253908,   9.219562,   6.020060]
    Covariance(r_h, r_e) [Ang^2]:         0.002790
    Correlation coefficient:              0.000173
    Center-of-mass size [Ang]:            7.058647
      Cartesian components [Ang]:       [  4.627236,   4.609800,   2.676362]

  Decomposition into state-averaged NTOs
    H- 1 -> L+ 9:  0.5863 ( 68.7%)
    H- 1 -> L+ 6: -0.2713 ( 14.7%)
                   omega =  84.0%
  ----------------------------------------------------------------------------


  Excited state 3 (singlet, B2)                                    [converged]
  ----------------------------------------------------------------------------
  Term symbol:  3 (1) B2                                    R^2 =  1.30566e-08

  Total energy:                                           -153.9402380137 a.u.
  Excitation energy:                                               0.770960 eV

  Osc. strength:                                                      0.000832
  Trans. dip. moment [a.u.]:           [   0.000000,    0.209913,    0.000000]
  <i|r^2|0> [a.u.]:                    [  -0.000000,   -0.000000,   -0.000000]

  Dip. moment [a.u.]:                  [   0.000000,    0.000000,   -3.179643]
  Total dipole [Debye]:                                               8.081849
  <r^2> [a.u.]:                        [ 349.096215,  127.423080,  310.083036]
  Total <r^2> [a.u.]:                                               786.602331

  V1^2 = 0.8579, V2^2 = 0.1421

  Important amplitudes:
      occ i      occ j       vir a       vir b          v   
    ---------------------------------------------------------
     2 (B2) A               9 (A1) A                 -0.5888
     2 (B2) A              11 (A1) A                 -0.2125
    ---------------------------------------------------------

  Density matrix analysis:
  ------------------------
  NOs
    Occupation of frontier NOs:
       0.9586   0.9995
    Number of electrons: 26.000000
    Number of unpaired electrons: n_u =  2.75611, n_u,nl =  2.11955
    NO participation ratio (PR_NO):  3.894388
  
  
  Mulliken Population Analysis
  Atom      Charge (e)              h+              e-           Del q
  --------------------------------------------------------------------
   1 C       -0.681012        0.045409       -0.543358       -0.497948
   2 C       -0.681012        0.045409       -0.543358       -0.497948
   3 H        0.140696       -0.003757       -0.035035       -0.038792
   4 H        0.140696       -0.003757       -0.035035       -0.038792
   5 H        0.037586        0.036673       -0.003039        0.033634
   6 H        0.037586        0.036673       -0.003039        0.033634
   7 O       -0.164407        1.415307       -0.527951        0.887356
   8 H        0.169868        0.147615       -0.028758        0.118857
  --------------------------------------------------------------------
  Sum:       -1.000000        1.719574       -1.719574        0.000000
  
  Multipole moment analysis of the density matrix
    Molecular charge:                      -1.000000
    Number of electrons:                   26.000000
      Center of electronic charge [Ang]: [ -0.000000,  -0.000000,   0.064715]
    Total nuclear charge:                  25.000000
      Center of nuclear charge [Ang]:    [  0.000000,   0.000000,  -0.000000]
    Dipole moment [D]:                     8.081846
      Cartesian components [D]:          [  0.000000,   0.000000,  -8.081846]
    RMS size of the density [Ang]:         2.909944
      Cartesian components [Ang]:        [  1.939041,   1.171490,   1.826337]
  
  Exciton analysis of the difference density matrix
    <r_h> [Ang]:                  [  0.000000,  -0.000000,  -1.487808]
    <r_e> [Ang]:                  [ -0.000000,  -0.000000,   0.149533]
    |<r_e - r_h>| [Ang]:            1.637341
    Hole size [Ang]:                1.818672
      Cartesian components [Ang]: [  0.880009,   0.906845,   1.307969]
    Electron size [Ang]:            9.324186
      Cartesian components [Ang]: [  6.955924,   4.271058,   4.507065]

  Transition density matrix analysis:
  -----------------------------------
  
  CT numbers (Mulliken)
    omega =     0.8437
    <Phe> =    -0.0001
  
  Exciton analysis of the transition density matrix
    Trans. dipole moment [D]:             0.266773
      Cartesian components [D]:         [  0.000000,   0.266773,   0.000000]
    <r_h> [Ang]:                        [ -0.000000,   0.000000,  -1.745729]
    <r_e> [Ang]:                        [ -0.000000,  -0.000000,   1.140348]
    |<r_e - r_h>| [Ang]:                  2.886076
    Hole size [Ang]:                      1.101044
      Cartesian components [Ang]:       [  0.480559,   0.829904,   0.540942]
    Electron size [Ang]:                 12.023397
      Cartesian components [Ang]:       [  9.078845,   5.558194,   5.589553]
    RMS electron-hole separation [Ang]:  12.413070
      Cartesian components [Ang]:       [  9.091512,   5.619000,   6.313124]
    Covariance(r_h, r_e) [Ang^2]:         0.009753
    Correlation coefficient:              0.000737
    Center-of-mass size [Ang]:            6.037257
      Cartesian components [Ang]:       [  4.545799,   2.810310,   2.808263]

  Decomposition into state-averaged NTOs
    H- 0 -> L+ 7: -0.4774 ( 45.6%)
    H- 0 -> L+ 4:  0.3243 ( 21.0%)
    H- 0 -> L+ 5:  0.1769 (  6.3%)
    H- 0 -> L+ 8: -0.1706 (  5.8%)
    H- 0 -> L+ 0:  0.1646 (  5.4%)
                   omega =  84.4%
  ----------------------------------------------------------------------------


  Excited state 4 (singlet, B2)                                    [converged]
  ----------------------------------------------------------------------------
  Term symbol:  4 (1) B2                                    R^2 =  3.62084e-08

  Total energy:                                           -153.9279490781 a.u.
  Excitation energy:                                               1.105359 eV

  Osc. strength:                                                      0.001749
  Trans. dip. moment [a.u.]:           [   0.000000,    0.254120,   -0.000000]
  <i|r^2|0> [a.u.]:                    [   0.000000,    0.000000,    0.000000]

  Dip. moment [a.u.]:                  [   0.000000,   -0.000000,   -3.060691]
  Total dipole [Debye]:                                               7.779502
  <r^2> [a.u.]:                        [ 125.604998,   87.590415,  410.068554]
  Total <r^2> [a.u.]:                                               623.263967

  V1^2 = 0.8615, V2^2 = 0.1385

  Important amplitudes:
      occ i      occ j       vir a       vir b          v   
    ---------------------------------------------------------
     2 (B2) A              10 (A1) A                  0.4990
     2 (B2) A              11 (A1) A                 -0.2639
    ---------------------------------------------------------

  Density matrix analysis:
  ------------------------
  NOs
    Occupation of frontier NOs:
       0.9594   0.9996
    Number of electrons: 26.000000
    Number of unpaired electrons: n_u =  2.75257, n_u,nl =  2.11785
    NO participation ratio (PR_NO):  3.882235
  
  
  Mulliken Population Analysis
  Atom      Charge (e)              h+              e-           Del q
  --------------------------------------------------------------------
   1 C       -0.681868        0.043078       -0.541883       -0.498804
   2 C       -0.681868        0.043078       -0.541883       -0.498804
   3 H        0.141411       -0.003920       -0.034157       -0.038078
   4 H        0.141411       -0.003920       -0.034157       -0.038078
   5 H        0.040768        0.037345       -0.000529        0.036817
   6 H        0.040768        0.037345       -0.000529        0.036817
   7 O       -0.181584        1.405933       -0.535754        0.870179
   8 H        0.180962        0.150352       -0.020401        0.129951
  --------------------------------------------------------------------
  Sum:       -1.000000        1.709292       -1.709292        0.000000
  
  Multipole moment analysis of the density matrix
    Molecular charge:                      -1.000000
    Number of electrons:                   26.000000
      Center of electronic charge [Ang]: [ -0.000000,   0.000000,   0.062294]
    Total nuclear charge:                  25.000000
      Center of nuclear charge [Ang]:    [  0.000000,   0.000000,  -0.000000]
    Dipole moment [D]:                     7.779500
      Cartesian components [D]:          [  0.000000,  -0.000000,  -7.779500]
    RMS size of the density [Ang]:         2.590150
      Cartesian components [Ang]:        [  1.163102,   0.971276,   2.100641]
  
  Exciton analysis of the difference density matrix
    <r_h> [Ang]:                  [  0.000000,  -0.000000,  -1.488554]
    <r_e> [Ang]:                  [ -0.000000,   0.000000,   0.121810]
    |<r_e - r_h>| [Ang]:            1.610364
    Hole size [Ang]:                1.822752
      Cartesian components [Ang]: [  0.873356,   0.907668,   1.317504]
    Electron size [Ang]:            7.790744
      Cartesian components [Ang]: [  3.470687,   3.438392,   6.068565]

  Transition density matrix analysis:
  -----------------------------------
  
  CT numbers (Mulliken)
    omega =     0.8471
    <Phe> =    -0.0004
  
  Exciton analysis of the transition density matrix
    Trans. dipole moment [D]:             0.322954
      Cartesian components [D]:         [  0.000000,   0.322954,  -0.000000]
    <r_h> [Ang]:                        [ -0.000000,   0.000000,  -1.746042]
    <r_e> [Ang]:                        [ -0.000000,   0.000000,   1.070233]
    |<r_e - r_h>| [Ang]:                  2.816275
    Hole size [Ang]:                      1.099677
      Cartesian components [Ang]:       [  0.480145,   0.829220,   0.539576]
    Electron size [Ang]:                  9.935591
      Cartesian components [Ang]:       [  4.457227,   4.436011,   7.692262]
    RMS electron-hole separation [Ang]:  10.384748
      Cartesian components [Ang]:       [  4.482928,   4.512695,   8.208650]
    Covariance(r_h, r_e) [Ang^2]:         0.006834
    Correlation coefficient:              0.000626
    Center-of-mass size [Ang]:            4.998473
      Cartesian components [Ang]:       [  2.241550,   2.256501,   3.855955]

  Decomposition into state-averaged NTOs
    H- 0 -> L+ 3: -0.3047 ( 18.6%)
    H- 0 -> L+ 8: -0.2695 ( 14.5%)
    H- 0 -> L+ 0:  0.2632 ( 13.9%)
    H- 0 -> L+ 7:  0.2532 ( 12.8%)
    H- 0 -> L+ 5: -0.2518 ( 12.7%)
    H- 0 -> L+ 4:  0.2226 (  9.9%)
    H- 0 -> L+ 1: -0.1079 (  2.3%)
                   omega =  84.7%
  ----------------------------------------------------------------------------


  Excited state 5 (singlet, B2)                                    [converged]
  ----------------------------------------------------------------------------
  Term symbol:  5 (1) B2                                    R^2 =  4.83780e-08

  Total energy:                                           -153.9206736442 a.u.
  Excitation energy:                                               1.303334 eV

  Osc. strength:                                                      0.000320
  Trans. dip. moment [a.u.]:           [  -0.000000,    0.100069,   -0.000000]
  <i|r^2|0> [a.u.]:                    [  -0.000000,    0.000000,   -0.000000]

  Dip. moment [a.u.]:                  [  -0.000000,   -0.000000,   -2.894868]
  Total dipole [Debye]:                                               7.358022
  <r^2> [a.u.]:                        [ 221.773176,  186.486231,  253.492898]
  Total <r^2> [a.u.]:                                               661.752305

  V1^2 = 0.8587, V2^2 = 0.1413

  Important amplitudes:
      occ i      occ j       vir a       vir b          v   
    ---------------------------------------------------------
     4 (B1) A               2 (A2) A                 -0.6323
     4 (B1) A               3 (A2) A                 -0.1241
    ---------------------------------------------------------

  Density matrix analysis:
  ------------------------
  NOs
    Occupation of frontier NOs:
       0.9590   0.9996
    Number of electrons: 26.000000
    Number of unpaired electrons: n_u =  2.75523, n_u,nl =  2.11863
    NO participation ratio (PR_NO):  3.890384
  
  
  Mulliken Population Analysis
  Atom      Charge (e)              h+              e-           Del q
  --------------------------------------------------------------------
   1 C       -0.672240        0.052174       -0.541351       -0.489176
   2 C       -0.672240        0.052174       -0.541351       -0.489176
   3 H        0.131978       -0.007514       -0.039996       -0.047510
   4 H        0.131978       -0.007514       -0.039996       -0.047510
   5 H        0.040150        0.038279       -0.002081        0.036199
   6 H        0.040150        0.038279       -0.002081        0.036199
   7 O       -0.168960        1.412783       -0.529980        0.882803
   8 H        0.169185        0.144658       -0.026485        0.118174
  --------------------------------------------------------------------
  Sum:       -1.000000        1.723320       -1.723320        0.000000
  
  Multipole moment analysis of the density matrix
    Molecular charge:                      -1.000000
    Number of electrons:                   26.000000
      Center of electronic charge [Ang]: [  0.000000,   0.000000,   0.058919]
    Total nuclear charge:                  25.000000
      Center of nuclear charge [Ang]:    [  0.000000,   0.000000,  -0.000000]
    Dipole moment [D]:                     7.358020
      Cartesian components [D]:          [ -0.000000,  -0.000000,  -7.358020]
    RMS size of the density [Ang]:         2.669048
      Cartesian components [Ang]:        [  1.545500,   1.417222,   1.651281]
  
  Exciton analysis of the difference density matrix
    <r_h> [Ang]:                  [  0.000000,  -0.000000,  -1.464869]
    <r_e> [Ang]:                  [  0.000000,   0.000000,   0.081468]
    |<r_e - r_h>| [Ang]:            1.546336
    Hole size [Ang]:                1.828993
      Cartesian components [Ang]: [  0.950981,   0.820528,   1.329506]
    Electron size [Ang]:            8.152405
      Cartesian components [Ang]: [  5.265183,   5.258550,   3.329747]

  Transition density matrix analysis:
  -----------------------------------
  
  CT numbers (Mulliken)
    omega =     0.8444
    <Phe> =     0.0000
  
  Exciton analysis of the transition density matrix
    Trans. dipole moment [D]:             0.127175
      Cartesian components [D]:         [ -0.000000,   0.127175,  -0.000000]
    <r_h> [Ang]:                        [  0.000000,  -0.000000,  -1.726993]
    <r_e> [Ang]:                        [  0.000000,   0.000000,   1.027030]
    |<r_e - r_h>| [Ang]:                  2.754023
    Hole size [Ang]:                      1.143383
      Cartesian components [Ang]:       [  0.828695,   0.476117,   0.627616]
    Electron size [Ang]:                 10.479803
      Cartesian components [Ang]:       [  6.864201,   6.857689,   3.959939]
    RMS electron-hole separation [Ang]:  10.895410
      Cartesian components [Ang]:       [  6.913478,   6.874163,   4.864119]
    Covariance(r_h, r_e) [Ang^2]:         0.004146
    Correlation coefficient:              0.000346
    Center-of-mass size [Ang]:            5.271193
      Cartesian components [Ang]:       [  3.457304,   3.437116,   2.004683]

  Decomposition into state-averaged NTOs
    H- 1 -> L+ 6:  0.5187 ( 53.8%)
    H- 1 -> L+ 2:  0.2885 ( 16.6%)
    H- 1 -> L+ 9:  0.2642 ( 14.0%)
                   omega =  84.4%
  ----------------------------------------------------------------------------


  Excited state 6 (singlet, B2)                                    [converged]
  ----------------------------------------------------------------------------
  Term symbol:  6 (1) B2                                    R^2 =  3.26881e-08

  Total energy:                                           -153.9181255464 a.u.
  Excitation energy:                                               1.372671 eV

  Osc. strength:                                                      0.002704
  Trans. dip. moment [a.u.]:           [   0.000000,    0.283548,   -0.000000]
  <i|r^2|0> [a.u.]:                    [   0.000000,    0.000000,    0.000000]

  Dip. moment [a.u.]:                  [   0.000000,    0.000000,   -3.169802]
  Total dipole [Debye]:                                               8.056835
  <r^2> [a.u.]:                        [ 255.779958,   72.490393,  253.160449]
  Total <r^2> [a.u.]:                                               581.430801

  V1^2 = 0.8606, V2^2 = 0.1394

  Important amplitudes:
      occ i      occ j       vir a       vir b          v   
    ---------------------------------------------------------
     2 (B2) A              11 (A1) A                 -0.5017
     2 (B2) A              10 (A1) A                 -0.3533
    ---------------------------------------------------------

  Density matrix analysis:
  ------------------------
  NOs
    Occupation of frontier NOs:
       0.9593   0.9992
    Number of electrons: 26.000000
    Number of unpaired electrons: n_u =  2.75379, n_u,nl =  2.11841
    NO participation ratio (PR_NO):  3.887450
  
  
  Mulliken Population Analysis
  Atom      Charge (e)              h+              e-           Del q
  --------------------------------------------------------------------
   1 C       -0.680912        0.045301       -0.543149       -0.497848
   2 C       -0.680912        0.045301       -0.543149       -0.497848
   3 H        0.138811       -0.003490       -0.037187       -0.040678
   4 H        0.138811       -0.003490       -0.037187       -0.040678
   5 H        0.035834        0.036807       -0.004924        0.031883
   6 H        0.035834        0.036807       -0.004924        0.031883
   7 O       -0.151835        1.410507       -0.510579        0.899928
   8 H        0.164368        0.145330       -0.031973        0.113357
  --------------------------------------------------------------------
  Sum:       -1.000000        1.713073       -1.713073        0.000000
  
  Multipole moment analysis of the density matrix
    Molecular charge:                      -1.000000
    Number of electrons:                   26.000000
      Center of electronic charge [Ang]: [ -0.000000,  -0.000000,   0.064515]
    Total nuclear charge:                  25.000000
      Center of nuclear charge [Ang]:    [  0.000000,   0.000000,  -0.000000]
    Dipole moment [D]:                     8.056832
      Cartesian components [D]:          [  0.000000,   0.000000,  -8.056832]
    RMS size of the density [Ang]:         2.501607
      Cartesian components [Ang]:        [  1.659769,   0.883598,   1.649988]
  
  Exciton analysis of the difference density matrix
    <r_h> [Ang]:                  [  0.000000,  -0.000000,  -1.483612]
    <r_e> [Ang]:                  [ -0.000000,  -0.000000,   0.156902]
    |<r_e - r_h>| [Ang]:            1.640515
    Hole size [Ang]:                1.816336
      Cartesian components [Ang]: [  0.879318,   0.903990,   1.307164]
    Electron size [Ang]:            7.327197
      Cartesian components [Ang]: [  5.771512,   3.053402,   3.324786]

  Transition density matrix analysis:
  -----------------------------------
  
  CT numbers (Mulliken)
    omega =     0.8462
    <Phe> =    -0.0003
  
  Exciton analysis of the transition density matrix
    Trans. dipole moment [D]:             0.360354
      Cartesian components [D]:         [  0.000000,   0.360354,  -0.000000]
    <r_h> [Ang]:                        [ -0.000000,   0.000000,  -1.744825]
    <r_e> [Ang]:                        [ -0.000000,  -0.000000,   1.144085]
    |<r_e - r_h>| [Ang]:                  2.888910
    Hole size [Ang]:                      1.101530
      Cartesian components [Ang]:       [  0.480340,   0.829255,   0.543119]
    Electron size [Ang]:                  9.330104
      Cartesian components [Ang]:       [  7.499460,   3.938343,   3.911316]
    RMS electron-hole separation [Ang]:   9.828211
      Cartesian components [Ang]:       [  7.514748,   4.023771,   4.891989]
    Covariance(r_h, r_e) [Ang^2]:         0.008136
    Correlation coefficient:              0.000792
    Center-of-mass size [Ang]:            4.697885
      Cartesian components [Ang]:       [  3.757453,   2.012814,   1.974904]

  Decomposition into state-averaged NTOs
    H- 0 -> L+ 5:  0.4073 ( 33.2%)
    H- 0 -> L+ 7:  0.2958 ( 17.5%)
    H- 0 -> L+ 0:  0.2031 (  8.2%)
    H- 0 -> L+ 4:  0.2016 (  8.1%)
    H- 0 -> L+ 3:  0.1988 (  7.9%)
    H- 0 -> L+ 1: -0.1900 (  7.2%)
    H- 0 -> L+ 8:  0.1102 (  2.4%)
                   omega =  84.6%
  ----------------------------------------------------------------------------


  Excited state 7 (singlet, B2)                                    [converged]
  ----------------------------------------------------------------------------
  Term symbol:  7 (1) B2                                    R^2 =  1.51573e-07

  Total energy:                                           -153.8879837738 a.u.
  Excitation energy:                                               2.192870 eV

  Osc. strength:                                                      0.012222
  Trans. dip. moment [a.u.]:           [   0.000000,    0.476969,    0.000000]
  <i|r^2|0> [a.u.]:                    [  -0.000000,    0.000000,   -0.000000]

  Dip. moment [a.u.]:                  [   0.000000,   -0.000000,   -3.888216]
  Total dipole [Debye]:                                               9.882862
  <r^2> [a.u.]:                        [  99.663821,   61.209499,  327.330347]
  Total <r^2> [a.u.]:                                               488.203666

  V1^2 = 0.8657, V2^2 = 0.1343

  Important amplitudes:
      occ i      occ j       vir a       vir b          v   
    ---------------------------------------------------------
     2 (B2) A              13 (A1) A                  0.5920
     2 (B2) A              11 (A1) A                  0.1944
    ---------------------------------------------------------

  Density matrix analysis:
  ------------------------
  NOs
    Occupation of frontier NOs:
       0.9606   0.9980
    Number of electrons: 26.000000
    Number of unpaired electrons: n_u =  2.74936, n_u,nl =  2.11615
    NO participation ratio (PR_NO):  3.875912
  
  
  Mulliken Population Analysis
  Atom      Charge (e)              h+              e-           Del q
  --------------------------------------------------------------------
   1 C       -0.689779        0.040826       -0.547541       -0.506715
   2 C       -0.689779        0.040826       -0.547541       -0.506715
   3 H        0.137141       -0.003318       -0.039030       -0.042348
   4 H        0.137141       -0.003318       -0.039030       -0.042348
   5 H        0.032171        0.040411       -0.012191        0.028220
   6 H        0.032171        0.040411       -0.012191        0.028220
   7 O       -0.086587        1.402212       -0.437036        0.965176
   8 H        0.127521        0.140058       -0.063548        0.076510
  --------------------------------------------------------------------
  Sum:       -1.000000        1.698106       -1.698106       -0.000000
  
  Multipole moment analysis of the density matrix
    Molecular charge:                      -1.000000
    Number of electrons:                   26.000000
      Center of electronic charge [Ang]: [ -0.000000,   0.000000,   0.079137]
    Total nuclear charge:                  25.000000
      Center of nuclear charge [Ang]:    [  0.000000,   0.000000,  -0.000000]
    Dipole moment [D]:                     9.882859
      Cartesian components [D]:          [  0.000000,  -0.000000,  -9.882859]
    RMS size of the density [Ang]:         2.291692
      Cartesian components [Ang]:        [  1.036056,   0.811940,   1.875951]
  
  Exciton analysis of the difference density matrix
    <r_h> [Ang]:                  [  0.000000,  -0.000000,  -1.468767]
    <r_e> [Ang]:                  [ -0.000000,   0.000000,   0.410085]
    |<r_e - r_h>| [Ang]:            1.878851
    Hole size [Ang]:                1.834241
      Cartesian components [Ang]: [  0.868570,   0.905721,   1.337795]
    Electron size [Ang]:            6.214256
      Cartesian components [Ang]: [  2.798890,   2.746102,   4.821007]

  Transition density matrix analysis:
  -----------------------------------
  
  CT numbers (Mulliken)
    omega =     0.8508
    <Phe> =    -0.0012
  
  Exciton analysis of the transition density matrix
    Trans. dipole moment [D]:             0.606167
      Cartesian components [D]:         [  0.000000,   0.606167,   0.000000]
    <r_h> [Ang]:                        [ -0.000000,   0.000000,  -1.743556]
    <r_e> [Ang]:                        [ -0.000000,   0.000000,   1.522413]
    |<r_e - r_h>| [Ang]:                  3.265969
    Hole size [Ang]:                      1.101646
      Cartesian components [Ang]:       [  0.479868,   0.827844,   0.545917]
    Electron size [Ang]:                  7.733575
      Cartesian components [Ang]:       [  3.552217,   3.508029,   5.906240]
    RMS electron-hole separation [Ang]:   8.465655
      Cartesian components [Ang]:       [  3.584330,   3.603662,   6.770046]
    Covariance(r_h, r_e) [Ang^2]:         0.010520
    Correlation coefficient:              0.001235
    Center-of-mass size [Ang]:            3.906496
      Cartesian components [Ang]:       [  1.792318,   1.802554,   2.966329]

  Decomposition into state-averaged NTOs
    H- 0 -> L+ 4: -0.4099 ( 33.6%)
    H- 0 -> L+ 0:  0.3572 ( 25.5%)
    H- 0 -> L+ 3: -0.2308 ( 10.7%)
    H- 0 -> L+ 1: -0.1825 (  6.7%)
    H- 0 -> L+ 7: -0.1357 (  3.7%)
    H- 0 -> L+ 5:  0.1311 (  3.4%)
    H- 0 -> L+ 8:  0.0858 (  1.5%)
                   omega =  85.1%
  ----------------------------------------------------------------------------


  Excited state 8 (singlet, B2)                                    [converged]
  ----------------------------------------------------------------------------
  Term symbol:  8 (1) B2                                    R^2 =  4.36593e-08

  Total energy:                                           -153.8822184317 a.u.
  Excitation energy:                                               2.349753 eV

  Osc. strength:                                                      0.000145
  Trans. dip. moment [a.u.]:           [  -0.000000,    0.050172,    0.000000]
  <i|r^2|0> [a.u.]:                    [  -0.000000,    0.000000,   -0.000000]

  Dip. moment [a.u.]:                  [   0.000000,    0.000000,   -3.026086]
  Total dipole [Debye]:                                               7.691544
  <r^2> [a.u.]:                        [ 175.022178,   45.853569,  226.406336]
  Total <r^2> [a.u.]:                                               447.282083

  V1^2 = 0.8649, V2^2 = 0.1351

  Important amplitudes:
      occ i      occ j       vir a       vir b          v   
    ---------------------------------------------------------
     2 (B2) A              12 (A1) A                 -0.6317
     2 (B2) A              14 (A1) A                  0.1192
    ---------------------------------------------------------

  Density matrix analysis:
  ------------------------
  NOs
    Occupation of frontier NOs:
       0.9606   0.9985
    Number of electrons: 26.000000
    Number of unpaired electrons: n_u =  2.75082, n_u,nl =  2.11688
    NO participation ratio (PR_NO):  3.877763
  
  
  Mulliken Population Analysis
  Atom      Charge (e)              h+              e-           Del q
  --------------------------------------------------------------------
   1 C       -0.687435        0.044400       -0.548771       -0.504371
   2 C       -0.687435        0.044400       -0.548771       -0.504371
   3 H        0.147286       -0.001451       -0.030751       -0.032202
   4 H        0.147286       -0.001451       -0.030751       -0.032202
   5 H        0.042875        0.036771        0.002152        0.038923
   6 H        0.042875        0.036771        0.002152        0.038923
   7 O       -0.175858        1.402635       -0.526730        0.875906
   8 H        0.170406        0.141496       -0.022101        0.119395
  --------------------------------------------------------------------
  Sum:       -1.000000        1.703570       -1.703570       -0.000000
  
  Multipole moment analysis of the density matrix
    Molecular charge:                      -1.000000
    Number of electrons:                   26.000000
      Center of electronic charge [Ang]: [ -0.000000,  -0.000000,   0.061590]
    Total nuclear charge:                  25.000000
      Center of nuclear charge [Ang]:    [  0.000000,   0.000000,  -0.000000]
    Dipole moment [D]:                     7.691542
      Cartesian components [D]:          [  0.000000,   0.000000,  -7.691542]
    RMS size of the density [Ang]:         2.193988
      Cartesian components [Ang]:        [  1.372970,   0.702750,   1.560345]
  
  Exciton analysis of the difference density matrix
    <r_h> [Ang]:                  [  0.000000,  -0.000000,  -1.479027]
    <r_e> [Ang]:                  [ -0.000000,  -0.000000,   0.125996]
    |<r_e - r_h>| [Ang]:            1.605023
    Hole size [Ang]:                1.804549
      Cartesian components [Ang]: [  0.873322,   0.897234,   1.299490]
    Electron size [Ang]:            5.644307
      Cartesian components [Ang]: [  4.495173,   2.231603,   2.582938]

  Transition density matrix analysis:
  -----------------------------------
  
  CT numbers (Mulliken)
    omega =     0.8503
    <Phe> =     0.0001
  
  Exciton analysis of the transition density matrix
    Trans. dipole moment [D]:             0.063762
      Cartesian components [D]:         [ -0.000000,   0.063762,   0.000000]
    <r_h> [Ang]:                        [ -0.000000,   0.000000,  -1.743797]
    <r_e> [Ang]:                        [ -0.000000,  -0.000000,   1.079057]
    |<r_e - r_h>| [Ang]:                  2.822854
    Hole size [Ang]:                      1.101626
      Cartesian components [Ang]:       [  0.480002,   0.828181,   0.545247]
    Electron size [Ang]:                  7.046968
      Cartesian components [Ang]:       [  5.804716,   2.836402,   2.814222]
    RMS electron-hole separation [Ang]:   7.670599
      Cartesian components [Ang]:       [  5.824356,   2.954723,   4.023005]
    Covariance(r_h, r_e) [Ang^2]:         0.001874
    Correlation coefficient:              0.000241
    Center-of-mass size [Ang]:            3.566409
      Cartesian components [Ang]:       [  2.912350,   1.477475,   1.433371]

  Decomposition into state-averaged NTOs
    H- 0 -> L+ 1: -0.5597 ( 62.6%)
    H- 0 -> L+ 3:  0.2039 (  8.3%)
    H- 0 -> L+ 5: -0.1902 (  7.2%)
    H- 0 -> L+ 7: -0.1266 (  3.2%)
    H- 0 -> L+ 0: -0.1185 (  2.8%)
                   omega =  85.0%
  ----------------------------------------------------------------------------


  Excited state 9 (singlet, B2)                                    [converged]
  ----------------------------------------------------------------------------
  Term symbol:  9 (1) B2                                    R^2 =  7.52802e-07

  Total energy:                                           -153.8777109468 a.u.
  Excitation energy:                                               2.472408 eV

  Osc. strength:                                                      0.002170
  Trans. dip. moment [a.u.]:           [  -0.000000,    0.189258,   -0.000000]
  <i|r^2|0> [a.u.]:                    [  -0.000000,    0.000000,   -0.000000]

  Dip. moment [a.u.]:                  [  -0.000000,   -0.000000,   -2.882671]
  Total dipole [Debye]:                                               7.327020
  <r^2> [a.u.]:                        [ 142.172861,  106.985635,  227.193551]
  Total <r^2> [a.u.]:                                               476.352047

  V1^2 = 0.8645, V2^2 = 0.1355

  Important amplitudes:
      occ i      occ j       vir a       vir b          v   
    ---------------------------------------------------------
     4 (B1) A               3 (A2) A                 -0.6301
     4 (B1) A               4 (A2) A                 -0.1382
    ---------------------------------------------------------

  Density matrix analysis:
  ------------------------
  NOs
    Occupation of frontier NOs:
       0.9610   0.9982
    Number of electrons: 26.000000
    Number of unpaired electrons: n_u =  2.75086, n_u,nl =  2.11626
    NO participation ratio (PR_NO):  3.877792
  
  
  Mulliken Population Analysis
  Atom      Charge (e)              h+              e-           Del q
  --------------------------------------------------------------------
   1 C       -0.668499        0.051317       -0.536752       -0.485435
   2 C       -0.668499        0.051317       -0.536752       -0.485435
   3 H        0.131757       -0.006749       -0.040982       -0.047731
   4 H        0.131757       -0.006749       -0.040982       -0.047731
   5 H        0.037440        0.035541       -0.002053        0.033488
   6 H        0.037440        0.035541       -0.002053        0.033488
   7 O       -0.166504        1.401759       -0.516499        0.885259
   8 H        0.165108        0.139382       -0.025285        0.114097
  --------------------------------------------------------------------
  Sum:       -1.000000        1.701358       -1.701358       -0.000000
  
  Multipole moment analysis of the density matrix
    Molecular charge:                      -1.000000
    Number of electrons:                   26.000000
      Center of electronic charge [Ang]: [  0.000000,   0.000000,   0.058671]
    Total nuclear charge:                  25.000000
      Center of nuclear charge [Ang]:    [  0.000000,   0.000000,  -0.000000]
    Dipole moment [D]:                     7.327018
      Cartesian components [D]:          [ -0.000000,  -0.000000,  -7.327018]
    RMS size of the density [Ang]:         2.264294
      Cartesian components [Ang]:        [  1.237436,   1.073439,   1.563172]
  
  Exciton analysis of the difference density matrix
    <r_h> [Ang]:                  [  0.000000,  -0.000000,  -1.470129]
    <r_e> [Ang]:                  [  0.000000,   0.000000,   0.092375]
    |<r_e - r_h>| [Ang]:            1.562503
    Hole size [Ang]:                1.805131
      Cartesian components [Ang]: [  0.943867,   0.807692,   1.309674]
    Electron size [Ang]:            6.054785
      Cartesian components [Ang]: [  3.866955,   3.859354,   2.610070]

  Transition density matrix analysis:
  -----------------------------------
  
  CT numbers (Mulliken)
    omega =     0.8496
    <Phe> =     0.0001
  
  Exciton analysis of the transition density matrix
    Trans. dipole moment [D]:             0.240523
      Cartesian components [D]:         [ -0.000000,   0.240523,  -0.000000]
    <r_h> [Ang]:                        [  0.000000,  -0.000000,  -1.724285]
    <r_e> [Ang]:                        [  0.000000,   0.000000,   1.026550]
    |<r_e - r_h>| [Ang]:                  2.750835
    Hole size [Ang]:                      1.145156
      Cartesian components [Ang]:       [  0.827379,   0.475593,   0.632959]
    Electron size [Ang]:                  7.606137
      Cartesian components [Ang]:       [  4.982224,   4.975917,   2.875937]
    RMS electron-hole separation [Ang]:   8.168211
      Cartesian components [Ang]:       [  5.049343,   4.998513,   4.029724]
    Covariance(r_h, r_e) [Ang^2]:         0.006055
    Correlation coefficient:              0.000695
    Center-of-mass size [Ang]:            3.846323
      Cartesian components [Ang]:       [  2.525784,   2.499337,   1.472388]

  Decomposition into state-averaged NTOs
    H- 1 -> L+ 2:  0.5825 ( 67.9%)
    H- 1 -> L+ 6: -0.2811 ( 15.8%)
    H- 1 -> L+ 9: -0.0782 (  1.2%)
                   omega =  85.0%
  ----------------------------------------------------------------------------


  Excited state 10 (singlet, B2)                                    [converged]
  ----------------------------------------------------------------------------
  Term symbol:  10 (1) B2                                   R^2 =  1.83824e-06

  Total energy:                                           -153.8417116194 a.u.
  Excitation energy:                                               3.452000 eV

  Osc. strength:                                                      0.006517
  Trans. dip. moment [a.u.]:           [   0.000000,    0.277593,    0.000000]
  <i|r^2|0> [a.u.]:                    [  -0.000000,   -0.000000,   -0.000000]

  Dip. moment [a.u.]:                  [   0.000000,   -0.000000,   -3.212710]
  Total dipole [Debye]:                                               8.165896
  <r^2> [a.u.]:                        [ 120.105080,   37.262867,  225.122261]
  Total <r^2> [a.u.]:                                               382.490208

  V1^2 = 0.8696, V2^2 = 0.1304

  Important amplitudes:
      occ i      occ j       vir a       vir b          v   
    ---------------------------------------------------------
     2 (B2) A              14 (A1) A                 -0.5982
     2 (B2) A              16 (A1) A                 -0.1814
    ---------------------------------------------------------

  Density matrix analysis:
  ------------------------
  NOs
    Occupation of frontier NOs:
       0.9630   0.9928
    Number of electrons: 26.000000
    Number of unpaired electrons: n_u =  2.74992, n_u,nl =  2.11573
    NO participation ratio (PR_NO):  3.889205
  
  
  Mulliken Population Analysis
  Atom      Charge (e)              h+              e-           Del q
  --------------------------------------------------------------------
   1 C       -0.722477        0.045988       -0.585400       -0.539413
   2 C       -0.722477        0.045988       -0.585400       -0.539413
   3 H        0.159351       -0.000587       -0.019551       -0.020137
   4 H        0.159351       -0.000587       -0.019551       -0.020137
   5 H        0.105133        0.035225        0.065956        0.101181
   6 H        0.105133        0.035225        0.065956        0.101181
   7 O       -0.315012        1.369032       -0.632281        0.736751
   8 H        0.230997        0.138142        0.041844        0.179986
  --------------------------------------------------------------------
  Sum:       -1.000000        1.668427       -1.668427       -0.000000
  
  Multipole moment analysis of the density matrix
    Molecular charge:                      -1.000000
    Number of electrons:                   26.000000
      Center of electronic charge [Ang]: [ -0.000000,   0.000000,   0.065388]
    Total nuclear charge:                  25.000000
      Center of nuclear charge [Ang]:    [  0.000000,   0.000000,  -0.000000]
    Dipole moment [D]:                     8.165894
      Cartesian components [D]:          [  0.000000,  -0.000000,  -8.165894]
    RMS size of the density [Ang]:         2.028613
      Cartesian components [Ang]:        [  1.137353,   0.633509,   1.555752]
  
  Exciton analysis of the difference density matrix
    <r_h> [Ang]:                  [  0.000000,  -0.000000,  -1.468387]
    <r_e> [Ang]:                  [ -0.000000,   0.000000,   0.229636]
    |<r_e - r_h>| [Ang]:            1.698023
    Hole size [Ang]:                1.773477
      Cartesian components [Ang]: [  0.856724,   0.874161,   1.283389]
    Electron size [Ang]:            4.621782
      Cartesian components [Ang]: [  3.371964,   1.893478,   2.530901]

  Transition density matrix analysis:
  -----------------------------------
  
  CT numbers (Mulliken)
    omega =     0.8534
    <Phe> =    -0.0021
  
  Exciton analysis of the transition density matrix
    Trans. dipole moment [D]:             0.352786
      Cartesian components [D]:         [  0.000000,   0.352786,   0.000000]
    <r_h> [Ang]:                        [ -0.000000,   0.000000,  -1.732884]
    <r_e> [Ang]:                        [ -0.000000,   0.000000,   1.187356]
    |<r_e - r_h>| [Ang]:                  2.920240
    Hole size [Ang]:                      1.114032
      Cartesian components [Ang]:       [  0.479857,   0.825474,   0.573931]
    Electron size [Ang]:                  5.579393
      Cartesian components [Ang]:       [  4.275034,   2.367021,   2.692753]
    RMS electron-hole separation [Ang]:   6.391853
      Cartesian components [Ang]:       [  4.301604,   2.504946,   4.009642]
    Covariance(r_h, r_e) [Ang^2]:         0.021357
    Correlation coefficient:              0.003436
    Center-of-mass size [Ang]:            2.846639
      Cartesian components [Ang]:       [  2.151079,   1.254357,   1.379421]

  Decomposition into state-averaged NTOs
    H- 0 -> L+ 3:  0.4249 ( 36.1%)
    H- 0 -> L+ 0:  0.3794 ( 28.8%)
    H- 0 -> L+ 5: -0.2578 ( 13.3%)
    H- 0 -> L+ 1:  0.1713 (  5.9%)
                   omega =  85.3%
  ----------------------------------------------------------------------------


--------------------------------------------------------------------------------
  Time of ADC calculation:  CPU 269.37 s  wall 66.10 s
================================================================================
 
 --------------------------------------------------------------
             Orbital Energies (a.u.) and Symmetries
 --------------------------------------------------------------
 
 Alpha MOs, Restricted
 -- Occupied --                  
-20.213 -11.049 -11.047  -0.930  -0.854  -0.598  -0.473  -0.384
  1 A1    2 A1    1 B1    3 A1    4 A1    2 B1    5 A1    6 A1                 
 -0.328  -0.271  -0.194  -0.129  -0.128
  3 B1    7 A1    1 B2    4 B1    2 B2                                         
 -- Virtual --                   
  0.046   0.048   0.049   0.049   0.051   0.062   0.080   0.087
  5 B1    1 A2    3 B2    8 A1    6 B1    9 A1    7 B1    2 A2                 
  0.089   0.089   0.092   0.100   0.134   0.150   0.152   0.152
  4 B2   10 A1    8 B1   11 A1    9 B1   12 A1   13 A1    3 A2                 
  0.154   0.163   0.218   0.230   0.258   0.268   0.280   0.292
  5 B2   10 B1   14 A1   11 B1    4 A2   15 A1   12 B1    6 B2                 
  0.328   0.358   0.390   0.429   0.450   0.469   0.473   0.530
 16 A1   17 A1    5 A2   13 B1    7 B2   18 A1   14 B1   19 A1                 
  0.537   0.580   0.617   0.650   0.691   0.826   0.959   0.990
 15 B1   20 A1   16 B1   21 A1   17 B1   22 A1   23 A1    8 B2                 
  1.054   1.055   1.084   1.132   1.183   1.199   1.203   1.216
  6 A2   24 A1   25 A1   18 B1   19 B1   20 B1    9 B2   26 A1                 
  1.288   1.291   1.331   1.331   1.370   1.467   1.468   1.483
 27 A1    7 A2   28 A1   21 B1   10 B2   11 B2   22 B1    8 A2                 
  1.562   1.643   1.691   1.719   1.849   1.927   1.962   2.030
 23 B1   29 A1   24 B1   12 B2   30 A1   25 B1   31 A1    9 A2                 
  2.123   2.123   2.140   2.191   2.212   2.283   2.356   2.393
 13 B2   32 A1   26 B1   33 A1   14 B2   34 A1   10 A2   15 B2                 
  2.435   2.473   2.551   2.604   2.720   2.748   2.847   3.008
 27 B1   28 B1   35 A1   11 A2   29 B1   36 A1   30 B1   37 A1                 
  3.036   3.086   3.454   3.562   3.921   3.945   3.970   4.087
 38 A1   39 A1   31 B1   32 B1   16 B2   12 A2   40 A1   33 B1                 
  4.536
 41 A1                                                                         
 
 Beta MOs, Restricted
 -- Occupied --                  
-20.213 -11.049 -11.047  -0.930  -0.854  -0.598  -0.473  -0.384
  1 A1    2 A1    1 B1    3 A1    4 A1    2 B1    5 A1    6 A1                 
 -0.328  -0.271  -0.194  -0.129  -0.128
  3 B1    7 A1    1 B2    4 B1    2 B2                                         
 -- Virtual --                   
  0.046   0.048   0.049   0.049   0.051   0.062   0.080   0.087
  5 B1    1 A2    3 B2    8 A1    6 B1    9 A1    7 B1    2 A2                 
  0.089   0.089   0.092   0.100   0.134   0.150   0.152   0.152
  4 B2   10 A1    8 B1   11 A1    9 B1   12 A1   13 A1    3 A2                 
  0.154   0.163   0.218   0.230   0.258   0.268   0.280   0.292
  5 B2   10 B1   14 A1   11 B1    4 A2   15 A1   12 B1    6 B2                 
  0.328   0.358   0.390   0.429   0.450   0.469   0.473   0.530
 16 A1   17 A1    5 A2   13 B1    7 B2   18 A1   14 B1   19 A1                 
  0.537   0.580   0.617   0.650   0.691   0.826   0.959   0.990
 15 B1   20 A1   16 B1   21 A1   17 B1   22 A1   23 A1    8 B2                 
  1.054   1.055   1.084   1.132   1.183   1.199   1.203   1.216
  6 A2   24 A1   25 A1   18 B1   19 B1   20 B1    9 B2   26 A1                 
  1.288   1.291   1.331   1.331   1.370   1.467   1.468   1.483
 27 A1    7 A2   28 A1   21 B1   10 B2   11 B2   22 B1    8 A2                 
  1.562   1.643   1.691   1.719   1.849   1.927   1.962   2.030
 23 B1   29 A1   24 B1   12 B2   30 A1   25 B1   31 A1    9 A2                 
  2.123   2.123   2.140   2.191   2.212   2.283   2.356   2.393
 13 B2   32 A1   26 B1   33 A1   14 B2   34 A1   10 A2   15 B2                 
  2.435   2.473   2.551   2.604   2.720   2.748   2.847   3.008
 27 B1   28 B1   35 A1   11 A2   29 B1   36 A1   30 B1   37 A1                 
  3.036   3.086   3.454   3.562   3.921   3.945   3.970   4.087
 38 A1   39 A1   31 B1   32 B1   16 B2   12 A2   40 A1   33 B1                 
  4.536
 41 A1                                                                         
 --------------------------------------------------------------
 
          Ground-State Mulliken Net Atomic Charges

     Atom                 Charge (a.u.)
  ----------------------------------------
      1 C                    -0.176868
      2 C                    -0.176868
      3 H                     0.172101
      4 H                     0.172101
      5 H                    -0.001271
      6 H                    -0.001271
      7 O                    -1.056347
      8 H                     0.068423
  ----------------------------------------
  Sum of atomic charges =    -1.000000

 -----------------------------------------------------------------
                    Cartesian Multipole Moments
 -----------------------------------------------------------------
    Charge (ESU x 10^10)
                -4.8032
    Dipole Moment (Debye)
         X      -0.0000      Y      -0.0000      Z       5.2719
       Tot       5.2719
    Quadrupole Moments (Debye-Ang)
        XX     -23.6944     XY       0.0000     YY     -26.5375
        XZ      -0.0000     YZ      -0.0000     ZZ     -32.8572
    Octopole Moments (Debye-Ang^2)
       XXX      -0.0000    XXY       0.0000    XYY      -0.0000
       YYY      -0.0000    XXZ       0.9898    XYZ      -0.0000
       YYZ      -0.1035    XZZ      -0.0000    YZZ      -0.0000
       ZZZ       6.0049
    Hexadecapole Moments (Debye-Ang^3)
      XXXX     -90.9127   XXXY       0.0000   XXYY     -23.4353
      XYYY       0.0000   YYYY     -47.1656   XXXZ       0.0000
      XXYZ       0.0000   XYYZ      -0.0000   YYYZ      -0.0000
      XXZZ     -71.8638   XYZZ      -0.0000   YYZZ     -67.1783
      XZZZ       0.0000   YZZZ      -0.0000   ZZZZ    -295.7113
 -----------------------------------------------------------------
 Total job time:  175.88s(wall), 321.19s(cpu) 
 Fri Mar  4 16:16:53 2022

        *************************************************************
        *                                                           *
        *  Thank you very much for using Q-Chem.  Have a nice day.  *
        *                                                           *
        *************************************************************


