/src/tsommerfeld/qchem/exe/qcprog.exe .input1.739394.12664.qcin.1 /src/jdavis/qchem.scratch/qchem12664/

                  Welcome to Q-Chem
     A Quantum Leap Into The Future Of Chemistry


 Q-Chem 5.4 (devel), Q-Chem, Inc., Pleasanton, CA (2021)

 E. Epifanovsky,  A. T. B. Gilbert,  Xintian Feng,  Joonho Lee,  Yuezhi Mao,  
 N. Mardirossian,  P. Pokhilko,  A. White,  M. Wormit,  M. P. Coons,  
 A. L. Dempwolff,  Zhengting Gan,  D. Hait,  P. R. Horn,  L. D. Jacobson,  
 I. Kaliman,  J. Kussmann,  A. W. Lange,  Ka Un Lao,  D. S. Levine,  Jie Liu,  
 S. C. McKenzie,  A. F. Morrison,  K. Nanda,  F. Plasser,  D. R. Rehn,  
 M. L. Vidal,  Zhi-Qiang You,  Ying Zhu,  B. Alam,  B. Albrecht,  
 A. Aldossary,  E. Alguire,  J. H. Andersen,  D. Barton,  K. Begam,  A. Behn,  
 Y. A. Bernard,  E. J. Berquist,  H. Burton,  A. Carreras,  K. Carter-Fenk,  
 R. Chakraborty,  A. D. Chien,  K. D. Closser,  V. Cofer-Shabica,  
 S. Dasgupta,  Jia Deng,  M. de Wergifosse,  M. Diedenhofen,  Hainam Do,  
 S. Ehlert,  Po-Tung Fang,  S. Fatehi,  Qingguo Feng,  T. Friedhoff,  
 J. Gayvert,  Qinghui Ge,  G. Gidofalvi,  M. Goldey,  J. Gomes,  
 C. Gonzalez-Espinoza,  S. Gulania,  A. Gunina,  M. W. D. Hanson-Heine,  
 P. H. P. Harbach,  A. W. Hauser,  M. F. Herbst,  M. Hernandez Vera,  
 M. Hodecker,  Z. C. Holden,  S. Houck,  Xunkun Huang,  Kerwin Hui,  
 B. C. Huynh,  M. Ivanov,  Hyunjun Ji,  Hanjie Jiang,  B. Kaduk,  S. Kaehler,  
 K. Khistyaev,  Jaehoon Kim,  P. Klunzinger,  Z. Koczor-Benda,  
 Joong Hoon Koh,  D. Kosenkov,  L. Koulias,  T. Kowalczyk,  C. M. Krauter,  
 K. Kue,  A. Kunitsa,  T. Kus,  A. Landau,  K. V. Lawler,  D. Lefrancois,  
 S. Lehtola,  Rain Li,  Yi-Pei Li,  Jiashu Liang,  M. Liebenthal,  
 Hung-Hsuan Lin,  You-Sheng Lin,  Fenglai Liu,  Kuan-Yu Liu,  
 M. Loipersberger,  A. Luenser,  A. Manjanath,  P. Manohar,  E. Mansoor,  
 S. F. Manzer,  Shan-Ping Mao,  A. V. Marenich,  T. Markovich,  S. Mason,  
 S. A. Maurer,  P. F. McLaughlin,  M. F. S. J. Menger,  J.-M. Mewes,  
 S. A. Mewes,  P. Morgante,  J. W. Mullinax,  K. J. Oosterbaan,  G. Paran,  
 Alexander C. Paul,  Suranjan K. Paul,  F. Pavosevic,  Zheng Pei,  S. Prager,  
 E. I. Proynov,  E. Ramos,  B. Rana,  A. E. Rask,  A. Rettig,  R. M. Richard,  
 F. Rob,  E. Rossomme,  T. Scheele,  M. Scheurer,  M. Schneider,  
 N. Sergueev,  S. M. Sharada,  W. Skomorowski,  D. W. Small,  C. J. Stein,  
 Yu-Chuan Su,  E. J. Sundstrom,  Zhen Tao,  J. Thirman,  T. Tsuchimochi,  
 N. M. Tubman,  S. P. Veccham,  O. Vydrov,  J. Wenzel,  J. Witte,  A. Yamada,  
 Kun Yao,  S. Yeganeh,  S. R. Yost,  A. Zech,  Igor Ying Zhang,  Xing Zhang,  
 Yu Zhang,  D. Zuev,  A. Aspuru-Guzik,  A. T. Bell,  N. A. Besley,  
 K. B. Bravaya,  B. R. Brooks,  D. Casanova,  Jeng-Da Chai,  S. Coriani,  
 C. J. Cramer,  A. E. DePrince, III,  R. A. DiStasio Jr.,  A. Dreuw,  
 B. D. Dunietz,  T. R. Furlani,  W. A. Goddard III,  S. Grimme,  
 S. Hammes-Schiffer,  T. Head-Gordon,  W. J. Hehre,  Chao-Ping Hsu,  
 T.-C. Jagau,  Yousung Jung,  A. Klamt,  Jing Kong,  D. S. Lambrecht,  
 WanZhen Liang,  N. J. Mayhall,  C. W. McCurdy,  J. B. Neaton,  
 C. Ochsenfeld,  J. A. Parkhill,  R. Peverati,  V. A. Rassolov,  Yihan Shao,  
 L. V. Slipchenko,  T. Stauch,  R. P. Steele,  J. E. Subotnik,  
 A. J. W. Thom,  A. Tkatchenko,  D. G. Truhlar,  T. Van Voorhis,  
 T. A. Wesolowski,  K. B. Whaley,  H. L. Woodcock III,  P. M. Zimmerman,  
 S. Faraji,  P. M. W. Gill,  M. Head-Gordon,  J. M. Herbert,  A. I. Krylov

 Additional authors for Version 5.4.1: 
 S. Kotaru,  Shaozhi Li,  Xiangyuan Li,  F. Matz,  A. Molle,  Haisheng Ren,  
 Yingli Su,  Hung-Yi Tsai,  C. Utku,  Fang Wang

 Contributors to earlier versions of Q-Chem not listed above: 
 R. D. Adamson,  B. Austin,  R. Baer,  J. Baker,  G. J. O. Beran,  
 K. Brandhorst,  S. T. Brown,  E. F. C. Byrd,  A. K. Chakraborty,  
 G. K. L. Chan,  Chun-Min Chang,  Yunqing Chen,  C.-L. Cheng,  
 Siu Hung Chien,  D. M. Chipman,  D. L. Crittenden,  H. Dachsel,  
 R. J. Doerksen,  A. D. Dutoi,  R. G. Edgar,  J. Fosso-Tande,  
 L. Fusti-Molnar,  D. Ghosh,  A. Ghysels,  A. Golubeva-Zadorozhnaya,  
 J. Gonthier,  M. S. Gordon,  S. R. Gwaltney,  G. Hawkins,  J. E. Herr,  
 A. Heyden,  S. Hirata,  E. G. Hohenstein,  G. Kedziora,  F. J. Keil,  
 C. Kelley,  Jihan Kim,  R. A. King,  R. Z. Khaliullin,  P. P. Korambath,  
 W. Kurlancheek,  A. Laurent,  A. M. Lee,  M. S. Lee,  S. V. Levchenko,  
 Ching Yeh Lin,  D. Liotard,  E. Livshits,  R. C. Lochan,  I. Lotan,  
 L. A. Martinez-Martinez,  P. E. Maslen,  N. Nair,  D. P. O'Neill,  
 D. Neuhauser,  E. Neuscamman,  C. M. Oana,  R. Olivares-Amaya,  R. Olson,  
 T. M. Perrine,  B. Peters,  P. A. Pieniazek,  A. Prociuk,  Y. M. Rhee,  
 J. Ritchie,  M. A. Rohrdanz,  E. Rosta,  N. J. Russ,  H. F. Schaefer III,  
 M. W. Schmidt,  N. E. Schultz,  S. Sharma,  N. Shenvi,  C. D. Sherrill,  
 A. C. Simmonett,  A. Sodt,  T. Stein,  D. Stuck,  K. S. Thanthiriwatte,  
 V. Vanovschi,  L. Vogt,  Tao Wang,  A. Warshel,  M. A. Watson,  
 C. F. Williams,  Q. Wu,  X. Xu,  Jun Yang,  W. Zhang,  Yan Zhao

 Please cite Q-Chem as follows:
 Y. Shao et al., Mol. Phys. 113, 184-215 (2015)
 DOI: 10.1080/00268976.2014.952696

 Q-Chem 5.4.1 for Intel X86 EM64T Linux

 Parts of Q-Chem use Armadillo 9.900.5 (Nocturnal Misbehaviour).
 http://arma.sourceforge.net/

 Q-Chem begins on Fri Mar  4 17:33:51 2022  

 Host: node01
0

     Scratch files written to /src/jdavis/qchem.scratch/qchem12664//
 Processing $rem in /src/tsommerfeld/qchem/config/preferences:
 Processing $rem in /home/jdavis/.qchemrc:

 Checking the input file for inconsistencies... 	...done.

--------------------------------------------------------------
User input:
--------------------------------------------------------------
$molecule
-1 1
C        -0.6645000000    0.0000000000    1.1619088658
C         0.6645000000    0.0000000000    1.1619088658
H        -1.1590800000    0.0000000000    0.1995598658
H         1.1590800000    0.0000000000    0.1995598658
H        -1.1590800000    0.0000000000    2.1242568658
H         1.1590800000    0.0000000000    2.1242568658
O         0.0000000000    0.0000000000   -1.5841414040
H         0.0000000000    0.0000000000   -2.5471307683
$end
$rem
   METHOD adc(2)
   BASIS gen
   PURECART 11
   EE_STATES [0,0,0,10]
   scf_convergence 8
   ADC_DAVIDSON_MAXITER 120
   ADC_DAVIDSON_MAXSUBSPACE 200
   adc_nguess_singles 100
   THRESH 14
   S2THRESH 14
   adc_davidson_conv 5
   adc_davidson_thresh 14
   THREADS 10
   MEM_TOTAL 95000
   STATE_ANALYSIS TRUE
$end
$basis
C 1
S   9   1.00
      6.665000D+03           6.920000D-04
      1.000000D+03           5.329000D-03
      2.280000D+02           2.707700D-02
      6.471000D+01           1.017180D-01
      2.106000D+01           2.747400D-01
      7.495000D+00           4.485640D-01
      2.797000D+00           2.850740D-01
      5.215000D-01           1.520400D-02
      1.596000D-01          -3.191000D-03
S   9   1.00
      6.665000D+03          -1.460000D-04
      1.000000D+03          -1.154000D-03
      2.280000D+02          -5.725000D-03
      6.471000D+01          -2.331200D-02
      2.106000D+01          -6.395500D-02
      7.495000D+00          -1.499810D-01
      2.797000D+00          -1.272620D-01
      5.215000D-01           5.445290D-01
      1.596000D-01           5.804960D-01
S   1   1.00
      1.596000D-01           1.000000D+00
S   1   1.00
      0.0469000              1.0000000
P   4   1.00
      9.439000D+00           3.810900D-02
      2.002000D+00           2.094800D-01
      5.456000D-01           5.085570D-01
      1.517000D-01           4.688420D-01
P   1   1.00
      1.517000D-01           1.000000D+00
P   1   1.00
      0.0753903      1.0000000
P   1   1.00
      0.0376952      1.0000000
P   1   1.00
      0.0188476      1.0000000
P   1   1.00
      0.0094238      1.0000000
D   1   1.00
      5.500000D-01           1.0000000
****
C 2
S   9   1.00
      6.665000D+03           6.920000D-04
      1.000000D+03           5.329000D-03
      2.280000D+02           2.707700D-02
      6.471000D+01           1.017180D-01
      2.106000D+01           2.747400D-01
      7.495000D+00           4.485640D-01
      2.797000D+00           2.850740D-01
      5.215000D-01           1.520400D-02
      1.596000D-01          -3.191000D-03
S   9   1.00
      6.665000D+03          -1.460000D-04
      1.000000D+03          -1.154000D-03
      2.280000D+02          -5.725000D-03
      6.471000D+01          -2.331200D-02
      2.106000D+01          -6.395500D-02
      7.495000D+00          -1.499810D-01
      2.797000D+00          -1.272620D-01
      5.215000D-01           5.445290D-01
      1.596000D-01           5.804960D-01
S   1   1.00
      1.596000D-01           1.000000D+00
S   1   1.00
      0.0469000              1.0000000
P   4   1.00
      9.439000D+00           3.810900D-02
      2.002000D+00           2.094800D-01
      5.456000D-01           5.085570D-01
      1.517000D-01           4.688420D-01
P   1   1.00
      1.517000D-01           1.000000D+00
P   1   1.00
      0.0753903      1.0000000
P   1   1.00
      0.0376952      1.0000000
P   1   1.00
      0.0188476      1.0000000
P   1   1.00
      0.0094238      1.0000000
D   1   1.00
      5.500000D-01           1.0000000
****
H 3
cc-pVDZ
****
H 4
cc-pVDZ
****
H 5
cc-pVDZ
****
H 6
cc-pVDZ
****
O 7
aug-cc-pVDZ
****
H 8
cc-pVDZ
****
$end
--------------------------------------------------------------
 ----------------------------------------------------------------
             Standard Nuclear Orientation (Angstroms)
    I     Atom           X                Y                Z
 ----------------------------------------------------------------
    1      C      -0.6645000000    -0.0000000000     1.0270977517
    2      C       0.6645000000     0.0000000000     1.0270977517
    3      H      -1.1590800000    -0.0000000000     0.0647487517
    4      H       1.1590800000     0.0000000000     0.0647487517
    5      H      -1.1590800000    -0.0000000000     1.9894457517
    6      H       1.1590800000     0.0000000000     1.9894457517
    7      O       0.0000000000    -0.0000000000    -1.7189525181
    8      H       0.0000000000    -0.0000000000    -2.6819418824
 ----------------------------------------------------------------
 Molecular Point Group                 C2v   NOp =  4
 Largest Abelian Subgroup              C2v   NOp =  4
 Nuclear Repulsion Energy =          64.38561153 hartrees
 There are       13 alpha and       13 beta electrons
 Requested basis set is non-standard
 There are 46 shells and 102 basis functions
 Total memory of 95000 MB is distributed as follows: 
   MEM_STATIC is set to 192 MB
   QALLOC/CCMAN JOB total memory use is  94808 MB
 Warning: actual memory use might exceed 95000 MB

 Total QAlloc Memory Limit  95000 MB
 Mega-Array Size       188 MB
 MEM_STATIC part       192 MB

                       Distance Matrix (Angstroms)
             C (  1)   C (  2)   H (  3)   H (  4)   H (  5)   H (  6)
   C (  2)  1.329000
   H (  3)  1.082000  2.061931
   H (  4)  2.061931  1.082000  2.318160
   H (  5)  1.082000  2.061931  1.924697  3.013026
   H (  6)  2.061931  1.082000  3.013026  1.924697  2.318160
   O (  7)  2.825306  2.825306  2.127218  2.127218  3.885316  3.885316
   H (  8)  3.768094  3.768094  2.981237  2.981237  4.813037  4.813037
             O (  7)
   H (  8)  0.962989
 
 A cutoff of  1.0D-14 yielded   1081 shell pairs
 There are      5353 function pairs (      5791 Cartesian)
 Smallest overlap matrix eigenvalue = 1.62E-04

 Scale SEOQF with 1.000000e-01/1.000000e-01/1.000000e-01

 Standard Electronic Orientation quadrupole field applied
 Nucleus-field energy     =    -0.0000000051 hartrees
 ================ Generating on-the-fly SAD Guess ================
Attempting to make child job directory: /src/jdavis/qchem.scratch/qchem12664//Frg1/
Attempting to make child job directory: /src/jdavis/qchem.scratch/qchem12664//Frg2/
Attempting to make child job directory: /src/jdavis/qchem.scratch/qchem12664//Frg3/
Creating input file /src/jdavis/qchem.scratch/qchem12664/Frg1.input
using default PutDataFrgm: nothing
calling putenv with: QCSCRATCH=/src/jdavis/qchem.scratch/qchem12664/ 
Spawning Job For Fragment 0
Done Job For Fragment 0
calling putenv with: QCSCRATCH=/src/jdavis/qchem.scratch 
calling putenv with: QCTHREADS=1 
Creating input file /src/jdavis/qchem.scratch/qchem12664/Frg2.input
using default PutDataFrgm: nothing
calling putenv with: QCSCRATCH=/src/jdavis/qchem.scratch/qchem12664/ 
Spawning Job For Fragment 1
Done Job For Fragment 1
calling putenv with: QCSCRATCH=/src/jdavis/qchem.scratch 
calling putenv with: QCTHREADS=1 
Creating input file /src/jdavis/qchem.scratch/qchem12664/Frg3.input
using default PutDataFrgm: nothing
calling putenv with: QCSCRATCH=/src/jdavis/qchem.scratch/qchem12664/ 
Spawning Job For Fragment 2
Done Job For Fragment 2
calling putenv with: QCSCRATCH=/src/jdavis/qchem.scratch 
calling putenv with: QCTHREADS=1 
 Time for running child jobs:  CPU 1.76 s  wall 80.91 s
 ============= Method Specific SAD Guess Constructed =============
 Guess from on-the-fly superposition of atomic densities
 Warning: Energy on first SCF cycle will be non-variational
 A restricted Hartree-Fock SCF calculation will be
 performed using Pulay DIIS extrapolation
 SCF converges when DIIS error is below 1.0E-08
 using 10 threads for integral computing
 -------------------------------------------------------
 OpenMP Integral computing Module                
 Release: version 1.0, May 2013, Q-Chem Inc. Pittsburgh 
 -------------------------------------------------------
 ---------------------------------------
  Cycle       Energy         DIIS Error
 ---------------------------------------
    1    -153.5756946797      5.28E-02
    2    -153.2900413175      1.08E-02
    3    -153.3530976267      9.17E-03
    4    -153.4404484277      6.92E-04
    5    -153.4414342512      1.89E-04
    6    -153.4415120329      4.15E-05
    7    -153.4415177632      1.11E-05
    8    -153.4415183692      3.34E-06
    9    -153.4415184205      6.39E-07
   10    -153.4415184222      1.17E-07
   11    -153.4415184223      3.82E-08
   12    -153.4415184223      1.26E-08
   13    -153.4415184223      2.45E-09 Convergence criterion met
 ---------------------------------------
 SCF time:  CPU 17.39 s  wall 1.75 s
 SCF   energy in the final basis set = -153.44151842
 Total energy in the final basis set = -153.44151842
================================================================================
|                                                                              |
|                                 A D C  M A N                                 |
|                                                                              |
 ------------------------------------------------------------------------------ 
|                                                                              |
| Components:                                                                  |
|                                                                              |
| - libvmm - 1.3-trunk                                                         |
|   Authors:                                                                   |
|   Evgeny Epifanovsky, Ilya Kaliman                                           |
|                                                                              |
| - libtensor - 2.5-trunk                                                      |
|   Authors:                                                                   |
|   Evgeny Epifanovsky, Michael Wormit, Dmitry Zuev, Sam Manzer,               |
|   Ilya Kaliman                                                               |
|                                                                              |
| - libwfa - 1.1-trunk                                                         |
|   Authors:                                                                   |
|   Felix Plasser, Stefanie Mewes (Baeppler), Benjamin Thomitzni,              |
|   Michael Wormit, Feng Chen, Anna I. Krylov, Pavel Pokhilko                  |
|                                                                              |
| - libadc - 1.1-trunk                                                         |
|   Authors:                                                                   |
|   Michael Wormit, Adrian L. Dempwolff, Philipp H. P. Harbach,                |
|   Caroline Krauter, Dirk Rehn, Matthias Schneider, Jan Wenzel                |
|                                                                              |
| - adcman - 2.6-trunk                                                         |
|   Authors:                                                                   |
|   Michael Wormit, Adrian L. Dempwolff, Philipp H. P. Harbach,                |
|   Caroline Krauter, Daniel Lefrancois, Jan-Michael Mewes, Dirk Rehn,         |
|   Matthias Schneider, Jan Wenzel, Andreas Dreuw                              |
|                                                                              |
| Authors of earlier versions of ADCMAN:                                       |
| Andreas Dreuw, Jan Hendrik Starcke, Dirk Rehn, Michael Wormit                |
|                                                                              |
================================================================================

 
 Alpha MOs, Restricted
 -- Occupied --                  
-20.213 -11.049 -11.047  -0.930  -0.854  -0.598  -0.473  -0.384
  1 A1    2 A1    1 B1    3 A1    4 A1    2 B1    5 A1    6 A1                 
 -0.328  -0.271  -0.194  -0.130  -0.129
  3 B1    7 A1    1 B2    4 B1    2 B2                                         
 -- Virtual --                   
  0.081   0.089   0.090   0.090   0.097   0.109   0.149   0.155
  5 B1    3 B2    8 A1    1 A2    6 B1    9 A1    7 B1   10 A1                 
  0.166   0.167   0.169   0.184   0.239   0.265   0.276   0.290
  4 B2   11 A1    2 A2    8 B1   12 A1    9 B1    3 A2   13 A1                 
  0.300   0.309   0.332   0.344   0.378   0.378   0.449   0.469
  5 B2   10 B1   14 A1   15 A1   11 B1    4 A2    6 B2   16 A1                 
  0.476   0.507   0.529   0.540   0.544   0.580   0.585   0.597
 12 B1   17 A1   13 B1   18 A1   14 B1   19 A1    7 B2   15 B1                 
  0.632   0.642   0.705   0.731   0.799   1.010   1.050   1.131
 20 A1    5 A2   21 A1   16 B1   17 B1   22 A1   23 A1   18 B1                 
  1.140   1.192   1.200   1.224   1.291   1.293   1.314   1.337
 24 A1   25 A1    8 B2   19 B1    6 A2   26 A1   20 B1   27 A1                 
  1.345   1.346   1.346   1.372   1.372   1.479   1.483   1.524
 21 B1   28 A1    9 B2   10 B2    7 A2   11 B2    8 A2   22 B1                 
  1.660   1.670   1.719   1.764   1.878   1.952   2.034   2.067
 23 B1   29 A1   12 B2   24 B1   30 A1   25 B1   31 A1    9 A2                 
  2.132   2.162   2.182   2.213   2.268   2.343   2.369   2.395
 13 B2   32 A1   26 B1   14 B2   33 A1   34 A1   10 A2   15 B2                 
  2.441   2.530   2.580   2.604   2.772   2.774   2.854   3.052
 27 B1   28 B1   35 A1   11 A2   36 A1   29 B1   30 B1   37 A1                 
  3.074   3.126   3.482   3.570   3.923   3.946   3.972   4.090
 38 A1   39 A1   31 B1   32 B1   16 B2   12 A2   40 A1   33 B1                 
  4.546
 41 A1                                                                         
 
 Beta MOs, Restricted
 -- Occupied --                  
-20.213 -11.049 -11.047  -0.930  -0.854  -0.598  -0.473  -0.384
  1 A1    2 A1    1 B1    3 A1    4 A1    2 B1    5 A1    6 A1                 
 -0.328  -0.271  -0.194  -0.130  -0.129
  3 B1    7 A1    1 B2    4 B1    2 B2                                         
 -- Virtual --                   
  0.081   0.089   0.090   0.090   0.097   0.109   0.149   0.155
  5 B1    3 B2    8 A1    1 A2    6 B1    9 A1    7 B1   10 A1                 
  0.166   0.167   0.169   0.184   0.239   0.265   0.276   0.290
  4 B2   11 A1    2 A2    8 B1   12 A1    9 B1    3 A2   13 A1                 
  0.300   0.309   0.332   0.344   0.378   0.378   0.449   0.469
  5 B2   10 B1   14 A1   15 A1   11 B1    4 A2    6 B2   16 A1                 
  0.476   0.507   0.529   0.540   0.544   0.580   0.585   0.597
 12 B1   17 A1   13 B1   18 A1   14 B1   19 A1    7 B2   15 B1                 
  0.632   0.642   0.705   0.731   0.799   1.010   1.050   1.131
 20 A1    5 A2   21 A1   16 B1   17 B1   22 A1   23 A1   18 B1                 
  1.140   1.192   1.200   1.224   1.291   1.293   1.314   1.337
 24 A1   25 A1    8 B2   19 B1    6 A2   26 A1   20 B1   27 A1                 
  1.345   1.346   1.346   1.372   1.372   1.479   1.483   1.524
 21 B1   28 A1    9 B2   10 B2    7 A2   11 B2    8 A2   22 B1                 
  1.660   1.670   1.719   1.764   1.878   1.952   2.034   2.067
 23 B1   29 A1   12 B2   24 B1   30 A1   25 B1   31 A1    9 A2                 
  2.132   2.162   2.182   2.213   2.268   2.343   2.369   2.395
 13 B2   32 A1   26 B1   14 B2   33 A1   34 A1   10 A2   15 B2                 
  2.441   2.530   2.580   2.604   2.772   2.774   2.854   3.052
 27 B1   28 B1   35 A1   11 A2   36 A1   29 B1   30 B1   37 A1                 
  3.074   3.126   3.482   3.570   3.923   3.946   3.972   4.090
 38 A1   39 A1   31 B1   32 B1   16 B2   12 A2   40 A1   33 B1                 
  4.546
 41 A1                                                                         

--------------------------------------------------------------------------------
                                   HF Summary                                   
--------------------------------------------------------------------------------
  Energy:                                                 -153.4415184223 a.u.
  Dip. moment [a.u.]:                  [  -0.000000,    0.000000,    2.079684]
  Total dipole [Debye]:                                               5.286030
  <r^2> [a.u.]:                        [  55.707713,   19.718690,  208.063882]
  Total <r^2> [a.u.]:                                               283.490285
--------------------------------------------------------------------------------

--------------------------------------------------------------------------------
                                 MP(2) Summary                                  
--------------------------------------------------------------------------------
  MP energy contribution:                                   -0.5298061646 a.u.
  Total energy:                                           -153.9713245869 a.u.
  Dip. moment [a.u.]:                  [   0.000000,    0.000000,    2.150016]
  Total dipole [Debye]:                                               5.464796
  <r^2> [a.u.]:                        [  56.710201,   20.420170,  209.359750]
  Total <r^2> [a.u.]:                                               286.490121

  Density matrix analysis:
  ------------------------
  NOs
    Occupation of frontier NOs:
       0.0447   1.9355
    Number of electrons: 26.000000
    Number of unpaired electrons: n_u =  0.71591, n_u,nl =  0.08551
    NO participation ratio (PR_NO): 23.013926
  
  
  Mulliken Population Analysis
  Atom      Charge (e)              h+              e-           Del q
  --------------------------------------------------------------------
   1 C       -0.240161        0.094572       -0.098350       -0.003777
   2 C       -0.240161        0.094572       -0.098350       -0.003777
   3 H        0.211190        0.017413       -0.011558        0.005854
   4 H        0.211190        0.017413       -0.011558        0.005854
   5 H        0.040307        0.019101       -0.012304        0.006797
   6 H        0.040307        0.019101       -0.012304        0.006797
   7 O       -1.076889        0.278872       -0.279574       -0.000702
   8 H        0.054217        0.015194       -0.032240       -0.017047
  --------------------------------------------------------------------
  Sum:       -1.000000        0.556238       -0.556238        0.000000
  
  Multipole moment analysis of the density matrix
    Molecular charge:                      -1.000000
    Number of electrons:                   26.000000
      Center of electronic charge [Ang]: [ -0.000000,  -0.000000,  -0.043759]
    Total nuclear charge:                  25.000000
      Center of nuclear charge [Ang]:    [  0.000000,   0.000000,  -0.000000]
    Dipole moment [D]:                     5.464794
      Cartesian components [D]:          [  0.000000,   0.000000,   5.464794]
    RMS size of the density [Ang]:         1.756040
      Cartesian components [Ang]:        [  0.781529,   0.468969,   1.500986]
  
  Exciton analysis of the difference density matrix
    <r_h> [Ang]:                  [ -0.000000,  -0.000000,  -0.483182]
    <r_e> [Ang]:                  [ -0.000000,  -0.000000,  -0.550092]
    |<r_e - r_h>| [Ang]:            0.066910
    Hole size [Ang]:                1.975058
      Cartesian components [Ang]: [  0.893993,   0.762812,   1.587371]
    Electron size [Ang]:            2.311262
      Cartesian components [Ang]: [  1.141888,   0.966970,   1.761531]
--------------------------------------------------------------------------------
  Starting Davidson for singlet states of irrep B2 ... 
--------------------------------------------------------------------------------
   It NVec Conv  Avg. Norm  Max. Norm  Conv. states           Remark
--------------------------------------------------------------------------------
       100    0  1.499e-01  5.276e-01  0.2127 n n n n n n n n Guess.
    1  110    0  1.532e-02  7.690e-02  0.0381 n n n n n n n n 
    2  120    0  1.121e-02  1.026e-01  0.0368 n n n n n n n n 
    3  130    0  1.653e-02  1.640e-01  0.0368 n n n n n n n n 
    4  140    0  4.602e-03  4.456e-02  0.0368 n n n n n n n n 
    5  150    3  1.570e-03  1.380e-02  0.0368 y y y n n n n n 
    6  160    5  1.461e-03  1.447e-02  0.0368 y y y y y n n n 
    7  170    7  2.093e-04  2.073e-03  0.0368 y y y y y y y n 
    8  180    8  3.517e-05  3.495e-04  0.0368 y y y y y y y n 
    9  190    9  5.878e-06  5.852e-05  0.0368 y y y y y y y y 
   10  200    9  1.005e-06  1.001e-05  0.0368 y y y y y y y y 
   11   20   10  1.703e-07  1.696e-06  0.0368 y y y y y y y y Converged.
--------------------------------------------------------------------------------
  Davidson Summary: 
 ------------------------------------------------------------
  State  0: excitation energy =   0.0368 a.u.   (converged)
  State  1: excitation energy =   0.0466 a.u.   (converged)
  State  2: excitation energy =   0.0526 a.u.   (converged)
  State  3: excitation energy =   0.0851 a.u.   (converged)
  State  4: excitation energy =   0.0888 a.u.   (converged)
  State  5: excitation energy =   0.0997 a.u.   (converged)
  State  6: excitation energy =   0.1387 a.u.   (converged)
  State  7: excitation energy =   0.1522 a.u.   (converged)
  State  8: excitation energy =   0.1662 a.u.   (converged)
  State  9: excitation energy =   0.1903 a.u.   (converged)
 ------------------------------------------------------------


--------------------------------------------------------------------------------
                   State-averaged natural transition orbitals
--------------------------------------------------------------------------------
--------------------------------------------------------------------------------

--------------------------------------------------------------------------------
                             Excited State Summary
--------------------------------------------------------------------------------
--------------------------------------------------------------------------------

  Excited state 1 (singlet, B2)                                    [converged]
  ----------------------------------------------------------------------------
  Term symbol:  1 (1) B2                                    R^2 =  2.65666e-11

  Total energy:                                           -153.9345569840 a.u.
  Excitation energy:                                               1.000497 eV

  Osc. strength:                                                      0.001779
  Trans. dip. moment [a.u.]:           [  -0.000000,   -0.269390,    0.000000]
  <i|r^2|0> [a.u.]:                    [  -0.000000,   -0.000000,   -0.000000]

  Dip. moment [a.u.]:                  [   0.000000,    0.000000,   -2.664295]
  Total dipole [Debye]:                                               6.771963
  <r^2> [a.u.]:                        [  96.828817,   58.866066,  322.936127]
  Total <r^2> [a.u.]:                                               478.631009

  V1^2 = 0.8634, V2^2 = 0.1366

  Important amplitudes:
      occ i      occ j       vir a       vir b          v   
    ---------------------------------------------------------
     2 (B2) A               8 (A1) A                 -0.5992
     2 (B2) A               9 (A1) A                  0.2034
    ---------------------------------------------------------

  Density matrix analysis:
  ------------------------
  NOs
    Occupation of frontier NOs:
       0.9597   0.9996
    Number of electrons: 26.000000
    Number of unpaired electrons: n_u =  2.75344, n_u,nl =  2.11764
    NO participation ratio (PR_NO):  3.883422
  
  
  Mulliken Population Analysis
  Atom      Charge (e)              h+              e-           Del q
  --------------------------------------------------------------------
   1 C       -0.743371        0.033821       -0.537030       -0.503210
   2 C       -0.743371        0.033821       -0.537030       -0.503210
   3 H        0.173054       -0.000912       -0.037224       -0.038136
   4 H        0.173054       -0.000912       -0.037224       -0.038136
   5 H        0.076400        0.036546       -0.000453        0.036093
   6 H        0.076400        0.036546       -0.000453        0.036093
   7 O       -0.191723        1.417517       -0.532350        0.885167
   8 H        0.179555        0.147382       -0.022044        0.125338
  --------------------------------------------------------------------
  Sum:       -1.000000        1.703809       -1.703809       -0.000000
  
  Multipole moment analysis of the density matrix
    Molecular charge:                      -1.000000
    Number of electrons:                   26.000000
      Center of electronic charge [Ang]: [ -0.000000,  -0.000000,   0.054226]
    Total nuclear charge:                  25.000000
      Center of nuclear charge [Ang]:    [  0.000000,   0.000000,  -0.000000]
    Dipole moment [D]:                     6.771961
      Cartesian components [D]:          [  0.000000,   0.000000,  -6.771961]
    RMS size of the density [Ang]:         2.269818
      Cartesian components [Ang]:        [  1.021214,   0.796245,   1.864185]
  
  Exciton analysis of the difference density matrix
    <r_h> [Ang]:                  [ -0.000000,  -0.000000,  -1.495762]
    <r_e> [Ang]:                  [ -0.000000,  -0.000000,  -0.000510]
    |<r_e - r_h>| [Ang]:            1.495252
    Hole size [Ang]:                1.804341
      Cartesian components [Ang]: [  0.862878,   0.896802,   1.306458]
    Electron size [Ang]:            6.088691
      Cartesian components [Ang]: [  2.708917,   2.668896,   4.755094]

  Transition density matrix analysis:
  -----------------------------------
  
  CT numbers (Mulliken)
    omega =     0.8489
    <Phe> =    -0.0004
  
  Exciton analysis of the transition density matrix
    Trans. dipole moment [D]:             0.342360
      Cartesian components [D]:         [ -0.000000,  -0.342360,   0.000000]
    <r_h> [Ang]:                        [ -0.000000,  -0.000000,  -1.746708]
    <r_e> [Ang]:                        [ -0.000000,  -0.000000,   0.861646]
    |<r_e - r_h>| [Ang]:                  2.608355
    Hole size [Ang]:                      1.096874
      Cartesian components [Ang]:       [  0.479187,   0.827646,   0.537135]
    Electron size [Ang]:                  7.678860
      Cartesian components [Ang]:       [  3.447734,   3.421472,   5.947398]
    RMS electron-hole separation [Ang]:   8.182968
      Cartesian components [Ang]:       [  3.480746,   3.519918,   6.515793]
    Covariance(r_h, r_e) [Ang^2]:         0.005283
    Correlation coefficient:              0.000627
    Center-of-mass size [Ang]:            3.878743
      Cartesian components [Ang]:       [  1.740502,   1.760193,   2.986138]

  Decomposition into state-averaged NTOs
    H- 0 -> L+ 7: -0.3985 ( 31.8%)
    H- 0 -> L+ 4: -0.3496 ( 24.4%)
    H- 0 -> L+ 6:  0.3099 ( 19.2%)
    H- 0 -> L+ 0:  0.1549 (  4.8%)
    H- 0 -> L+ 1:  0.1528 (  4.7%)
                   omega =  84.9%
  ----------------------------------------------------------------------------


  Excited state 2 (singlet, B2)                                    [converged]
  ----------------------------------------------------------------------------
  Term symbol:  2 (1) B2                                    R^2 =  3.55511e-11

  Total energy:                                           -153.9247097209 a.u.
  Excitation energy:                                               1.268455 eV

  Osc. strength:                                                      0.000361
  Trans. dip. moment [a.u.]:           [  -0.000000,    0.107754,   -0.000000]
  <i|r^2|0> [a.u.]:                    [   0.000000,    0.000000,    0.000000]

  Dip. moment [a.u.]:                  [   0.000000,    0.000000,   -2.891326]
  Total dipole [Debye]:                                               7.349020
  <r^2> [a.u.]:                        [ 164.166611,  128.555818,  234.216302]
  Total <r^2> [a.u.]:                                               526.938731

  V1^2 = 0.8599, V2^2 = 0.1401

  Important amplitudes:
      occ i      occ j       vir a       vir b          v   
    ---------------------------------------------------------
     4 (B1) A               1 (A2) A                  0.6483
     4 (B1) A               2 (A2) A                 -0.0956
    ---------------------------------------------------------

  Density matrix analysis:
  ------------------------
  NOs
    Occupation of frontier NOs:
       0.9592   0.9997
    Number of electrons: 26.000000
    Number of unpaired electrons: n_u =  2.75661, n_u,nl =  2.11866
    NO participation ratio (PR_NO):  3.893474
  
  
  Mulliken Population Analysis
  Atom      Charge (e)              h+              e-           Del q
  --------------------------------------------------------------------
   1 C       -0.733134        0.044674       -0.537647       -0.492972
   2 C       -0.733134        0.044674       -0.537647       -0.492972
   3 H        0.161761       -0.005605       -0.043824       -0.049429
   4 H        0.161761       -0.005605       -0.043824       -0.049429
   5 H        0.076745        0.037505       -0.001067        0.036437
   6 H        0.076745        0.037505       -0.001067        0.036437
   7 O       -0.181077        1.425951       -0.530138        0.895813
   8 H        0.170331        0.141766       -0.025651        0.116115
  --------------------------------------------------------------------
  Sum:       -1.000000        1.720865       -1.720865        0.000000
  
  Multipole moment analysis of the density matrix
    Molecular charge:                      -1.000000
    Number of electrons:                   26.000000
      Center of electronic charge [Ang]: [ -0.000000,  -0.000000,   0.058847]
    Total nuclear charge:                  25.000000
      Center of nuclear charge [Ang]:    [  0.000000,   0.000000,  -0.000000]
    Dipole moment [D]:                     7.349018
      Cartesian components [D]:          [  0.000000,   0.000000,  -7.349018]
    RMS size of the density [Ang]:         2.381562
      Cartesian components [Ang]:        [  1.329710,   1.176685,   1.587175]
  
  Exciton analysis of the difference density matrix
    <r_h> [Ang]:                  [ -0.000000,  -0.000000,  -1.468165]
    <r_e> [Ang]:                  [ -0.000000,  -0.000000,   0.082081]
    |<r_e - r_h>| [Ang]:            1.550246
    Hole size [Ang]:                1.819294
      Cartesian components [Ang]: [  0.945605,   0.809608,   1.326724]
    Electron size [Ang]:            6.677253
      Cartesian components [Ang]: [  4.287198,   4.272223,   2.820241]

  Transition density matrix analysis:
  -----------------------------------
  
  CT numbers (Mulliken)
    omega =     0.8456
    <Phe> =     0.0000
  
  Exciton analysis of the transition density matrix
    Trans. dipole moment [D]:             0.136941
      Cartesian components [D]:         [ -0.000000,   0.136941,  -0.000000]
    <r_h> [Ang]:                        [ -0.000000,  -0.000000,  -1.728999]
    <r_e> [Ang]:                        [ -0.000000,  -0.000000,   1.027237]
    |<r_e - r_h>| [Ang]:                  2.756236
    Hole size [Ang]:                      1.140368
      Cartesian components [Ang]:       [  0.828347,   0.473040,   0.624910]
    Electron size [Ang]:                  8.501715
      Cartesian components [Ang]:       [  5.574944,   5.558554,   3.209617]
    RMS electron-hole separation [Ang]:   9.009291
      Cartesian components [Ang]:       [  5.635390,   5.578593,   4.276564]
    Covariance(r_h, r_e) [Ang^2]:         0.004562
    Correlation coefficient:              0.000471
    Center-of-mass size [Ang]:            4.289194
      Cartesian components [Ang]:       [  2.818452,   2.789349,   1.634943]

  Decomposition into state-averaged NTOs
    H- 1 -> L+ 8: -0.5830 ( 68.0%)
    H- 1 -> L+ 2:  0.2577 ( 13.3%)
    H- 1 -> L+ 9: -0.1280 (  3.3%)
                   omega =  84.6%
  ----------------------------------------------------------------------------


  Excited state 3 (singlet, B2)                                    [converged]
  ----------------------------------------------------------------------------
  Term symbol:  3 (1) B2                                    R^2 =  4.02695e-11

  Total energy:                                           -153.9187649867 a.u.
  Excitation energy:                                               1.430219 eV

  Osc. strength:                                                      0.004519
  Trans. dip. moment [a.u.]:           [  -0.000000,   -0.359135,    0.000000]
  <i|r^2|0> [a.u.]:                    [   0.000000,    0.000000,   -0.000000]

  Dip. moment [a.u.]:                  [   0.000000,    0.000000,   -3.235148]
  Total dipole [Debye]:                                               8.222927
  <r^2> [a.u.]:                        [ 174.505354,   60.915401,  241.773258]
  Total <r^2> [a.u.]:                                               477.194013

  V1^2 = 0.8631, V2^2 = 0.1369

  Important amplitudes:
      occ i      occ j       vir a       vir b          v   
    ---------------------------------------------------------
     2 (B2) A               9 (A1) A                  0.5952
     2 (B2) A               8 (A1) A                  0.2288
    ---------------------------------------------------------

  Density matrix analysis:
  ------------------------
  NOs
    Occupation of frontier NOs:
       0.9597   0.9987
    Number of electrons: 26.000000
    Number of unpaired electrons: n_u =  2.75423, n_u,nl =  2.11791
    NO participation ratio (PR_NO):  3.889013
  
  
  Mulliken Population Analysis
  Atom      Charge (e)              h+              e-           Del q
  --------------------------------------------------------------------
   1 C       -0.742414        0.037651       -0.539905       -0.502253
   2 C       -0.742414        0.037651       -0.539905       -0.502253
   3 H        0.169520       -0.000908       -0.040762       -0.041670
   4 H        0.169520       -0.000908       -0.040762       -0.041670
   5 H        0.072489        0.036231       -0.004049        0.032182
   6 H        0.072489        0.036231       -0.004049        0.032182
   7 O       -0.163034        1.418078       -0.504223        0.913855
   8 H        0.163844        0.141422       -0.031795        0.109627
  --------------------------------------------------------------------
  Sum:       -1.000000        1.705449       -1.705449        0.000000
  
  Multipole moment analysis of the density matrix
    Molecular charge:                      -1.000000
    Number of electrons:                   26.000000
      Center of electronic charge [Ang]: [ -0.000000,  -0.000000,   0.065845]
    Total nuclear charge:                  25.000000
      Center of nuclear charge [Ang]:    [  0.000000,   0.000000,  -0.000000]
    Dipole moment [D]:                     8.222925
      Cartesian components [D]:          [  0.000000,   0.000000,  -8.222925]
    RMS size of the density [Ang]:         2.266098
      Cartesian components [Ang]:        [  1.370941,   0.809987,   1.612340]
  
  Exciton analysis of the difference density matrix
    <r_h> [Ang]:                  [ -0.000000,  -0.000000,  -1.484337]
    <r_e> [Ang]:                  [ -0.000000,  -0.000000,   0.186604]
    |<r_e - r_h>| [Ang]:            1.670941
    Hole size [Ang]:                1.803512
      Cartesian components [Ang]: [  0.868048,   0.893815,   1.303933]
    Electron size [Ang]:            6.060856
      Cartesian components [Ang]: [  4.482749,   2.729116,   3.031643]

  Transition density matrix analysis:
  -----------------------------------
  
  CT numbers (Mulliken)
    omega =     0.8485
    <Phe> =    -0.0005
  
  Exciton analysis of the transition density matrix
    Trans. dipole moment [D]:             0.456415
      Cartesian components [D]:         [ -0.000000,  -0.456415,   0.000000]
    <r_h> [Ang]:                        [ -0.000000,  -0.000000,  -1.744482]
    <r_e> [Ang]:                        [ -0.000000,  -0.000000,   1.179632]
    |<r_e - r_h>| [Ang]:                  2.924114
    Hole size [Ang]:                      1.099848
      Cartesian components [Ang]:       [  0.479323,   0.827377,   0.543472]
    Electron size [Ang]:                  7.609801
      Cartesian components [Ang]:       [  5.795615,   3.505494,   3.468635]
    RMS electron-hole separation [Ang]:   8.224652
      Cartesian components [Ang]:       [  5.815320,   3.600261,   4.567831]
    Covariance(r_h, r_e) [Ang^2]:         0.012136
    Correlation coefficient:              0.001450
    Center-of-mass size [Ang]:            3.845224
      Cartesian components [Ang]:       [  2.907742,   1.801680,   1.756341]

  Decomposition into state-averaged NTOs
    H- 0 -> L+ 6:  0.4182 ( 35.0%)
    H- 0 -> L+ 7:  0.3827 ( 29.3%)
    H- 0 -> L+ 1:  0.2169 (  9.4%)
    H- 0 -> L+ 3: -0.1903 (  7.2%)
    H- 0 -> L+ 0:  0.1181 (  2.8%)
    H- 0 -> L+ 4:  0.0744 (  1.1%)
                   omega =  84.8%
  ----------------------------------------------------------------------------


  Excited state 4 (singlet, B2)                                    [converged]
  ----------------------------------------------------------------------------
  Term symbol:  4 (1) B2                                    R^2 =  7.56909e-11

  Total energy:                                           -153.8862510662 a.u.
  Excitation energy:                                               2.314968 eV

  Osc. strength:                                                      0.002633
  Trans. dip. moment [a.u.]:           [  -0.000000,    0.215481,   -0.000000]
  <i|r^2|0> [a.u.]:                    [   0.000000,   -0.000000,   -0.000000]

  Dip. moment [a.u.]:                  [   0.000000,    0.000000,   -3.752093]
  Total dipole [Debye]:                                               9.536871
  <r^2> [a.u.]:                        [ 121.633245,   34.055683,  224.379661]
  Total <r^2> [a.u.]:                                               380.068589

  V1^2 = 0.8652, V2^2 = 0.1348

  Important amplitudes:
      occ i      occ j       vir a       vir b          v   
    ---------------------------------------------------------
     2 (B2) A              10 (A1) A                 -0.6443
     2 (B2) A              12 (A1) A                  0.0924
    ---------------------------------------------------------

  Density matrix analysis:
  ------------------------
  NOs
    Occupation of frontier NOs:
       0.9604   0.9980
    Number of electrons: 26.000000
    Number of unpaired electrons: n_u =  2.75290, n_u,nl =  2.11699
    NO participation ratio (PR_NO):  3.885938
  
  
  Mulliken Population Analysis
  Atom      Charge (e)              h+              e-           Del q
  --------------------------------------------------------------------
   1 C       -0.775473        0.035562       -0.570874       -0.535311
   2 C       -0.775473        0.035562       -0.570874       -0.535311
   3 H        0.176933        0.001006       -0.035263       -0.034257
   4 H        0.176933        0.001006       -0.035263       -0.034257
   5 H        0.092708        0.042336        0.010065        0.052401
   6 H        0.092708        0.042336        0.010065        0.052401
   7 O       -0.139418        1.413034       -0.475563        0.937471
   8 H        0.151082        0.135849       -0.038985        0.096865
  --------------------------------------------------------------------
  Sum:       -1.000000        1.706691       -1.706691        0.000000
  
  Multipole moment analysis of the density matrix
    Molecular charge:                      -1.000000
    Number of electrons:                   26.000000
      Center of electronic charge [Ang]: [ -0.000000,  -0.000000,   0.076366]
    Total nuclear charge:                  25.000000
      Center of nuclear charge [Ang]:    [  0.000000,   0.000000,  -0.000000]
    Dipole moment [D]:                     9.536868
      Cartesian components [D]:          [  0.000000,   0.000000,  -9.536868]
    RMS size of the density [Ang]:         2.021789
      Cartesian components [Ang]:        [  1.144565,   0.605633,   1.552679]
  
  Exciton analysis of the difference density matrix
    <r_h> [Ang]:                  [ -0.000000,  -0.000000,  -1.464426]
    <r_e> [Ang]:                  [ -0.000000,  -0.000000,   0.365584]
    |<r_e - r_h>| [Ang]:            1.830010
    Hole size [Ang]:                1.802860
      Cartesian components [Ang]: [  0.865654,   0.884816,   1.310744]
    Electron size [Ang]:            4.540403
      Cartesian components [Ang]: [  3.376644,   1.737864,   2.488646]

  Transition density matrix analysis:
  -----------------------------------
  
  CT numbers (Mulliken)
    omega =     0.8503
    <Phe> =     0.0000
  
  Exciton analysis of the transition density matrix
    Trans. dipole moment [D]:             0.273849
      Cartesian components [D]:         [ -0.000000,   0.273849,  -0.000000]
    <r_h> [Ang]:                        [ -0.000000,  -0.000000,  -1.742422]
    <r_e> [Ang]:                        [ -0.000000,  -0.000000,   1.480506]
    |<r_e - r_h>| [Ang]:                  3.222928
    Hole size [Ang]:                      1.101805
      Cartesian components [Ang]:       [  0.479035,   0.826595,   0.548853]
    Electron size [Ang]:                  5.476712
      Cartesian components [Ang]:       [  4.344771,   2.184981,   2.518570]
    RMS electron-hole separation [Ang]:   6.448644
      Cartesian components [Ang]:       [  4.370843,   2.335732,   4.126149]
    Covariance(r_h, r_e) [Ang^2]:         0.005299
    Correlation coefficient:              0.000878
    Center-of-mass size [Ang]:            2.793696
      Cartesian components [Ang]:       [  2.185678,   1.168242,   1.289480]

  Decomposition into state-averaged NTOs
    H- 0 -> L+ 3:  0.5915 ( 70.0%)
    H- 0 -> L+ 6:  0.1972 (  7.8%)
    H- 0 -> L+ 4:  0.1770 (  6.3%)
                   omega =  85.0%
  ----------------------------------------------------------------------------


  Excited state 5 (singlet, B2)                                    [converged]
  ----------------------------------------------------------------------------
  Term symbol:  5 (1) B2                                    R^2 =  1.02540e-10

  Total energy:                                           -153.8825044898 a.u.
  Excitation energy:                                               2.416918 eV

  Osc. strength:                                                      0.013742
  Trans. dip. moment [a.u.]:           [  -0.000000,   -0.481751,   -0.000000]
  <i|r^2|0> [a.u.]:                    [   0.000000,   -0.000000,    0.000000]

  Dip. moment [a.u.]:                  [   0.000000,    0.000000,   -3.041559]
  Total dipole [Debye]:                                               7.730873
  <r^2> [a.u.]:                        [  91.993707,   43.167480,  269.500267]
  Total <r^2> [a.u.]:                                               404.661454

  V1^2 = 0.8689, V2^2 = 0.1311

  Important amplitudes:
      occ i      occ j       vir a       vir b          v   
    ---------------------------------------------------------
     2 (B2) A              11 (A1) A                 -0.6048
     2 (B2) A              14 (A1) A                 -0.1436
    ---------------------------------------------------------

  Density matrix analysis:
  ------------------------
  NOs
    Occupation of frontier NOs:
       0.9616   0.9970
    Number of electrons: 26.000000
    Number of unpaired electrons: n_u =  2.75036, n_u,nl =  2.11593
    NO participation ratio (PR_NO):  3.878731
  
  
  Mulliken Population Analysis
  Atom      Charge (e)              h+              e-           Del q
  --------------------------------------------------------------------
   1 C       -0.744295        0.030832       -0.534966       -0.504134
   2 C       -0.744295        0.030832       -0.534966       -0.504134
   3 H        0.179837        0.000904       -0.032257       -0.031353
   4 H        0.179837        0.000904       -0.032257       -0.031353
   5 H        0.070536        0.037440       -0.007211        0.030228
   6 H        0.070536        0.037440       -0.007211        0.030228
   7 O       -0.191558        1.403540       -0.518208        0.885331
   8 H        0.179402        0.140308       -0.015124        0.125185
  --------------------------------------------------------------------
  Sum:       -1.000000        1.682199       -1.682199        0.000000
  
  Multipole moment analysis of the density matrix
    Molecular charge:                      -1.000000
    Number of electrons:                   26.000000
      Center of electronic charge [Ang]: [ -0.000000,  -0.000000,   0.061905]
    Total nuclear charge:                  25.000000
      Center of nuclear charge [Ang]:    [  0.000000,   0.000000,  -0.000000]
    Dipole moment [D]:                     7.730871
      Cartesian components [D]:          [  0.000000,   0.000000,  -7.730871]
    RMS size of the density [Ang]:         2.086745
      Cartesian components [Ang]:        [  0.995391,   0.681856,   1.702579]
  
  Exciton analysis of the difference density matrix
    <r_h> [Ang]:                  [ -0.000000,  -0.000000,  -1.484462]
    <r_e> [Ang]:                  [ -0.000000,  -0.000000,   0.148676]
    |<r_e - r_h>| [Ang]:            1.633137
    Hole size [Ang]:                1.797425
      Cartesian components [Ang]: [  0.854849,   0.890959,   1.306201]
    Electron size [Ang]:            5.008366
      Cartesian components [Ang]: [  2.569876,   2.140200,   3.728139]

  Transition density matrix analysis:
  -----------------------------------
  
  CT numbers (Mulliken)
    omega =     0.8537
    <Phe> =    -0.0015
  
  Exciton analysis of the transition density matrix
    Trans. dipole moment [D]:             0.612244
      Cartesian components [D]:         [ -0.000000,  -0.612244,  -0.000000]
    <r_h> [Ang]:                        [ -0.000000,  -0.000000,  -1.743964]
    <r_e> [Ang]:                        [ -0.000000,  -0.000000,   1.066869]
    |<r_e - r_h>| [Ang]:                  2.810833
    Hole size [Ang]:                      1.098714
      Cartesian components [Ang]:       [  0.478936,   0.825803,   0.543914]
    Electron size [Ang]:                  6.141303
      Cartesian components [Ang]:       [  3.240018,   2.698917,   4.464721]
    RMS electron-hole separation [Ang]:   6.841150
      Cartesian components [Ang]:       [  3.274943,   2.821449,   5.302406]
    Covariance(r_h, r_e) [Ang^2]:         0.011113
    Correlation coefficient:              0.001647
    Center-of-mass size [Ang]:            3.120297
      Cartesian components [Ang]:       [  1.637752,   1.411704,   2.249691]

  Decomposition into state-averaged NTOs
    H- 0 -> L+ 1:  0.3666 ( 26.9%)
    H- 0 -> L+ 6: -0.3186 ( 20.3%)
    H- 0 -> L+ 4: -0.2796 ( 15.6%)
    H- 0 -> L+ 7:  0.2140 (  9.2%)
    H- 0 -> L+ 0:  0.2043 (  8.4%)
    H- 0 -> L+ 3:  0.1573 (  5.0%)
                   omega =  85.4%
  ----------------------------------------------------------------------------


  Excited state 6 (singlet, B2)                                    [converged]
  ----------------------------------------------------------------------------
  Term symbol:  6 (1) B2                                    R^2 =  1.52948e-09

  Total energy:                                           -153.8716234758 a.u.
  Excitation energy:                                               2.713005 eV

  Osc. strength:                                                      0.002278
  Trans. dip. moment [a.u.]:           [  -0.000000,    0.185128,   -0.000000]
  <i|r^2|0> [a.u.]:                    [  -0.000000,   -0.000000,   -0.000000]

  Dip. moment [a.u.]:                  [  -0.000000,    0.000000,   -2.870781]
  Total dipole [Debye]:                                               7.296799
  <r^2> [a.u.]:                        [ 111.218516,   75.823193,  216.960572]
  Total <r^2> [a.u.]:                                               404.002281

  V1^2 = 0.8665, V2^2 = 0.1335

  Important amplitudes:
      occ i      occ j       vir a       vir b          v   
    ---------------------------------------------------------
     4 (B1) A               2 (A2) A                 -0.6278
     4 (B1) A               3 (A2) A                 -0.1691
    ---------------------------------------------------------

  Density matrix analysis:
  ------------------------
  NOs
    Occupation of frontier NOs:
       0.9617   0.9973
    Number of electrons: 26.000000
    Number of unpaired electrons: n_u =  2.75112, n_u,nl =  2.11543
    NO participation ratio (PR_NO):  3.880053
  
  
  Mulliken Population Analysis
  Atom      Charge (e)              h+              e-           Del q
  --------------------------------------------------------------------
   1 C       -0.724436        0.042902       -0.527177       -0.484275
   2 C       -0.724436        0.042902       -0.527177       -0.484275
   3 H        0.159987       -0.004257       -0.046946       -0.051203
   4 H        0.159987       -0.004257       -0.046946       -0.051203
   5 H        0.071472        0.032259       -0.001094        0.031165
   6 H        0.071472        0.032259       -0.001094        0.031165
   7 O       -0.178997        1.409096       -0.511203        0.897893
   8 H        0.164949        0.134861       -0.024129        0.110732
  --------------------------------------------------------------------
  Sum:       -1.000000        1.685763       -1.685763        0.000000
  
  Multipole moment analysis of the density matrix
    Molecular charge:                      -1.000000
    Number of electrons:                   26.000000
      Center of electronic charge [Ang]: [  0.000000,  -0.000000,   0.058429]
    Total nuclear charge:                  25.000000
      Center of nuclear charge [Ang]:    [  0.000000,   0.000000,  -0.000000]
    Dipole moment [D]:                     7.296796
      Cartesian components [D]:          [ -0.000000,   0.000000,  -7.296796]
    RMS size of the density [Ang]:         2.085143
      Cartesian components [Ang]:        [  1.094468,   0.903682,   1.527522]
  
  Exciton analysis of the difference density matrix
    <r_h> [Ang]:                  [ -0.000000,  -0.000000,  -1.484893]
    <r_e> [Ang]:                  [  0.000000,  -0.000000,   0.091183]
    |<r_e - r_h>| [Ang]:            1.576076
    Hole size [Ang]:                1.771628
      Cartesian components [Ang]: [  0.932315,   0.787295,   1.284376]
    Electron size [Ang]:            4.985544
      Cartesian components [Ang]: [  3.150205,   3.134173,   2.260269]

  Transition density matrix analysis:
  -----------------------------------
  
  CT numbers (Mulliken)
    omega =     0.8507
    <Phe> =     0.0001
  
  Exciton analysis of the transition density matrix
    Trans. dipole moment [D]:             0.235274
      Cartesian components [D]:         [ -0.000000,   0.235274,  -0.000000]
    <r_h> [Ang]:                        [ -0.000000,  -0.000000,  -1.723831]
    <r_e> [Ang]:                        [  0.000000,  -0.000000,   1.026424]
    |<r_e - r_h>| [Ang]:                  2.750255
    Hole size [Ang]:                      1.144897
      Cartesian components [Ang]:       [  0.826776,   0.472252,   0.635774]
    Electron size [Ang]:                  6.137451
      Cartesian components [Ang]:       [  4.025778,   4.010396,   2.319083]
    RMS electron-hole separation [Ang]:   6.821257
      Cartesian components [Ang]:       [  4.108313,   4.037970,   3.653234]
    Covariance(r_h, r_e) [Ang^2]:         0.006724
    Correlation coefficient:              0.000957
    Center-of-mass size [Ang]:            3.122201
      Cartesian components [Ang]:       [  2.055642,   2.019120,   1.202341]

  Decomposition into state-averaged NTOs
    H- 1 -> L+ 2:  0.5978 ( 71.5%)
    H- 1 -> L+ 8:  0.2596 ( 13.5%)
                   omega =  85.1%
  ----------------------------------------------------------------------------


  Excited state 7 (singlet, B2)                                    [converged]
  ----------------------------------------------------------------------------
  Term symbol:  7 (1) B2                                    R^2 =  1.26630e-09

  Total energy:                                           -153.8325823058 a.u.
  Excitation energy:                                               3.775369 eV

  Osc. strength:                                                      0.012981
  Trans. dip. moment [a.u.]:           [  -0.000000,    0.374619,   -0.000000]
  <i|r^2|0> [a.u.]:                    [   0.000000,    0.000000,    0.000000]

  Dip. moment [a.u.]:                  [  -0.000000,    0.000000,   -1.779466]
  Total dipole [Debye]:                                               4.522953
  <r^2> [a.u.]:                        [ 105.930063,   36.408977,  229.336152]
  Total <r^2> [a.u.]:                                               371.675192

  V1^2 = 0.8755, V2^2 = 0.1245

  Important amplitudes:
      occ i      occ j       vir a       vir b          v   
    ---------------------------------------------------------
     2 (B2) A              12 (A1) A                 -0.5466
     2 (B2) A              14 (A1) A                  0.2851
    ---------------------------------------------------------

  Density matrix analysis:
  ------------------------
  NOs
    Occupation of frontier NOs:
       0.9641   0.9921
    Number of electrons: 26.000000
    Number of unpaired electrons: n_u =  2.74680, n_u,nl =  2.11395
    NO participation ratio (PR_NO):  3.879872
  
  
  Mulliken Population Analysis
  Atom      Charge (e)              h+              e-           Del q
  --------------------------------------------------------------------
   1 C       -0.639565        0.037042       -0.436446       -0.399403
   2 C       -0.639565        0.037042       -0.436446       -0.399403
   3 H        0.168674        0.000122       -0.042637       -0.042516
   4 H        0.168674        0.000122       -0.042637       -0.042516
   5 H        0.040798        0.032363       -0.031873        0.000491
   6 H        0.040798        0.032363       -0.031873        0.000491
   7 O       -0.606438        1.339078       -0.868626        0.470452
   8 H        0.466622        0.156993        0.255411        0.412405
  --------------------------------------------------------------------
  Sum:       -1.000000        1.635126       -1.635126        0.000000
  
  Multipole moment analysis of the density matrix
    Molecular charge:                      -1.000000
    Number of electrons:                   26.000000
      Center of electronic charge [Ang]: [  0.000000,  -0.000000,   0.036217]
    Total nuclear charge:                  25.000000
      Center of nuclear charge [Ang]:    [  0.000000,   0.000000,  -0.000000]
    Dipole moment [D]:                     4.522952
      Cartesian components [D]:          [ -0.000000,   0.000000,  -4.522952]
    RMS size of the density [Ang]:         2.000438
      Cartesian components [Ang]:        [  1.068130,   0.626208,   1.571214]
  
  Exciton analysis of the difference density matrix
    <r_h> [Ang]:                  [ -0.000000,  -0.000000,  -1.489317]
    <r_e> [Ang]:                  [  0.000000,  -0.000000,  -0.217615]
    |<r_e - r_h>| [Ang]:            1.271702
    Hole size [Ang]:                1.767430
      Cartesian components [Ang]: [  0.861213,   0.878540,   1.268971]
    Electron size [Ang]:            4.459053
      Cartesian components [Ang]: [  3.028364,   1.873512,   2.683676]

  Transition density matrix analysis:
  -----------------------------------
  
  CT numbers (Mulliken)
    omega =     0.8588
    <Phe> =    -0.0050
  
  Exciton analysis of the transition density matrix
    Trans. dipole moment [D]:             0.476093
      Cartesian components [D]:         [ -0.000000,   0.476093,  -0.000000]
    <r_h> [Ang]:                        [ -0.000000,  -0.000000,  -1.733831]
    <r_e> [Ang]:                        [  0.000000,  -0.000000,   0.385575]
    |<r_e - r_h>| [Ang]:                  2.119406
    Hole size [Ang]:                      1.109687
      Cartesian components [Ang]:       [  0.478359,   0.823071,   0.570205]
    Electron size [Ang]:                  5.411455
      Cartesian components [Ang]:       [  3.771115,   2.311615,   3.117527]
    RMS electron-hole separation [Ang]:   5.910182
      Cartesian components [Ang]:       [  3.801122,   2.451914,   3.803924]
    Covariance(r_h, r_e) [Ang^2]:         0.038443
    Correlation coefficient:              0.006402
    Center-of-mass size [Ang]:            2.765508
      Cartesian components [Ang]:       [  1.900772,   1.227816,   1.589832]

  Decomposition into state-averaged NTOs
    H- 0 -> L+ 4: -0.4260 ( 36.3%)
    H- 0 -> L+ 0: -0.3380 ( 22.9%)
    H- 0 -> L+ 7:  0.2418 ( 11.7%)
    H- 0 -> L+ 1: -0.2334 ( 10.9%)
    H- 0 -> L+ 6:  0.1069 (  2.3%)
    H- 0 -> L+ 3:  0.0912 (  1.7%)
                   omega =  85.9%
  ----------------------------------------------------------------------------


  Excited state 8 (singlet, B2)                                    [converged]
  ----------------------------------------------------------------------------
  Term symbol:  8 (1) B2                                    R^2 =  1.48093e-07

  Total energy:                                           -153.8191685961 a.u.
  Excitation energy:                                               4.140375 eV

  Osc. strength:                                                      0.000014
  Trans. dip. moment [a.u.]:           [   0.000000,    0.011844,   -0.000000]
  <i|r^2|0> [a.u.]:                    [   0.000000,    0.000000,   -0.000000]

  Dip. moment [a.u.]:                  [  -0.000000,    0.000000,   -2.803500]
  Total dipole [Debye]:                                               7.125787
  <r^2> [a.u.]:                        [  76.336647,   40.324256,  206.380969]
  Total <r^2> [a.u.]:                                               323.041872

  V1^2 = 0.8678, V2^2 = 0.1322

  Important amplitudes:
      occ i      occ j       vir a       vir b          v   
    ---------------------------------------------------------
     4 (B1) A               3 (A2) A                 -0.5785
     4 (B1) A               4 (A2) A                 -0.2630
    ---------------------------------------------------------

  Density matrix analysis:
  ------------------------
  NOs
    Occupation of frontier NOs:
       0.9653   0.9944
    Number of electrons: 26.000000
    Number of unpaired electrons: n_u =  2.72839, n_u,nl =  2.10342
    NO participation ratio (PR_NO):  3.820658
  
  
  Mulliken Population Analysis
  Atom      Charge (e)              h+              e-           Del q
  --------------------------------------------------------------------
   1 C       -0.662616        0.093548       -0.516003       -0.422455
   2 C       -0.662616        0.093548       -0.516003       -0.422455
   3 H        0.137691        0.001270       -0.074769       -0.073499
   4 H        0.137691        0.001270       -0.074769       -0.073499
   5 H        0.036084        0.010862       -0.015085       -0.004223
   6 H        0.036084        0.010862       -0.015085       -0.004223
   7 O       -0.174307        1.359606       -0.457024        0.902582
   8 H        0.151990        0.118745       -0.020972        0.097773
  --------------------------------------------------------------------
  Sum:       -1.000000        1.689711       -1.689711        0.000000
  
  Multipole moment analysis of the density matrix
    Molecular charge:                      -1.000000
    Number of electrons:                   26.000000
      Center of electronic charge [Ang]: [  0.000000,  -0.000000,   0.057060]
    Total nuclear charge:                  25.000000
      Center of nuclear charge [Ang]:    [  0.000000,   0.000000,  -0.000000]
    Dipole moment [D]:                     7.125785
      Cartesian components [D]:          [ -0.000000,   0.000000,  -7.125785]
    RMS size of the density [Ang]:         1.864406
      Cartesian components [Ang]:        [  0.906736,   0.659019,   1.489810]
  
  Exciton analysis of the difference density matrix
    <r_h> [Ang]:                  [ -0.000000,  -0.000000,  -1.391061]
    <r_e> [Ang]:                  [  0.000000,  -0.000000,   0.160261]
    |<r_e - r_h>| [Ang]:            1.551323
    Hole size [Ang]:                1.719234
      Cartesian components [Ang]: [  0.897717,   0.736621,   1.267777]
    Electron size [Ang]:            3.304951
      Cartesian components [Ang]: [  2.014573,   1.959905,   1.738668]

  Transition density matrix analysis:
  -----------------------------------
  
  CT numbers (Mulliken)
    omega =     0.8423
    <Phe> =    -0.0007
  
  Exciton analysis of the transition density matrix
    Trans. dipole moment [D]:             0.015052
      Cartesian components [D]:         [  0.000000,   0.015052,  -0.000000]
    <r_h> [Ang]:                        [ -0.000000,  -0.000000,  -1.694146]
    <r_e> [Ang]:                        [  0.000000,  -0.000000,   1.023839]
    |<r_e - r_h>| [Ang]:                  2.717985
    Hole size [Ang]:                      1.179577
      Cartesian components [Ang]:       [  0.825467,   0.469091,   0.699970]
    Electron size [Ang]:                  3.796171
      Cartesian components [Ang]:       [  2.507771,   2.463548,   1.432805]
    RMS electron-hole separation [Ang]:   4.813742
      Cartesian components [Ang]:       [  2.637310,   2.507571,   3.150998]
    Covariance(r_h, r_e) [Ang^2]:         0.008824
    Correlation coefficient:              0.001971
    Center-of-mass size [Ang]:            1.988716
      Cartesian components [Ang]:       [  1.321478,   1.254025,   0.797563]

  Decomposition into state-averaged NTOs
    H- 1 -> L+ 9: -0.6353 ( 80.7%)
    H- 1 -> L+ 8:  0.1215 (  3.0%)
                   omega =  84.2%
  ----------------------------------------------------------------------------


  Excited state 9 (singlet, B2)                                    [converged]
  ----------------------------------------------------------------------------
  Term symbol:  9 (1) B2                                    R^2 =  1.52016e-08

  Total energy:                                           -153.8051375645 a.u.
  Excitation energy:                                               4.522179 eV

  Osc. strength:                                                      0.002032
  Trans. dip. moment [a.u.]:           [   0.000000,   -0.135428,    0.000000]
  <i|r^2|0> [a.u.]:                    [  -0.000000,   -0.000000,    0.000000]

  Dip. moment [a.u.]:                  [   0.000000,   -0.000000,    0.865924]
  Total dipole [Debye]:                                               2.200959
  <r^2> [a.u.]:                        [  76.164688,   28.003455,  222.913997]
  Total <r^2> [a.u.]:                                               327.082140

  V1^2 = 0.8877, V2^2 = 0.1123

  Important amplitudes:
      occ i      occ j       vir a       vir b          v   
    ---------------------------------------------------------
     2 (B2) A              14 (A1) A                 -0.4023
     2 (B2) A              13 (A1) A                  0.3994
    ---------------------------------------------------------

  Density matrix analysis:
  ------------------------
  NOs
    Occupation of frontier NOs:
       0.9654   0.9961
    Number of electrons: 26.000000
    Number of unpaired electrons: n_u =  2.72916, n_u,nl =  2.10628
    NO participation ratio (PR_NO):  3.814071
  
  
  Mulliken Population Analysis
  Atom      Charge (e)              h+              e-           Del q
  --------------------------------------------------------------------
   1 C       -0.442759        0.034252       -0.236850       -0.202598
   2 C       -0.442759        0.034252       -0.236850       -0.202598
   3 H        0.237025        0.005001        0.020834        0.025835
   4 H        0.237025        0.005001        0.020834        0.025835
   5 H        0.111101        0.020770        0.050024        0.070794
   6 H        0.111101        0.020770        0.050024        0.070794
   7 O       -1.477070        1.273386       -1.673566       -0.400180
   8 H        0.666335        0.180863        0.431255        0.612118
  --------------------------------------------------------------------
  Sum:       -1.000000        1.574295       -1.574295        0.000000
  
  Multipole moment analysis of the density matrix
    Molecular charge:                      -1.000000
    Number of electrons:                   26.000000
      Center of electronic charge [Ang]: [ -0.000000,   0.000000,  -0.017624]
    Total nuclear charge:                  25.000000
      Center of nuclear charge [Ang]:    [  0.000000,   0.000000,  -0.000000]
    Dipole moment [D]:                     2.200958
      Cartesian components [D]:          [  0.000000,  -0.000000,   2.200958]
    RMS size of the density [Ang]:         1.876825
      Cartesian components [Ang]:        [  0.905714,   0.549187,   1.549370]
  
  Exciton analysis of the difference density matrix
    <r_h> [Ang]:                  [ -0.000000,  -0.000000,  -1.552970]
    <r_e> [Ang]:                  [ -0.000000,   0.000000,  -1.121341]
    |<r_e - r_h>| [Ang]:            0.431630
    Hole size [Ang]:                1.694104
      Cartesian components [Ang]: [  0.847749,   0.880590,   1.172976]
    Electron size [Ang]:            3.353301
      Cartesian components [Ang]: [  2.044298,   1.457504,   2.222870]

  Transition density matrix analysis:
  -----------------------------------
  
  CT numbers (Mulliken)
    omega =     0.8701
    <Phe> =    -0.0044
  
  Exciton analysis of the transition density matrix
    Trans. dipole moment [D]:             0.172112
      Cartesian components [D]:         [  0.000000,  -0.172112,   0.000000]
    <r_h> [Ang]:                        [ -0.000000,  -0.000000,  -1.745207]
    <r_e> [Ang]:                        [ -0.000000,   0.000000,  -1.082645]
    |<r_e - r_h>| [Ang]:                  0.662562
    Hole size [Ang]:                      1.090433
      Cartesian components [Ang]:       [  0.475961,   0.821426,   0.536438]
    Electron size [Ang]:                  3.983367
      Cartesian components [Ang]:       [  2.444676,   1.734777,   2.623228]
    RMS electron-hole separation [Ang]:   4.176973
      Cartesian components [Ang]:       [  2.490169,   1.916827,   2.751716]
    Covariance(r_h, r_e) [Ang^2]:         0.024072
    Correlation coefficient:              0.005542
    Center-of-mass size [Ang]:            2.067874
      Cartesian components [Ang]:       [  1.245493,   0.961010,   1.342128]

  Decomposition into state-averaged NTOs
    H- 0 -> L+ 0:  0.4944 ( 48.9%)
    H- 0 -> L+ 1: -0.4071 ( 33.1%)
    H- 0 -> L+ 7:  0.1114 (  2.5%)
    H- 0 -> L+ 3:  0.0790 (  1.2%)
    H- 0 -> L+ 4: -0.0725 (  1.1%)
                   omega =  87.0%
  ----------------------------------------------------------------------------


  Excited state 10 (singlet, B2)                                    [converged]
  ----------------------------------------------------------------------------
  Term symbol:  10 (1) B2                                   R^2 =  1.69635e-06

  Total energy:                                           -153.7810665777 a.u.
  Excitation energy:                                               5.177184 eV

  Osc. strength:                                                      0.000073
  Trans. dip. moment [a.u.]:           [  -0.000000,   -0.023978,    0.000000]
  <i|r^2|0> [a.u.]:                    [  -0.000000,   -0.000000,    0.000000]

  Dip. moment [a.u.]:                  [  -0.000000,   -0.000000,   -2.784589]
  Total dipole [Debye]:                                               7.077720
  <r^2> [a.u.]:                        [  97.495878,  146.381770,  239.058796]
  Total <r^2> [a.u.]:                                               482.936444

  V1^2 = 0.8650, V2^2 = 0.1350

  Important amplitudes:
      occ i      occ j       vir a       vir b          v   
    ---------------------------------------------------------
     7 (A1) A               3 (B2) A                 -0.6445
     7 (A1) A               4 (B2) A                 -0.1187
    ---------------------------------------------------------

  Density matrix analysis:
  ------------------------
  NOs
    Occupation of frontier NOs:
       0.9787   1.0001
    Number of electrons: 26.000000
    Number of unpaired electrons: n_u =  2.80688, n_u,nl =  2.13479
    NO participation ratio (PR_NO):  3.951923
  
  
  Mulliken Population Analysis
  Atom      Charge (e)              h+              e-           Del q
  --------------------------------------------------------------------
   1 C       -0.729505        0.061281       -0.550624       -0.489344
   2 C       -0.729505        0.061281       -0.550624       -0.489344
   3 H        0.170402       -0.000572       -0.040216       -0.040788
   4 H        0.170402       -0.000572       -0.040216       -0.040788
   5 H        0.078313        0.039839       -0.001834        0.038005
   6 H        0.078313        0.039839       -0.001834        0.038005
   7 O       -0.374781        1.229696       -0.527588        0.702108
   8 H        0.336361        0.299221       -0.017076        0.282144
  --------------------------------------------------------------------
  Sum:       -1.000000        1.730012       -1.730012        0.000000
  
  Multipole moment analysis of the density matrix
    Molecular charge:                      -1.000000
    Number of electrons:                   26.000000
      Center of electronic charge [Ang]: [  0.000000,   0.000000,   0.056675]
    Total nuclear charge:                  25.000000
      Center of nuclear charge [Ang]:    [  0.000000,   0.000000,  -0.000000]
    Dipole moment [D]:                     7.077718
      Cartesian components [D]:          [ -0.000000,  -0.000000,  -7.077718]
    RMS size of the density [Ang]:         2.279950
      Cartesian components [Ang]:        [  1.024726,   1.255619,   1.603599]
  
  Exciton analysis of the difference density matrix
    <r_h> [Ang]:                  [ -0.000000,  -0.000000,  -1.393045]
    <r_e> [Ang]:                  [  0.000000,   0.000000,   0.116355]
    |<r_e - r_h>| [Ang]:            1.509400
    Hole size [Ang]:                1.863127
      Cartesian components [Ang]: [  0.870539,   0.801629,   1.439025]
    Electron size [Ang]:            6.098858
      Cartesian components [Ang]: [  2.712861,   4.585999,   2.967333]

  Transition density matrix analysis:
  -----------------------------------
  
  CT numbers (Mulliken)
    omega =     0.8484
    <Phe> =     0.0000
  
  Exciton analysis of the transition density matrix
    Trans. dipole moment [D]:             0.030473
      Cartesian components [D]:         [ -0.000000,  -0.030473,   0.000000]
    <r_h> [Ang]:                        [ -0.000000,   0.000000,  -1.714698]
    <r_e> [Ang]:                        [  0.000000,   0.000000,   1.036121]
    |<r_e - r_h>| [Ang]:                  2.750819
    Hole size [Ang]:                      1.146162
      Cartesian components [Ang]:       [  0.453257,   0.406627,   0.971030]
    Electron size [Ang]:                  7.735608
      Cartesian components [Ang]:       [  3.478060,   5.985383,   3.452234]
    RMS electron-hole separation [Ang]:   8.289479
      Cartesian components [Ang]:       [  3.507096,   5.999179,   4.519468]
    Covariance(r_h, r_e) [Ang^2]:         0.002428
    Correlation coefficient:              0.000274
    Center-of-mass size [Ang]:            3.910185
      Cartesian components [Ang]:       [  1.753921,   2.999590,   1.793254]

  Decomposition into state-averaged NTOs
    H- 2 -> L+ 5:  0.6513 ( 84.8%)
                   omega =  84.8%
  ----------------------------------------------------------------------------


--------------------------------------------------------------------------------
  Time of ADC calculation:  CPU 365.82 s  wall 87.27 s
================================================================================
 
 --------------------------------------------------------------
             Orbital Energies (a.u.) and Symmetries
 --------------------------------------------------------------
 
 Alpha MOs, Restricted
 -- Occupied --                  
-20.213 -11.049 -11.047  -0.930  -0.854  -0.598  -0.473  -0.384
  1 A1    2 A1    1 B1    3 A1    4 A1    2 B1    5 A1    6 A1                 
 -0.328  -0.271  -0.194  -0.130  -0.129
  3 B1    7 A1    1 B2    4 B1    2 B2                                         
 -- Virtual --                   
  0.081   0.089   0.090   0.090   0.097   0.109   0.149   0.155
  5 B1    3 B2    8 A1    1 A2    6 B1    9 A1    7 B1   10 A1                 
  0.166   0.167   0.169   0.184   0.239   0.265   0.276   0.290
  4 B2   11 A1    2 A2    8 B1   12 A1    9 B1    3 A2   13 A1                 
  0.300   0.309   0.332   0.344   0.378   0.378   0.449   0.469
  5 B2   10 B1   14 A1   15 A1   11 B1    4 A2    6 B2   16 A1                 
  0.476   0.507   0.529   0.540   0.544   0.580   0.585   0.597
 12 B1   17 A1   13 B1   18 A1   14 B1   19 A1    7 B2   15 B1                 
  0.632   0.642   0.705   0.731   0.799   1.010   1.050   1.131
 20 A1    5 A2   21 A1   16 B1   17 B1   22 A1   23 A1   18 B1                 
  1.140   1.192   1.200   1.224   1.291   1.293   1.314   1.337
 24 A1   25 A1    8 B2   19 B1    6 A2   26 A1   20 B1   27 A1                 
  1.345   1.346   1.346   1.372   1.372   1.479   1.483   1.524
 21 B1   28 A1    9 B2   10 B2    7 A2   11 B2    8 A2   22 B1                 
  1.660   1.670   1.719   1.764   1.878   1.952   2.034   2.067
 23 B1   29 A1   12 B2   24 B1   30 A1   25 B1   31 A1    9 A2                 
  2.132   2.162   2.182   2.213   2.268   2.343   2.369   2.395
 13 B2   32 A1   26 B1   14 B2   33 A1   34 A1   10 A2   15 B2                 
  2.441   2.530   2.580   2.604   2.772   2.774   2.854   3.052
 27 B1   28 B1   35 A1   11 A2   36 A1   29 B1   30 B1   37 A1                 
  3.074   3.126   3.482   3.570   3.923   3.946   3.972   4.090
 38 A1   39 A1   31 B1   32 B1   16 B2   12 A2   40 A1   33 B1                 
  4.546
 41 A1                                                                         
 
 Beta MOs, Restricted
 -- Occupied --                  
-20.213 -11.049 -11.047  -0.930  -0.854  -0.598  -0.473  -0.384
  1 A1    2 A1    1 B1    3 A1    4 A1    2 B1    5 A1    6 A1                 
 -0.328  -0.271  -0.194  -0.130  -0.129
  3 B1    7 A1    1 B2    4 B1    2 B2                                         
 -- Virtual --                   
  0.081   0.089   0.090   0.090   0.097   0.109   0.149   0.155
  5 B1    3 B2    8 A1    1 A2    6 B1    9 A1    7 B1   10 A1                 
  0.166   0.167   0.169   0.184   0.239   0.265   0.276   0.290
  4 B2   11 A1    2 A2    8 B1   12 A1    9 B1    3 A2   13 A1                 
  0.300   0.309   0.332   0.344   0.378   0.378   0.449   0.469
  5 B2   10 B1   14 A1   15 A1   11 B1    4 A2    6 B2   16 A1                 
  0.476   0.507   0.529   0.540   0.544   0.580   0.585   0.597
 12 B1   17 A1   13 B1   18 A1   14 B1   19 A1    7 B2   15 B1                 
  0.632   0.642   0.705   0.731   0.799   1.010   1.050   1.131
 20 A1    5 A2   21 A1   16 B1   17 B1   22 A1   23 A1   18 B1                 
  1.140   1.192   1.200   1.224   1.291   1.293   1.314   1.337
 24 A1   25 A1    8 B2   19 B1    6 A2   26 A1   20 B1   27 A1                 
  1.345   1.346   1.346   1.372   1.372   1.479   1.483   1.524
 21 B1   28 A1    9 B2   10 B2    7 A2   11 B2    8 A2   22 B1                 
  1.660   1.670   1.719   1.764   1.878   1.952   2.034   2.067
 23 B1   29 A1   12 B2   24 B1   30 A1   25 B1   31 A1    9 A2                 
  2.132   2.162   2.182   2.213   2.268   2.343   2.369   2.395
 13 B2   32 A1   26 B1   14 B2   33 A1   34 A1   10 A2   15 B2                 
  2.441   2.530   2.580   2.604   2.772   2.774   2.854   3.052
 27 B1   28 B1   35 A1   11 A2   36 A1   29 B1   30 B1   37 A1                 
  3.074   3.126   3.482   3.570   3.923   3.946   3.972   4.090
 38 A1   39 A1   31 B1   32 B1   16 B2   12 A2   40 A1   33 B1                 
  4.546
 41 A1                                                                         
 --------------------------------------------------------------
 
          Ground-State Mulliken Net Atomic Charges

     Atom                 Charge (a.u.)
  ----------------------------------------
      1 C                    -0.236384
      2 C                    -0.236384
      3 H                     0.205335
      4 H                     0.205335
      5 H                     0.033510
      6 H                     0.033510
      7 O                    -1.076187
      8 H                     0.071264
  ----------------------------------------
  Sum of atomic charges =    -1.000000

 -----------------------------------------------------------------
                    Cartesian Multipole Moments
 -----------------------------------------------------------------
    Charge (ESU x 10^10)
                -4.8032
    Dipole Moment (Debye)
         X      -0.0000      Y       0.0000      Z       5.2860
       Tot       5.2860
    Quadrupole Moments (Debye-Ang)
        XX     -23.6662     XY       0.0000     YY     -26.5223
        XZ      -0.0000     YZ      -0.0000     ZZ     -32.8986
    Octopole Moments (Debye-Ang^2)
       XXX      -0.0000    XXY      -0.0000    XYY      -0.0000
       YYY       0.0000    XXZ       1.1007    XYZ       0.0000
       YYZ      -0.0867    XZZ      -0.0000    YZZ       0.0000
       ZZZ       6.4278
    Hexadecapole Moments (Debye-Ang^3)
      XXXX     -88.3308   XXXY      -0.0000   XXYY     -21.9910
      XYYY       0.0000   YYYY     -40.6874   XXXZ      -0.0000
      XXYZ      -0.0000   XYYZ      -0.0000   YYYZ       0.0000
      XXZZ     -70.7168   XYZZ       0.0000   YYZZ     -65.6584
      XZZZ      -0.0000   YZZZ       0.0000   ZZZZ    -293.1496
 -----------------------------------------------------------------
 Total job time:  196.83s(wall), 417.09s(cpu) 
 Fri Mar  4 17:37:08 2022

        *************************************************************
        *                                                           *
        *  Thank you very much for using Q-Chem.  Have a nice day.  *
        *                                                           *
        *************************************************************


