/src/tsommerfeld/qchem/exe/qcprog.exe .input1.612121.12430.qcin.1 /src/jdavis/qchem.scratch/qchem12430/

                  Welcome to Q-Chem
     A Quantum Leap Into The Future Of Chemistry


 Q-Chem 5.4 (devel), Q-Chem, Inc., Pleasanton, CA (2021)

 E. Epifanovsky,  A. T. B. Gilbert,  Xintian Feng,  Joonho Lee,  Yuezhi Mao,  
 N. Mardirossian,  P. Pokhilko,  A. White,  M. Wormit,  M. P. Coons,  
 A. L. Dempwolff,  Zhengting Gan,  D. Hait,  P. R. Horn,  L. D. Jacobson,  
 I. Kaliman,  J. Kussmann,  A. W. Lange,  Ka Un Lao,  D. S. Levine,  Jie Liu,  
 S. C. McKenzie,  A. F. Morrison,  K. Nanda,  F. Plasser,  D. R. Rehn,  
 M. L. Vidal,  Zhi-Qiang You,  Ying Zhu,  B. Alam,  B. Albrecht,  
 A. Aldossary,  E. Alguire,  J. H. Andersen,  D. Barton,  K. Begam,  A. Behn,  
 Y. A. Bernard,  E. J. Berquist,  H. Burton,  A. Carreras,  K. Carter-Fenk,  
 R. Chakraborty,  A. D. Chien,  K. D. Closser,  V. Cofer-Shabica,  
 S. Dasgupta,  Jia Deng,  M. de Wergifosse,  M. Diedenhofen,  Hainam Do,  
 S. Ehlert,  Po-Tung Fang,  S. Fatehi,  Qingguo Feng,  T. Friedhoff,  
 J. Gayvert,  Qinghui Ge,  G. Gidofalvi,  M. Goldey,  J. Gomes,  
 C. Gonzalez-Espinoza,  S. Gulania,  A. Gunina,  M. W. D. Hanson-Heine,  
 P. H. P. Harbach,  A. W. Hauser,  M. F. Herbst,  M. Hernandez Vera,  
 M. Hodecker,  Z. C. Holden,  S. Houck,  Xunkun Huang,  Kerwin Hui,  
 B. C. Huynh,  M. Ivanov,  Hyunjun Ji,  Hanjie Jiang,  B. Kaduk,  S. Kaehler,  
 K. Khistyaev,  Jaehoon Kim,  P. Klunzinger,  Z. Koczor-Benda,  
 Joong Hoon Koh,  D. Kosenkov,  L. Koulias,  T. Kowalczyk,  C. M. Krauter,  
 K. Kue,  A. Kunitsa,  T. Kus,  A. Landau,  K. V. Lawler,  D. Lefrancois,  
 S. Lehtola,  Rain Li,  Yi-Pei Li,  Jiashu Liang,  M. Liebenthal,  
 Hung-Hsuan Lin,  You-Sheng Lin,  Fenglai Liu,  Kuan-Yu Liu,  
 M. Loipersberger,  A. Luenser,  A. Manjanath,  P. Manohar,  E. Mansoor,  
 S. F. Manzer,  Shan-Ping Mao,  A. V. Marenich,  T. Markovich,  S. Mason,  
 S. A. Maurer,  P. F. McLaughlin,  M. F. S. J. Menger,  J.-M. Mewes,  
 S. A. Mewes,  P. Morgante,  J. W. Mullinax,  K. J. Oosterbaan,  G. Paran,  
 Alexander C. Paul,  Suranjan K. Paul,  F. Pavosevic,  Zheng Pei,  S. Prager,  
 E. I. Proynov,  E. Ramos,  B. Rana,  A. E. Rask,  A. Rettig,  R. M. Richard,  
 F. Rob,  E. Rossomme,  T. Scheele,  M. Scheurer,  M. Schneider,  
 N. Sergueev,  S. M. Sharada,  W. Skomorowski,  D. W. Small,  C. J. Stein,  
 Yu-Chuan Su,  E. J. Sundstrom,  Zhen Tao,  J. Thirman,  T. Tsuchimochi,  
 N. M. Tubman,  S. P. Veccham,  O. Vydrov,  J. Wenzel,  J. Witte,  A. Yamada,  
 Kun Yao,  S. Yeganeh,  S. R. Yost,  A. Zech,  Igor Ying Zhang,  Xing Zhang,  
 Yu Zhang,  D. Zuev,  A. Aspuru-Guzik,  A. T. Bell,  N. A. Besley,  
 K. B. Bravaya,  B. R. Brooks,  D. Casanova,  Jeng-Da Chai,  S. Coriani,  
 C. J. Cramer,  A. E. DePrince, III,  R. A. DiStasio Jr.,  A. Dreuw,  
 B. D. Dunietz,  T. R. Furlani,  W. A. Goddard III,  S. Grimme,  
 S. Hammes-Schiffer,  T. Head-Gordon,  W. J. Hehre,  Chao-Ping Hsu,  
 T.-C. Jagau,  Yousung Jung,  A. Klamt,  Jing Kong,  D. S. Lambrecht,  
 WanZhen Liang,  N. J. Mayhall,  C. W. McCurdy,  J. B. Neaton,  
 C. Ochsenfeld,  J. A. Parkhill,  R. Peverati,  V. A. Rassolov,  Yihan Shao,  
 L. V. Slipchenko,  T. Stauch,  R. P. Steele,  J. E. Subotnik,  
 A. J. W. Thom,  A. Tkatchenko,  D. G. Truhlar,  T. Van Voorhis,  
 T. A. Wesolowski,  K. B. Whaley,  H. L. Woodcock III,  P. M. Zimmerman,  
 S. Faraji,  P. M. W. Gill,  M. Head-Gordon,  J. M. Herbert,  A. I. Krylov

 Additional authors for Version 5.4.1: 
 S. Kotaru,  Shaozhi Li,  Xiangyuan Li,  F. Matz,  A. Molle,  Haisheng Ren,  
 Yingli Su,  Hung-Yi Tsai,  C. Utku,  Fang Wang

 Contributors to earlier versions of Q-Chem not listed above: 
 R. D. Adamson,  B. Austin,  R. Baer,  J. Baker,  G. J. O. Beran,  
 K. Brandhorst,  S. T. Brown,  E. F. C. Byrd,  A. K. Chakraborty,  
 G. K. L. Chan,  Chun-Min Chang,  Yunqing Chen,  C.-L. Cheng,  
 Siu Hung Chien,  D. M. Chipman,  D. L. Crittenden,  H. Dachsel,  
 R. J. Doerksen,  A. D. Dutoi,  R. G. Edgar,  J. Fosso-Tande,  
 L. Fusti-Molnar,  D. Ghosh,  A. Ghysels,  A. Golubeva-Zadorozhnaya,  
 J. Gonthier,  M. S. Gordon,  S. R. Gwaltney,  G. Hawkins,  J. E. Herr,  
 A. Heyden,  S. Hirata,  E. G. Hohenstein,  G. Kedziora,  F. J. Keil,  
 C. Kelley,  Jihan Kim,  R. A. King,  R. Z. Khaliullin,  P. P. Korambath,  
 W. Kurlancheek,  A. Laurent,  A. M. Lee,  M. S. Lee,  S. V. Levchenko,  
 Ching Yeh Lin,  D. Liotard,  E. Livshits,  R. C. Lochan,  I. Lotan,  
 L. A. Martinez-Martinez,  P. E. Maslen,  N. Nair,  D. P. O'Neill,  
 D. Neuhauser,  E. Neuscamman,  C. M. Oana,  R. Olivares-Amaya,  R. Olson,  
 T. M. Perrine,  B. Peters,  P. A. Pieniazek,  A. Prociuk,  Y. M. Rhee,  
 J. Ritchie,  M. A. Rohrdanz,  E. Rosta,  N. J. Russ,  H. F. Schaefer III,  
 M. W. Schmidt,  N. E. Schultz,  S. Sharma,  N. Shenvi,  C. D. Sherrill,  
 A. C. Simmonett,  A. Sodt,  T. Stein,  D. Stuck,  K. S. Thanthiriwatte,  
 V. Vanovschi,  L. Vogt,  Tao Wang,  A. Warshel,  M. A. Watson,  
 C. F. Williams,  Q. Wu,  X. Xu,  Jun Yang,  W. Zhang,  Yan Zhao

 Please cite Q-Chem as follows:
 Y. Shao et al., Mol. Phys. 113, 184-215 (2015)
 DOI: 10.1080/00268976.2014.952696

 Q-Chem 5.4.1 for Intel X86 EM64T Linux

 Parts of Q-Chem use Armadillo 9.900.5 (Nocturnal Misbehaviour).
 http://arma.sourceforge.net/

 Q-Chem begins on Fri Mar  4 17:24:23 2022  

 Host: node01
0

     Scratch files written to /src/jdavis/qchem.scratch/qchem12430//
 Processing $rem in /src/tsommerfeld/qchem/config/preferences:
 Processing $rem in /home/jdavis/.qchemrc:

 Checking the input file for inconsistencies... 	...done.

--------------------------------------------------------------
User input:
--------------------------------------------------------------
$molecule
-1 1
C        -0.6645000000    0.0000000000    1.1619088658
C         0.6645000000    0.0000000000    1.1619088658
H        -1.1590800000    0.0000000000    0.1995598658
H         1.1590800000    0.0000000000    0.1995598658
H        -1.1590800000    0.0000000000    2.1242568658
H         1.1590800000    0.0000000000    2.1242568658
O         0.0000000000    0.0000000000   -1.5841414040
H         0.0000000000    0.0000000000   -2.5471307683
$end
$rem
   METHOD adc(2)
   BASIS gen
   PURECART 11
   EE_STATES [0,0,0,10]
   scf_convergence 8
   ADC_DAVIDSON_MAXITER 120
   ADC_DAVIDSON_MAXSUBSPACE 200
   adc_nguess_singles 100
   THRESH 14
   S2THRESH 14
   adc_davidson_conv 5
   adc_davidson_thresh 14
   THREADS 10
   MEM_TOTAL 95000
   STATE_ANALYSIS TRUE
$end
$basis
C 1
S   9   1.00
      6.665000D+03           6.920000D-04
      1.000000D+03           5.329000D-03
      2.280000D+02           2.707700D-02
      6.471000D+01           1.017180D-01
      2.106000D+01           2.747400D-01
      7.495000D+00           4.485640D-01
      2.797000D+00           2.850740D-01
      5.215000D-01           1.520400D-02
      1.596000D-01          -3.191000D-03
S   9   1.00
      6.665000D+03          -1.460000D-04
      1.000000D+03          -1.154000D-03
      2.280000D+02          -5.725000D-03
      6.471000D+01          -2.331200D-02
      2.106000D+01          -6.395500D-02
      7.495000D+00          -1.499810D-01
      2.797000D+00          -1.272620D-01
      5.215000D-01           5.445290D-01
      1.596000D-01           5.804960D-01
S   1   1.00
      1.596000D-01           1.000000D+00
S   1   1.00
      0.0469000              1.0000000
P   4   1.00
      9.439000D+00           3.810900D-02
      2.002000D+00           2.094800D-01
      5.456000D-01           5.085570D-01
      1.517000D-01           4.688420D-01
P   1   1.00
      1.517000D-01           1.000000D+00
P   1   1.00
      0.0698739      1.0000000
P   1   1.00
      0.034937      1.0000000
P   1   1.00
      0.0174685      1.0000000
P   1   1.00
      0.0087342      1.0000000
D   1   1.00
      5.500000D-01           1.0000000
****
C 2
S   9   1.00
      6.665000D+03           6.920000D-04
      1.000000D+03           5.329000D-03
      2.280000D+02           2.707700D-02
      6.471000D+01           1.017180D-01
      2.106000D+01           2.747400D-01
      7.495000D+00           4.485640D-01
      2.797000D+00           2.850740D-01
      5.215000D-01           1.520400D-02
      1.596000D-01          -3.191000D-03
S   9   1.00
      6.665000D+03          -1.460000D-04
      1.000000D+03          -1.154000D-03
      2.280000D+02          -5.725000D-03
      6.471000D+01          -2.331200D-02
      2.106000D+01          -6.395500D-02
      7.495000D+00          -1.499810D-01
      2.797000D+00          -1.272620D-01
      5.215000D-01           5.445290D-01
      1.596000D-01           5.804960D-01
S   1   1.00
      1.596000D-01           1.000000D+00
S   1   1.00
      0.0469000              1.0000000
P   4   1.00
      9.439000D+00           3.810900D-02
      2.002000D+00           2.094800D-01
      5.456000D-01           5.085570D-01
      1.517000D-01           4.688420D-01
P   1   1.00
      1.517000D-01           1.000000D+00
P   1   1.00
      0.0698739      1.0000000
P   1   1.00
      0.034937      1.0000000
P   1   1.00
      0.0174685      1.0000000
P   1   1.00
      0.0087342      1.0000000
D   1   1.00
      5.500000D-01           1.0000000
****
H 3
cc-pVDZ
****
H 4
cc-pVDZ
****
H 5
cc-pVDZ
****
H 6
cc-pVDZ
****
O 7
aug-cc-pVDZ
****
H 8
cc-pVDZ
****
$end
--------------------------------------------------------------
 ----------------------------------------------------------------
             Standard Nuclear Orientation (Angstroms)
    I     Atom           X                Y                Z
 ----------------------------------------------------------------
    1      C      -0.6645000000    -0.0000000000     1.0270977517
    2      C       0.6645000000     0.0000000000     1.0270977517
    3      H      -1.1590800000    -0.0000000000     0.0647487517
    4      H       1.1590800000     0.0000000000     0.0647487517
    5      H      -1.1590800000    -0.0000000000     1.9894457517
    6      H       1.1590800000     0.0000000000     1.9894457517
    7      O       0.0000000000    -0.0000000000    -1.7189525181
    8      H       0.0000000000    -0.0000000000    -2.6819418824
 ----------------------------------------------------------------
 Molecular Point Group                 C2v   NOp =  4
 Largest Abelian Subgroup              C2v   NOp =  4
 Nuclear Repulsion Energy =          64.38561153 hartrees
 There are       13 alpha and       13 beta electrons
 Requested basis set is non-standard
 There are 46 shells and 102 basis functions
 Total memory of 95000 MB is distributed as follows: 
   MEM_STATIC is set to 192 MB
   QALLOC/CCMAN JOB total memory use is  94808 MB
 Warning: actual memory use might exceed 95000 MB

 Total QAlloc Memory Limit  95000 MB
 Mega-Array Size       188 MB
 MEM_STATIC part       192 MB

                       Distance Matrix (Angstroms)
             C (  1)   C (  2)   H (  3)   H (  4)   H (  5)   H (  6)
   C (  2)  1.329000
   H (  3)  1.082000  2.061931
   H (  4)  2.061931  1.082000  2.318160
   H (  5)  1.082000  2.061931  1.924697  3.013026
   H (  6)  2.061931  1.082000  3.013026  1.924697  2.318160
   O (  7)  2.825306  2.825306  2.127218  2.127218  3.885316  3.885316
   H (  8)  3.768094  3.768094  2.981237  2.981237  4.813037  4.813037
             O (  7)
   H (  8)  0.962989
 
 A cutoff of  1.0D-14 yielded   1081 shell pairs
 There are      5353 function pairs (      5791 Cartesian)
 Smallest overlap matrix eigenvalue = 1.65E-04

 Scale SEOQF with 1.000000e-01/1.000000e-01/1.000000e-01

 Standard Electronic Orientation quadrupole field applied
 Nucleus-field energy     =    -0.0000000051 hartrees
 ================ Generating on-the-fly SAD Guess ================
Attempting to make child job directory: /src/jdavis/qchem.scratch/qchem12430//Frg1/
Attempting to make child job directory: /src/jdavis/qchem.scratch/qchem12430//Frg2/
Attempting to make child job directory: /src/jdavis/qchem.scratch/qchem12430//Frg3/
Creating input file /src/jdavis/qchem.scratch/qchem12430/Frg1.input
using default PutDataFrgm: nothing
calling putenv with: QCSCRATCH=/src/jdavis/qchem.scratch/qchem12430/ 
Spawning Job For Fragment 0
Done Job For Fragment 0
calling putenv with: QCSCRATCH=/src/jdavis/qchem.scratch 
calling putenv with: QCTHREADS=1 
Creating input file /src/jdavis/qchem.scratch/qchem12430/Frg2.input
using default PutDataFrgm: nothing
calling putenv with: QCSCRATCH=/src/jdavis/qchem.scratch/qchem12430/ 
Spawning Job For Fragment 1
Done Job For Fragment 1
calling putenv with: QCSCRATCH=/src/jdavis/qchem.scratch 
calling putenv with: QCTHREADS=1 
Creating input file /src/jdavis/qchem.scratch/qchem12430/Frg3.input
using default PutDataFrgm: nothing
calling putenv with: QCSCRATCH=/src/jdavis/qchem.scratch/qchem12430/ 
Spawning Job For Fragment 2
Done Job For Fragment 2
calling putenv with: QCSCRATCH=/src/jdavis/qchem.scratch 
calling putenv with: QCTHREADS=1 
 Time for running child jobs:  CPU 1.76 s  wall 80.89 s
 ============= Method Specific SAD Guess Constructed =============
 Guess from on-the-fly superposition of atomic densities
 Warning: Energy on first SCF cycle will be non-variational
 A restricted Hartree-Fock SCF calculation will be
 performed using Pulay DIIS extrapolation
 SCF converges when DIIS error is below 1.0E-08
 using 10 threads for integral computing
 -------------------------------------------------------
 OpenMP Integral computing Module                
 Release: version 1.0, May 2013, Q-Chem Inc. Pittsburgh 
 -------------------------------------------------------
 ---------------------------------------
  Cycle       Energy         DIIS Error
 ---------------------------------------
    1    -153.5752862423      5.28E-02
    2    -153.2899674859      1.08E-02
    3    -153.3529164318      9.17E-03
    4    -153.4403728706      6.93E-04
    5    -153.4413619223      1.89E-04
    6    -153.4414398810      4.15E-05
    7    -153.4414456277      1.11E-05
    8    -153.4414462349      3.35E-06
    9    -153.4414462862      6.38E-07
   10    -153.4414462879      1.17E-07
   11    -153.4414462880      3.81E-08
   12    -153.4414462880      1.26E-08
   13    -153.4414462880      2.45E-09 Convergence criterion met
 ---------------------------------------
 SCF time:  CPU 16.93 s  wall 1.70 s
 SCF   energy in the final basis set = -153.44144629
 Total energy in the final basis set = -153.44144629
================================================================================
|                                                                              |
|                                 A D C  M A N                                 |
|                                                                              |
 ------------------------------------------------------------------------------ 
|                                                                              |
| Components:                                                                  |
|                                                                              |
| - libvmm - 1.3-trunk                                                         |
|   Authors:                                                                   |
|   Evgeny Epifanovsky, Ilya Kaliman                                           |
|                                                                              |
| - libtensor - 2.5-trunk                                                      |
|   Authors:                                                                   |
|   Evgeny Epifanovsky, Michael Wormit, Dmitry Zuev, Sam Manzer,               |
|   Ilya Kaliman                                                               |
|                                                                              |
| - libwfa - 1.1-trunk                                                         |
|   Authors:                                                                   |
|   Felix Plasser, Stefanie Mewes (Baeppler), Benjamin Thomitzni,              |
|   Michael Wormit, Feng Chen, Anna I. Krylov, Pavel Pokhilko                  |
|                                                                              |
| - libadc - 1.1-trunk                                                         |
|   Authors:                                                                   |
|   Michael Wormit, Adrian L. Dempwolff, Philipp H. P. Harbach,                |
|   Caroline Krauter, Dirk Rehn, Matthias Schneider, Jan Wenzel                |
|                                                                              |
| - adcman - 2.6-trunk                                                         |
|   Authors:                                                                   |
|   Michael Wormit, Adrian L. Dempwolff, Philipp H. P. Harbach,                |
|   Caroline Krauter, Daniel Lefrancois, Jan-Michael Mewes, Dirk Rehn,         |
|   Matthias Schneider, Jan Wenzel, Andreas Dreuw                              |
|                                                                              |
| Authors of earlier versions of ADCMAN:                                       |
| Andreas Dreuw, Jan Hendrik Starcke, Dirk Rehn, Michael Wormit                |
|                                                                              |
================================================================================

 
 Alpha MOs, Restricted
 -- Occupied --                  
-20.213 -11.049 -11.047  -0.930  -0.854  -0.598  -0.473  -0.384
  1 A1    2 A1    1 B1    3 A1    4 A1    2 B1    5 A1    6 A1                 
 -0.328  -0.271  -0.194  -0.130  -0.129
  3 B1    7 A1    1 B2    4 B1    2 B2                                         
 -- Virtual --                   
  0.078   0.085   0.086   0.086   0.092   0.105   0.142   0.151
  5 B1    3 B2    8 A1    1 A2    6 B1    9 A1    7 B1   10 A1                 
  0.158   0.159   0.160   0.175   0.229   0.251   0.267   0.276
  4 B2   11 A1    2 A2    8 B1   12 A1    9 B1    3 A2   13 A1                 
  0.284   0.294   0.331   0.337   0.365   0.374   0.448   0.457
  5 B2   10 B1   14 A1   15 A1    4 A2   11 B1    6 B2   16 A1                 
  0.472   0.497   0.507   0.523   0.533   0.556   0.574   0.580
 12 B1   17 A1   13 B1   18 A1   14 B1    7 B2   15 B1   19 A1                 
  0.613   0.615   0.700   0.738   0.792   1.007   1.047   1.128
  5 A2   20 A1   21 A1   16 B1   17 B1   22 A1   23 A1   24 A1                 
  1.133   1.156   1.200   1.223   1.276   1.291   1.302   1.309
 18 B1   25 A1    8 B2   19 B1   26 A1    6 A2   20 B1    9 B2                 
  1.332   1.334   1.339   1.344   1.370   1.475   1.483   1.504
  7 A2   27 A1   21 B1   28 A1   10 B2   11 B2    8 A2   22 B1                 
  1.651   1.665   1.719   1.737   1.875   1.941   2.029   2.064
 23 B1   29 A1   12 B2   24 B1   30 A1   25 B1   31 A1    9 A2                 
  2.131   2.158   2.175   2.213   2.261   2.336   2.367   2.395
 13 B2   32 A1   26 B1   14 B2   33 A1   34 A1   10 A2   15 B2                 
  2.441   2.528   2.577   2.604   2.770   2.779   2.853   3.046
 27 B1   28 B1   35 A1   11 A2   36 A1   29 B1   30 B1   37 A1                 
  3.061   3.119   3.471   3.567   3.923   3.946   3.972   4.090
 38 A1   39 A1   31 B1   32 B1   16 B2   12 A2   40 A1   33 B1                 
  4.546
 41 A1                                                                         
 
 Beta MOs, Restricted
 -- Occupied --                  
-20.213 -11.049 -11.047  -0.930  -0.854  -0.598  -0.473  -0.384
  1 A1    2 A1    1 B1    3 A1    4 A1    2 B1    5 A1    6 A1                 
 -0.328  -0.271  -0.194  -0.130  -0.129
  3 B1    7 A1    1 B2    4 B1    2 B2                                         
 -- Virtual --                   
  0.078   0.085   0.086   0.086   0.092   0.105   0.142   0.151
  5 B1    3 B2    8 A1    1 A2    6 B1    9 A1    7 B1   10 A1                 
  0.158   0.159   0.160   0.175   0.229   0.251   0.267   0.276
  4 B2   11 A1    2 A2    8 B1   12 A1    9 B1    3 A2   13 A1                 
  0.284   0.294   0.331   0.337   0.365   0.374   0.448   0.457
  5 B2   10 B1   14 A1   15 A1    4 A2   11 B1    6 B2   16 A1                 
  0.472   0.497   0.507   0.523   0.533   0.556   0.574   0.580
 12 B1   17 A1   13 B1   18 A1   14 B1    7 B2   15 B1   19 A1                 
  0.613   0.615   0.700   0.738   0.792   1.007   1.047   1.128
  5 A2   20 A1   21 A1   16 B1   17 B1   22 A1   23 A1   24 A1                 
  1.133   1.156   1.200   1.223   1.276   1.291   1.302   1.309
 18 B1   25 A1    8 B2   19 B1   26 A1    6 A2   20 B1    9 B2                 
  1.332   1.334   1.339   1.344   1.370   1.475   1.483   1.504
  7 A2   27 A1   21 B1   28 A1   10 B2   11 B2    8 A2   22 B1                 
  1.651   1.665   1.719   1.737   1.875   1.941   2.029   2.064
 23 B1   29 A1   12 B2   24 B1   30 A1   25 B1   31 A1    9 A2                 
  2.131   2.158   2.175   2.213   2.261   2.336   2.367   2.395
 13 B2   32 A1   26 B1   14 B2   33 A1   34 A1   10 A2   15 B2                 
  2.441   2.528   2.577   2.604   2.770   2.779   2.853   3.046
 27 B1   28 B1   35 A1   11 A2   36 A1   29 B1   30 B1   37 A1                 
  3.061   3.119   3.471   3.567   3.923   3.946   3.972   4.090
 38 A1   39 A1   31 B1   32 B1   16 B2   12 A2   40 A1   33 B1                 
  4.546
 41 A1                                                                         

--------------------------------------------------------------------------------
                                   HF Summary                                   
--------------------------------------------------------------------------------
  Energy:                                                 -153.4414462880 a.u.
  Dip. moment [a.u.]:                  [  -0.000000,    0.000000,    2.079517]
  Total dipole [Debye]:                                               5.285607
  <r^2> [a.u.]:                        [  55.711641,   19.716776,  208.065849]
  Total <r^2> [a.u.]:                                               283.494266
--------------------------------------------------------------------------------

--------------------------------------------------------------------------------
                                 MP(2) Summary                                  
--------------------------------------------------------------------------------
  MP energy contribution:                                   -0.5295139837 a.u.
  Total energy:                                           -153.9709602717 a.u.
  Dip. moment [a.u.]:                  [  -0.000000,   -0.000000,    2.149827]
  Total dipole [Debye]:                                               5.464315
  <r^2> [a.u.]:                        [  56.715044,   20.418304,  209.362030]
  Total <r^2> [a.u.]:                                               286.495378

  Density matrix analysis:
  ------------------------
  NOs
    Occupation of frontier NOs:
       0.0447   1.9355
    Number of electrons: 26.000000
    Number of unpaired electrons: n_u =  0.71577, n_u,nl =  0.08549
    NO participation ratio (PR_NO): 23.011207
  
  
  Mulliken Population Analysis
  Atom      Charge (e)              h+              e-           Del q
  --------------------------------------------------------------------
   1 C       -0.228243        0.094632       -0.098159       -0.003527
   2 C       -0.228243        0.094632       -0.098159       -0.003527
   3 H        0.204863        0.017418       -0.011794        0.005624
   4 H        0.204863        0.017418       -0.011794        0.005624
   5 H        0.034300        0.018973       -0.012261        0.006712
   6 H        0.034300        0.018973       -0.012261        0.006712
   7 O       -1.076050        0.278837       -0.279433       -0.000596
   8 H        0.054210        0.015220       -0.032242       -0.017021
  --------------------------------------------------------------------
  Sum:       -1.000000        0.556103       -0.556103        0.000000
  
  Multipole moment analysis of the density matrix
    Molecular charge:                      -1.000000
    Number of electrons:                   26.000000
      Center of electronic charge [Ang]: [  0.000000,   0.000000,  -0.043755]
    Total nuclear charge:                  25.000000
      Center of nuclear charge [Ang]:    [  0.000000,   0.000000,  -0.000000]
    Dipole moment [D]:                     5.464314
      Cartesian components [D]:          [ -0.000000,  -0.000000,   5.464314]
    RMS size of the density [Ang]:         1.756057
      Cartesian components [Ang]:        [  0.781562,   0.468948,   1.500994]
  
  Exciton analysis of the difference density matrix
    <r_h> [Ang]:                  [  0.000000,   0.000000,  -0.483451]
    <r_e> [Ang]:                  [  0.000000,   0.000000,  -0.550356]
    |<r_e - r_h>| [Ang]:            0.066905
    Hole size [Ang]:                1.976112
      Cartesian components [Ang]: [  0.895260,   0.763576,   1.587602]
    Electron size [Ang]:            2.312375
      Cartesian components [Ang]: [  1.143136,   0.967629,   1.761820]
--------------------------------------------------------------------------------
  Starting Davidson for singlet states of irrep B2 ... 
--------------------------------------------------------------------------------
   It NVec Conv  Avg. Norm  Max. Norm  Conv. states           Remark
--------------------------------------------------------------------------------
       100    0  1.497e-01  5.267e-01  0.2115 n n n n n n n n Guess.
    1  110    0  1.561e-02  8.202e-02  0.0365 n n n n n n n n 
    2  120    0  1.106e-02  1.027e-01  0.0352 n n n n n n n n 
    3  130    0  2.009e-02  1.769e-01  0.0352 n n n n n n n n 
    4  140    0  5.388e-03  4.901e-02  0.0352 n n n n n n n n 
    5  150    4  1.787e-03  1.705e-02  0.0352 y y y n y n n n 
    6  160    5  2.709e-04  2.415e-03  0.0352 y y y y y n n n 
    7  170    7  3.851e-05  3.398e-04  0.0352 y y y y y y y n 
    8  180    8  5.316e-06  4.607e-05  0.0352 y y y y y y y n 
    9  190   10  7.471e-07  5.995e-06  0.0352 y y y y y y y y Converged.
--------------------------------------------------------------------------------
  Davidson Summary: 
 ------------------------------------------------------------
  State  0: excitation energy =   0.0352 a.u.   (converged)
  State  1: excitation energy =   0.0443 a.u.   (converged)
  State  2: excitation energy =   0.0499 a.u.   (converged)
  State  3: excitation energy =   0.0823 a.u.   (converged)
  State  4: excitation energy =   0.0841 a.u.   (converged)
  State  5: excitation energy =   0.0946 a.u.   (converged)
  State  6: excitation energy =   0.1325 a.u.   (converged)
  State  7: excitation energy =   0.1483 a.u.   (converged)
  State  8: excitation energy =   0.1633 a.u.   (converged)
  State  9: excitation energy =   0.1853 a.u.   (converged)
 ------------------------------------------------------------


--------------------------------------------------------------------------------
                   State-averaged natural transition orbitals
--------------------------------------------------------------------------------
--------------------------------------------------------------------------------

--------------------------------------------------------------------------------
                             Excited State Summary
--------------------------------------------------------------------------------
--------------------------------------------------------------------------------

  Excited state 1 (singlet, B2)                                    [converged]
  ----------------------------------------------------------------------------
  Term symbol:  1 (1) B2                                    R^2 =  1.02482e-09

  Total energy:                                           -153.9357930281 a.u.
  Excitation energy:                                               0.956949 eV

  Osc. strength:                                                      0.001461
  Trans. dip. moment [a.u.]:           [  -0.000000,   -0.249656,    0.000000]
  <i|r^2|0> [a.u.]:                    [   0.000000,   -0.000000,   -0.000000]

  Dip. moment [a.u.]:                  [   0.000000,   -0.000000,   -2.648846]
  Total dipole [Debye]:                                               6.732697
  <r^2> [a.u.]:                        [ 100.012961,   62.011258,  332.111986]
  Total <r^2> [a.u.]:                                               494.136205

  V1^2 = 0.8628, V2^2 = 0.1372

  Important amplitudes:
      occ i      occ j       vir a       vir b          v   
    ---------------------------------------------------------
     2 (B2) A               8 (A1) A                 -0.6000
     2 (B2) A               9 (A1) A                 -0.1953
    ---------------------------------------------------------

  Density matrix analysis:
  ------------------------
  NOs
    Occupation of frontier NOs:
       0.9596   0.9997
    Number of electrons: 26.000000
    Number of unpaired electrons: n_u =  2.75397, n_u,nl =  2.11794
    NO participation ratio (PR_NO):  3.885105
  
  
  Mulliken Population Analysis
  Atom      Charge (e)              h+              e-           Del q
  --------------------------------------------------------------------
   1 C       -0.731845        0.033842       -0.537444       -0.503602
   2 C       -0.731845        0.033842       -0.537444       -0.503602
   3 H        0.167070       -0.000388       -0.037405       -0.037793
   4 H        0.167070       -0.000388       -0.037405       -0.037793
   5 H        0.069994        0.036341       -0.000647        0.035694
   6 H        0.069994        0.036341       -0.000647        0.035694
   7 O       -0.189338        1.419080       -0.532368        0.886712
   8 H        0.178900        0.147345       -0.022656        0.124689
  --------------------------------------------------------------------
  Sum:       -1.000000        1.706016       -1.706016        0.000000
  
  Multipole moment analysis of the density matrix
    Molecular charge:                      -1.000000
    Number of electrons:                   26.000000
      Center of electronic charge [Ang]: [ -0.000000,   0.000000,   0.053912]
    Total nuclear charge:                  25.000000
      Center of nuclear charge [Ang]:    [  0.000000,   0.000000,  -0.000000]
    Dipole moment [D]:                     6.732695
      Cartesian components [D]:          [  0.000000,  -0.000000,  -6.732695]
    RMS size of the density [Ang]:         2.306318
      Cartesian components [Ang]:        [  1.037869,   0.817240,   1.890515]
  
  Exciton analysis of the difference density matrix
    <r_h> [Ang]:                  [  0.000000,   0.000000,  -1.496140]
    <r_e> [Ang]:                  [ -0.000000,   0.000000,  -0.007672]
    |<r_e - r_h>| [Ang]:            1.488467
    Hole size [Ang]:                1.805147
      Cartesian components [Ang]: [  0.864046,   0.897265,   1.306483]
    Electron size [Ang]:            6.291222
      Cartesian components [Ang]: [  2.802423,   2.762649,   4.908531]

  Transition density matrix analysis:
  -----------------------------------
  
  CT numbers (Mulliken)
    omega =     0.8483
    <Phe> =    -0.0003
  
  Exciton analysis of the transition density matrix
    Trans. dipole moment [D]:             0.317281
      Cartesian components [D]:         [ -0.000000,  -0.317281,   0.000000]
    <r_h> [Ang]:                        [  0.000000,   0.000000,  -1.746710]
    <r_e> [Ang]:                        [ -0.000000,  -0.000000,   0.854821]
    |<r_e - r_h>| [Ang]:                  2.601531
    Hole size [Ang]:                      1.097077
      Cartesian components [Ang]:       [  0.479288,   0.827839,   0.537164]
    Electron size [Ang]:                  7.957082
      Cartesian components [Ang]:       [  3.574673,   3.547959,   6.160264]
    RMS electron-hole separation [Ang]:   8.442570
      Cartesian components [Ang]:       [  3.606541,   3.643061,   6.708052]
    Covariance(r_h, r_e) [Ang^2]:         0.004855
    Correlation coefficient:              0.000556
    Center-of-mass size [Ang]:            4.016480
      Cartesian components [Ang]:       [  1.803390,   1.821728,   3.092119]

  Decomposition into state-averaged NTOs
    H- 0 -> L+ 6: -0.4799 ( 46.1%)
    H- 0 -> L+ 2:  0.3537 ( 25.0%)
    H- 0 -> L+ 5:  0.2109 (  8.9%)
    H- 0 -> L+ 0:  0.1288 (  3.3%)
    H- 0 -> L+ 1:  0.0786 (  1.2%)
                   omega =  84.8%
  ----------------------------------------------------------------------------


  Excited state 2 (singlet, B2)                                    [converged]
  ----------------------------------------------------------------------------
  Term symbol:  2 (1) B2                                    R^2 =  1.46989e-09

  Total energy:                                           -153.9266451239 a.u.
  Excitation energy:                                               1.205876 eV

  Osc. strength:                                                      0.000283
  Trans. dip. moment [a.u.]:           [   0.000000,   -0.097881,   -0.000000]
  <i|r^2|0> [a.u.]:                    [   0.000000,    0.000000,    0.000000]

  Dip. moment [a.u.]:                  [   0.000000,    0.000000,   -2.891915]
  Total dipole [Debye]:                                               7.350515
  <r^2> [a.u.]:                        [ 172.875978,  137.258835,  237.112115]
  Total <r^2> [a.u.]:                                               547.246927

  V1^2 = 0.8594, V2^2 = 0.1406

  Important amplitudes:
      occ i      occ j       vir a       vir b          v   
    ---------------------------------------------------------
     4 (B1) A               1 (A2) A                 -0.6479
     4 (B1) A               2 (A2) A                 -0.0969
    ---------------------------------------------------------

  Density matrix analysis:
  ------------------------
  NOs
    Occupation of frontier NOs:
       0.9591   0.9997
    Number of electrons: 26.000000
    Number of unpaired electrons: n_u =  2.75694, n_u,nl =  2.11885
    NO participation ratio (PR_NO):  3.894558
  
  
  Mulliken Population Analysis
  Atom      Charge (e)              h+              e-           Del q
  --------------------------------------------------------------------
   1 C       -0.721758        0.044151       -0.537667       -0.493515
   2 C       -0.721758        0.044151       -0.537667       -0.493515
   3 H        0.155978       -0.004960       -0.043924       -0.048885
   4 H        0.155978       -0.004960       -0.043924       -0.048885
   5 H        0.070732        0.037513       -0.001081        0.036432
   6 H        0.070732        0.037513       -0.001081        0.036432
   7 O       -0.180462        1.426720       -0.531132        0.895588
   8 H        0.170558        0.142087       -0.025739        0.116348
  --------------------------------------------------------------------
  Sum:       -1.000000        1.722214       -1.722214       -0.000000
  
  Multipole moment analysis of the density matrix
    Molecular charge:                      -1.000000
    Number of electrons:                   26.000000
      Center of electronic charge [Ang]: [ -0.000000,  -0.000000,   0.058859]
    Total nuclear charge:                  25.000000
      Center of nuclear charge [Ang]:    [  0.000000,   0.000000,  -0.000000]
    Dipole moment [D]:                     7.350513
      Cartesian components [D]:          [  0.000000,   0.000000,  -7.350513]
    RMS size of the density [Ang]:         2.427048
      Cartesian components [Ang]:        [  1.364526,   1.215863,   1.596969]
  
  Exciton analysis of the difference density matrix
    <r_h> [Ang]:                  [  0.000000,   0.000000,  -1.468178]
    <r_e> [Ang]:                  [ -0.000000,  -0.000000,   0.080976]
    |<r_e - r_h>| [Ang]:            1.549154
    Hole size [Ang]:                1.820548
      Cartesian components [Ang]: [  0.946157,   0.810496,   1.327509]
    Electron size [Ang]:            6.918169
      Cartesian components [Ang]: [  4.447780,   4.433389,   2.902306]

  Transition density matrix analysis:
  -----------------------------------
  
  CT numbers (Mulliken)
    omega =     0.8451
    <Phe> =     0.0000
  
  Exciton analysis of the transition density matrix
    Trans. dipole moment [D]:             0.124395
      Cartesian components [D]:         [  0.000000,  -0.124395,  -0.000000]
    <r_h> [Ang]:                        [  0.000000,   0.000000,  -1.729086]
    <r_e> [Ang]:                        [ -0.000000,  -0.000000,   1.027231]
    |<r_e - r_h>| [Ang]:                  2.756317
    Hole size [Ang]:                      1.140386
      Cartesian components [Ang]:       [  0.828476,   0.473076,   0.624745]
    Electron size [Ang]:                  8.829726
      Cartesian components [Ang]:       [  5.789322,   5.773565,   3.333732]
    RMS electron-hole separation [Ang]:   9.319498
      Cartesian components [Ang]:       [  5.847596,   5.792866,   4.370510]
    Covariance(r_h, r_e) [Ang^2]:         0.004398
    Correlation coefficient:              0.000437
    Center-of-mass size [Ang]:            4.451779
      Cartesian components [Ang]:       [  2.924502,   2.896482,   1.695882]

  Decomposition into state-averaged NTOs
    H- 1 -> L+ 7: -0.5559 ( 61.8%)
    H- 1 -> L+ 3:  0.2492 ( 12.4%)
    H- 1 -> L+ 8:  0.2265 ( 10.3%)
                   omega =  84.5%
  ----------------------------------------------------------------------------


  Excited state 3 (singlet, B2)                                    [converged]
  ----------------------------------------------------------------------------
  Term symbol:  3 (1) B2                                    R^2 =  1.87807e-09

  Total energy:                                           -153.9210304837 a.u.
  Excitation energy:                                               1.358659 eV

  Osc. strength:                                                      0.004180
  Trans. dip. moment [a.u.]:           [  -0.000000,    0.354353,    0.000000]
  <i|r^2|0> [a.u.]:                    [  -0.000000,    0.000000,   -0.000000]

  Dip. moment [a.u.]:                  [  -0.000000,    0.000000,   -3.245605]
  Total dipole [Debye]:                                               8.249506
  <r^2> [a.u.]:                        [ 181.658027,   63.940789,  244.988963]
  Total <r^2> [a.u.]:                                               490.587780

  V1^2 = 0.8627, V2^2 = 0.1373

  Important amplitudes:
      occ i      occ j       vir a       vir b          v   
    ---------------------------------------------------------
     2 (B2) A               9 (A1) A                  0.5949
     2 (B2) A               8 (A1) A                 -0.2237
    ---------------------------------------------------------

  Density matrix analysis:
  ------------------------
  NOs
    Occupation of frontier NOs:
       0.9597   0.9988
    Number of electrons: 26.000000
    Number of unpaired electrons: n_u =  2.75443, n_u,nl =  2.11804
    NO participation ratio (PR_NO):  3.889573
  
  
  Mulliken Population Analysis
  Atom      Charge (e)              h+              e-           Del q
  --------------------------------------------------------------------
   1 C       -0.730819        0.037277       -0.539853       -0.502576
   2 C       -0.730819        0.037277       -0.539853       -0.502576
   3 H        0.163944       -0.000391       -0.040527       -0.040919
   4 H        0.163944       -0.000391       -0.040527       -0.040919
   5 H        0.066746        0.036135       -0.003689        0.032446
   6 H        0.066746        0.036135       -0.003689        0.032446
   7 O       -0.164916        1.418672       -0.507539        0.911133
   8 H        0.165174        0.141789       -0.030825        0.110964
  --------------------------------------------------------------------
  Sum:       -1.000000        1.706502       -1.706502        0.000000
  
  Multipole moment analysis of the density matrix
    Molecular charge:                      -1.000000
    Number of electrons:                   26.000000
      Center of electronic charge [Ang]: [  0.000000,  -0.000000,   0.066058]
    Total nuclear charge:                  25.000000
      Center of nuclear charge [Ang]:    [  0.000000,   0.000000,  -0.000000]
    Dipole moment [D]:                     8.249503
      Cartesian components [D]:          [ -0.000000,   0.000000,  -8.249503]
    RMS size of the density [Ang]:         2.297700
      Cartesian components [Ang]:        [  1.398755,   0.829857,   1.623037]
  
  Exciton analysis of the difference density matrix
    <r_h> [Ang]:                  [  0.000000,   0.000000,  -1.484768]
    <r_e> [Ang]:                  [  0.000000,  -0.000000,   0.188326]
    |<r_e - r_h>| [Ang]:            1.673094
    Hole size [Ang]:                1.804585
      Cartesian components [Ang]: [  0.868931,   0.894487,   1.304369]
    Electron size [Ang]:            6.238280
      Cartesian components [Ang]: [  4.610592,   2.818143,   3.117154]

  Transition density matrix analysis:
  -----------------------------------
  
  CT numbers (Mulliken)
    omega =     0.8481
    <Phe> =    -0.0004
  
  Exciton analysis of the transition density matrix
    Trans. dipole moment [D]:             0.450338
      Cartesian components [D]:         [ -0.000000,   0.450338,   0.000000]
    <r_h> [Ang]:                        [  0.000000,   0.000000,  -1.744595]
    <r_e> [Ang]:                        [  0.000000,  -0.000000,   1.184200]
    |<r_e - r_h>| [Ang]:                  2.928794
    Hole size [Ang]:                      1.099812
      Cartesian components [Ang]:       [  0.479380,   0.827514,   0.543140]
    Electron size [Ang]:                  7.851251
      Cartesian components [Ang]:       [  5.965589,   3.624212,   3.594300]
    RMS electron-hole separation [Ang]:   8.450152
      Cartesian components [Ang]:       [  5.984740,   3.715968,   4.666855]
    Covariance(r_h, r_e) [Ang^2]:         0.012255
    Correlation coefficient:              0.001419
    Center-of-mass size [Ang]:            3.964727
      Cartesian components [Ang]:       [  2.992449,   1.859500,   1.818398]

  Decomposition into state-averaged NTOs
    H- 0 -> L+ 5: -0.5148 ( 53.0%)
    H- 0 -> L+ 2:  0.2181 (  9.5%)
    H- 0 -> L+ 9: -0.1946 (  7.6%)
    H- 0 -> L+ 4: -0.1719 (  5.9%)
    H- 0 -> L+ 1: -0.1323 (  3.5%)
    H- 0 -> L+ 0: -0.1267 (  3.2%)
    H- 0 -> L+ 6: -0.1018 (  2.1%)
                   omega =  84.8%
  ----------------------------------------------------------------------------


  Excited state 4 (singlet, B2)                                    [converged]
  ----------------------------------------------------------------------------
  Term symbol:  4 (1) B2                                    R^2 =  3.83061e-09

  Total energy:                                           -153.8886557533 a.u.
  Excitation energy:                                               2.239620 eV

  Osc. strength:                                                      0.011451
  Trans. dip. moment [a.u.]:           [   0.000000,    0.456824,   -0.000000]
  <i|r^2|0> [a.u.]:                    [   0.000000,    0.000000,    0.000000]

  Dip. moment [a.u.]:                  [  -0.000000,    0.000000,   -3.846116]
  Total dipole [Debye]:                                               9.775854
  <r^2> [a.u.]:                        [ 100.546630,   43.628701,  264.501575]
  Total <r^2> [a.u.]:                                               408.676906

  V1^2 = 0.8659, V2^2 = 0.1341

  Important amplitudes:
      occ i      occ j       vir a       vir b          v   
    ---------------------------------------------------------
     2 (B2) A              10 (A1) A                  0.4840
     2 (B2) A              11 (A1) A                  0.3971
    ---------------------------------------------------------

  Density matrix analysis:
  ------------------------
  NOs
    Occupation of frontier NOs:
       0.9605   0.9980
    Number of electrons: 26.000000
    Number of unpaired electrons: n_u =  2.75151, n_u,nl =  2.11645
    NO participation ratio (PR_NO):  3.882166
  
  
  Mulliken Population Analysis
  Atom      Charge (e)              h+              e-           Del q
  --------------------------------------------------------------------
   1 C       -0.770530        0.033848       -0.576135       -0.542287
   2 C       -0.770530        0.033848       -0.576135       -0.542287
   3 H        0.162023       -0.000275       -0.042565       -0.042839
   4 H        0.162023       -0.000275       -0.042565       -0.042839
   5 H        0.082395        0.042407        0.005688        0.048095
   6 H        0.082395        0.042407        0.005688        0.048095
   7 O       -0.065000        1.414632       -0.403582        1.011050
   8 H        0.117223        0.135172       -0.072159        0.063013
  --------------------------------------------------------------------
  Sum:       -1.000000        1.701765       -1.701765        0.000000
  
  Multipole moment analysis of the density matrix
    Molecular charge:                      -1.000000
    Number of electrons:                   26.000000
      Center of electronic charge [Ang]: [  0.000000,  -0.000000,   0.078280]
    Total nuclear charge:                  25.000000
      Center of nuclear charge [Ang]:    [  0.000000,   0.000000,  -0.000000]
    Dipole moment [D]:                     9.775851
      Cartesian components [D]:          [ -0.000000,   0.000000,  -9.775851]
    RMS size of the density [Ang]:         2.096534
      Cartesian components [Ang]:        [  1.040634,   0.685489,   1.686013]
  
  Exciton analysis of the difference density matrix
    <r_h> [Ang]:                  [  0.000000,   0.000000,  -1.463045]
    <r_e> [Ang]:                  [  0.000000,   0.000000,   0.401441]
    |<r_e - r_h>| [Ang]:            1.864486
    Hole size [Ang]:                1.815308
      Cartesian components [Ang]: [  0.864182,   0.890286,   1.325112]
    Electron size [Ang]:            5.037845
      Cartesian components [Ang]: [  2.821237,   2.147539,   3.578908]

  Transition density matrix analysis:
  -----------------------------------
  
  CT numbers (Mulliken)
    omega =     0.8509
    <Phe> =    -0.0009
  
  Exciton analysis of the transition density matrix
    Trans. dipole moment [D]:             0.580566
      Cartesian components [D]:         [  0.000000,   0.580566,  -0.000000]
    <r_h> [Ang]:                        [  0.000000,   0.000000,  -1.742986]
    <r_e> [Ang]:                        [  0.000000,  -0.000000,   1.517229]
    |<r_e - r_h>| [Ang]:                  3.260215
    Hole size [Ang]:                      1.100910
      Cartesian components [Ang]:       [  0.479031,   0.826513,   0.547182]
    Electron size [Ang]:                  6.148575
      Cartesian components [Ang]:       [  3.594810,   2.727436,   4.176530]
    RMS electron-hole separation [Ang]:   7.044479
      Cartesian components [Ang]:       [  3.626403,   2.849000,   5.325137]
    Covariance(r_h, r_e) [Ang^2]:         0.010646
    Correlation coefficient:              0.001573
    Center-of-mass size [Ang]:            3.124030
      Cartesian components [Ang]:       [  1.813385,   1.425418,   2.106985]

  Decomposition into state-averaged NTOs
    H- 0 -> L+ 4: -0.4185 ( 35.0%)
    H- 0 -> L+ 2: -0.3506 ( 24.6%)
    H- 0 -> L+ 6: -0.2833 ( 16.1%)
    H- 0 -> L+ 0: -0.1498 (  4.5%)
    H- 0 -> L+ 1: -0.1060 (  2.2%)
    H- 0 -> L+ 9:  0.0873 (  1.5%)
    H- 0 -> L+ 5:  0.0754 (  1.1%)
                   omega =  85.1%
  ----------------------------------------------------------------------------


  Excited state 5 (singlet, B2)                                    [converged]
  ----------------------------------------------------------------------------
  Term symbol:  5 (1) B2                                    R^2 =  2.41432e-09

  Total energy:                                           -153.8868555725 a.u.
  Excitation energy:                                               2.288605 eV

  Osc. strength:                                                      0.003501
  Trans. dip. moment [a.u.]:           [   0.000000,    0.249889,    0.000000]
  <i|r^2|0> [a.u.]:                    [  -0.000000,    0.000000,    0.000000]

  Dip. moment [a.u.]:                  [  -0.000000,    0.000000,   -2.813903]
  Total dipole [Debye]:                                               7.152230
  <r^2> [a.u.]:                        [ 120.719648,   37.197286,  236.571951]
  Total <r^2> [a.u.]:                                               394.488886

  V1^2 = 0.8675, V2^2 = 0.1325

  Important amplitudes:
      occ i      occ j       vir a       vir b          v   
    ---------------------------------------------------------
     2 (B2) A              11 (A1) A                  0.4538
     2 (B2) A              10 (A1) A                 -0.4251
    ---------------------------------------------------------

  Density matrix analysis:
  ------------------------
  NOs
    Occupation of frontier NOs:
       0.9611   0.9978
    Number of electrons: 26.000000
    Number of unpaired electrons: n_u =  2.75145, n_u,nl =  2.11652
    NO participation ratio (PR_NO):  3.880404
  
  
  Mulliken Population Analysis
  Atom      Charge (e)              h+              e-           Del q
  --------------------------------------------------------------------
   1 C       -0.725010        0.032546       -0.529313       -0.496767
   2 C       -0.725010        0.032546       -0.529313       -0.496767
   3 H        0.181338        0.002710       -0.026235       -0.023524
   4 H        0.181338        0.002710       -0.026235       -0.023524
   5 H        0.068533        0.036084       -0.001850        0.034233
   6 H        0.068533        0.036084       -0.001850        0.034233
   7 O       -0.258548        1.404400       -0.586899        0.817501
   8 H        0.208825        0.142447        0.012168        0.154615
  --------------------------------------------------------------------
  Sum:       -1.000000        1.689526       -1.689526        0.000000
  
  Multipole moment analysis of the density matrix
    Molecular charge:                      -1.000000
    Number of electrons:                   26.000000
      Center of electronic charge [Ang]: [  0.000000,  -0.000000,   0.057271]
    Total nuclear charge:                  25.000000
      Center of nuclear charge [Ang]:    [  0.000000,   0.000000,  -0.000000]
    Dipole moment [D]:                     7.152228
      Cartesian components [D]:          [ -0.000000,   0.000000,  -7.152228]
    RMS size of the density [Ang]:         2.060460
      Cartesian components [Ang]:        [  1.140259,   0.632951,   1.595205]
  
  Exciton analysis of the difference density matrix
    <r_h> [Ang]:                  [  0.000000,   0.000000,  -1.488808]
    <r_e> [Ang]:                  [  0.000000,  -0.000000,   0.065884]
    |<r_e - r_h>| [Ang]:            1.554692
    Hole size [Ang]:                1.788415
      Cartesian components [Ang]: [  0.862695,   0.888684,   1.290126]
    Electron size [Ang]:            4.828032
      Cartesian components [Ang]: [  3.369363,   1.889649,   2.895947]

  Transition density matrix analysis:
  -----------------------------------
  
  CT numbers (Mulliken)
    omega =     0.8526
    <Phe> =    -0.0006
  
  Exciton analysis of the transition density matrix
    Trans. dipole moment [D]:             0.317578
      Cartesian components [D]:         [  0.000000,   0.317578,   0.000000]
    <r_h> [Ang]:                        [  0.000000,   0.000000,  -1.744369]
    <r_e> [Ang]:                        [  0.000000,  -0.000000,   0.952842]
    |<r_e - r_h>| [Ang]:                  2.697211
    Hole size [Ang]:                      1.098618
      Cartesian components [Ang]:       [  0.478965,   0.826344,   0.542872]
    Electron size [Ang]:                  5.931906
      Cartesian components [Ang]:       [  4.307600,   2.373729,   3.316248]
    RMS electron-hole separation [Ang]:   6.607512
      Cartesian components [Ang]:       [  4.333855,   2.513071,   4.308293]
    Covariance(r_h, r_e) [Ang^2]:         0.005098
    Correlation coefficient:              0.000782
    Center-of-mass size [Ang]:            3.016814
      Cartesian components [Ang]:       [  2.167219,   1.256915,   1.680623]

  Decomposition into state-averaged NTOs
    H- 0 -> L+ 4:  0.4629 ( 42.9%)
    H- 0 -> L+ 6: -0.2780 ( 15.5%)
    H- 0 -> L+ 1: -0.2420 ( 11.7%)
    H- 0 -> L+ 2: -0.2064 (  8.5%)
    H- 0 -> L+ 0: -0.1506 (  4.5%)
    H- 0 -> L+ 5: -0.0995 (  2.0%)
                   omega =  85.3%
  ----------------------------------------------------------------------------


  Excited state 6 (singlet, B2)                                    [converged]
  ----------------------------------------------------------------------------
  Term symbol:  6 (1) B2                                    R^2 =  4.38577e-08

  Total energy:                                           -153.8763886204 a.u.
  Excitation energy:                                               2.573426 eV

  Osc. strength:                                                      0.002166
  Trans. dip. moment [a.u.]:           [  -0.000000,    0.185331,    0.000000]
  <i|r^2|0> [a.u.]:                    [   0.000000,    0.000000,    0.000000]

  Dip. moment [a.u.]:                  [   0.000000,    0.000000,   -2.874610]
  Total dipole [Debye]:                                               7.306531
  <r^2> [a.u.]:                        [ 117.078218,   81.710496,  218.860496]
  Total <r^2> [a.u.]:                                               417.649210

  V1^2 = 0.8658, V2^2 = 0.1342

  Important amplitudes:
      occ i      occ j       vir a       vir b          v   
    ---------------------------------------------------------
     4 (B1) A               2 (A2) A                  0.6311
     4 (B1) A               3 (A2) A                 -0.1551
    ---------------------------------------------------------

  Density matrix analysis:
  ------------------------
  NOs
    Occupation of frontier NOs:
       0.9612   0.9978
    Number of electrons: 26.000000
    Number of unpaired electrons: n_u =  2.75163, n_u,nl =  2.11588
    NO participation ratio (PR_NO):  3.880770
  
  
  Mulliken Population Analysis
  Atom      Charge (e)              h+              e-           Del q
  --------------------------------------------------------------------
   1 C       -0.714922        0.043042       -0.529721       -0.486679
   2 C       -0.714922        0.043042       -0.529721       -0.486679
   3 H        0.154820       -0.003952       -0.046090       -0.050042
   4 H        0.154820       -0.003952       -0.046090       -0.050042
   5 H        0.066505        0.033369       -0.001164        0.032205
   6 H        0.066505        0.033369       -0.001164        0.032205
   7 O       -0.178646        1.411608       -0.514205        0.897403
   8 H        0.165840        0.136011       -0.024381        0.111630
  --------------------------------------------------------------------
  Sum:       -1.000000        1.692537       -1.692537        0.000000
  
  Multipole moment analysis of the density matrix
    Molecular charge:                      -1.000000
    Number of electrons:                   26.000000
      Center of electronic charge [Ang]: [ -0.000000,  -0.000000,   0.058507]
    Total nuclear charge:                  25.000000
      Center of nuclear charge [Ang]:    [  0.000000,   0.000000,  -0.000000]
    Dipole moment [D]:                     7.306529
      Cartesian components [D]:          [  0.000000,   0.000000,  -7.306529]
    RMS size of the density [Ang]:         2.120093
      Cartesian components [Ang]:        [  1.122930,   0.938109,   1.534202]
  
  Exciton analysis of the difference density matrix
    <r_h> [Ang]:                  [  0.000000,   0.000000,  -1.479563]
    <r_e> [Ang]:                  [ -0.000000,  -0.000000,   0.091344]
    |<r_e - r_h>| [Ang]:            1.570906
    Hole size [Ang]:                1.783349
      Cartesian components [Ang]: [  0.935764,   0.792136,   1.295068]
    Electron size [Ang]:            5.201957
      Cartesian components [Ang]: [  3.295858,   3.281495,   2.330123]

  Transition density matrix analysis:
  -----------------------------------
  
  CT numbers (Mulliken)
    omega =     0.8504
    <Phe> =     0.0001
  
  Exciton analysis of the transition density matrix
    Trans. dipole moment [D]:             0.235533
      Cartesian components [D]:         [ -0.000000,   0.235533,   0.000000]
    <r_h> [Ang]:                        [  0.000000,   0.000000,  -1.724961]
    <r_e> [Ang]:                        [ -0.000000,  -0.000000,   1.026547]
    |<r_e - r_h>| [Ang]:                  2.751508
    Hole size [Ang]:                      1.143720
      Cartesian components [Ang]:       [  0.827031,   0.472328,   0.633263]
    Electron size [Ang]:                  6.442190
      Cartesian components [Ang]:       [  4.224457,   4.210849,   2.434034]
    RMS electron-hole separation [Ang]:   7.097024
      Cartesian components [Ang]:       [  4.303277,   4.237134,   3.727766]
    Covariance(r_h, r_e) [Ang^2]:         0.006478
    Correlation coefficient:              0.000879
    Center-of-mass size [Ang]:            3.271959
      Cartesian components [Ang]:       [  2.153012,   2.118689,   1.257542]

  Decomposition into state-averaged NTOs
    H- 1 -> L+ 3: -0.6027 ( 72.6%)
    H- 1 -> L+ 7: -0.2257 ( 10.2%)
    H- 1 -> L+ 8:  0.1031 (  2.1%)
                   omega =  85.0%
  ----------------------------------------------------------------------------


  Excited state 7 (singlet, B2)                                    [converged]
  ----------------------------------------------------------------------------
  Term symbol:  7 (1) B2                                    R^2 =  6.08004e-08

  Total energy:                                           -153.8385060035 a.u.
  Excitation energy:                                               3.604264 eV

  Osc. strength:                                                      0.009424
  Trans. dip. moment [a.u.]:           [   0.000000,   -0.326692,    0.000000]
  <i|r^2|0> [a.u.]:                    [  -0.000000,    0.000000,    0.000000]

  Dip. moment [a.u.]:                  [  -0.000000,    0.000000,   -2.367938]
  Total dipole [Debye]:                                               6.018699
  <r^2> [a.u.]:                        [ 109.449887,   36.997119,  230.154878]
  Total <r^2> [a.u.]:                                               376.601885

  V1^2 = 0.8730, V2^2 = 0.1270

  Important amplitudes:
      occ i      occ j       vir a       vir b          v   
    ---------------------------------------------------------
     2 (B2) A              12 (A1) A                  0.5700
     2 (B2) A              14 (A1) A                 -0.2453
    ---------------------------------------------------------

  Density matrix analysis:
  ------------------------
  NOs
    Occupation of frontier NOs:
       0.9635   0.9926
    Number of electrons: 26.000000
    Number of unpaired electrons: n_u =  2.74881, n_u,nl =  2.11481
    NO participation ratio (PR_NO):  3.885596
  
  
  Mulliken Population Analysis
  Atom      Charge (e)              h+              e-           Del q
  --------------------------------------------------------------------
   1 C       -0.651546        0.037743       -0.461045       -0.423302
   2 C       -0.651546        0.037743       -0.461045       -0.423302
   3 H        0.166349        0.000667       -0.039181       -0.038514
   4 H        0.166349        0.000667       -0.039181       -0.038514
   5 H        0.043758        0.034839       -0.025381        0.009458
   6 H        0.043758        0.034839       -0.025381        0.009458
   7 O       -0.525410        1.350949       -0.800310        0.550639
   8 H        0.408286        0.152719        0.201357        0.354076
  --------------------------------------------------------------------
  Sum:       -1.000000        1.650167       -1.650167        0.000000
  
  Multipole moment analysis of the density matrix
    Molecular charge:                      -1.000000
    Number of electrons:                   26.000000
      Center of electronic charge [Ang]: [  0.000000,  -0.000000,   0.048195]
    Total nuclear charge:                  25.000000
      Center of nuclear charge [Ang]:    [  0.000000,   0.000000,  -0.000000]
    Dipole moment [D]:                     6.018698
      Cartesian components [D]:          [ -0.000000,   0.000000,  -6.018698]
    RMS size of the density [Ang]:         2.013406
      Cartesian components [Ang]:        [  1.085731,   0.631246,   1.573697]
  
  Exciton analysis of the difference density matrix
    <r_h> [Ang]:                  [  0.000000,   0.000000,  -1.477360]
    <r_e> [Ang]:                  [  0.000000,  -0.000000,  -0.028599]
    |<r_e - r_h>| [Ang]:            1.448762
    Hole size [Ang]:                1.775708
      Cartesian components [Ang]: [  0.861436,   0.876270,   1.281880]
    Electron size [Ang]:            4.541556
      Cartesian components [Ang]: [  3.113041,   1.892413,   2.711730]

  Transition density matrix analysis:
  -----------------------------------
  
  CT numbers (Mulliken)
    omega =     0.8565
    <Phe> =    -0.0039
  
  Exciton analysis of the transition density matrix
    Trans. dipole moment [D]:             0.415184
      Cartesian components [D]:         [  0.000000,  -0.415184,   0.000000]
    <r_h> [Ang]:                        [  0.000000,   0.000000,  -1.733892]
    <r_e> [Ang]:                        [  0.000000,  -0.000000,   0.712543]
    |<r_e - r_h>| [Ang]:                  2.446435
    Hole size [Ang]:                      1.110336
      Cartesian components [Ang]:       [  0.478595,   0.823609,   0.570491]
    Electron size [Ang]:                  5.508760
      Cartesian components [Ang]:       [  3.903210,   2.348991,   3.097359]
    RMS electron-hole separation [Ang]:   6.123701
      Cartesian components [Ang]:       [  3.932221,   2.487519,   3.981156]
    Covariance(r_h, r_e) [Ang^2]:         0.032304
    Correlation coefficient:              0.005281
    Center-of-mass size [Ang]:            2.812645
      Cartesian components [Ang]:       [  1.966331,   1.245435,   1.579052]

  Decomposition into state-averaged NTOs
    H- 0 -> L+ 9: -0.4115 ( 33.9%)
    H- 0 -> L+ 0:  0.3291 ( 21.7%)
    H- 0 -> L+ 2: -0.2860 ( 16.4%)
    H- 0 -> L+ 1:  0.2212 (  9.8%)
    H- 0 -> L+ 6: -0.0978 (  1.9%)
    H- 0 -> L+ 5: -0.0913 (  1.7%)
                   omega =  85.6%
  ----------------------------------------------------------------------------


  Excited state 8 (singlet, B2)                                    [converged]
  ----------------------------------------------------------------------------
  Term symbol:  8 (1) B2                                    R^2 =  5.99454e-06

  Total energy:                                           -153.8227031188 a.u.
  Excitation energy:                                               4.034282 eV

  Osc. strength:                                                      0.000143
  Trans. dip. moment [a.u.]:           [   0.000000,    0.038030,    0.000000]
  <i|r^2|0> [a.u.]:                    [  -0.000000,   -0.000000,   -0.000000]

  Dip. moment [a.u.]:                  [   0.000000,    0.000000,   -2.806550]
  Total dipole [Debye]:                                               7.133539
  <r^2> [a.u.]:                        [  76.963840,   40.970690,  206.546614]
  Total <r^2> [a.u.]:                                               324.481145

  V1^2 = 0.8682, V2^2 = 0.1318

  Important amplitudes:
      occ i      occ j       vir a       vir b          v   
    ---------------------------------------------------------
     4 (B1) A               3 (A2) A                 -0.5736
     4 (B1) A               4 (A2) A                 -0.2822
    ---------------------------------------------------------

  Density matrix analysis:
  ------------------------
  NOs
    Occupation of frontier NOs:
       0.9652   0.9944
    Number of electrons: 26.000000
    Number of unpaired electrons: n_u =  2.72894, n_u,nl =  2.10376
    NO participation ratio (PR_NO):  3.822313
  
  
  Mulliken Population Analysis
  Atom      Charge (e)              h+              e-           Del q
  --------------------------------------------------------------------
   1 C       -0.654469        0.088910       -0.515135       -0.426226
   2 C       -0.654469        0.088910       -0.515135       -0.426226
   3 H        0.133241        0.001556       -0.073178       -0.071622
   4 H        0.133241        0.001556       -0.073178       -0.071622
   5 H        0.031805        0.010926       -0.013421       -0.002495
   6 H        0.031805        0.010926       -0.013421       -0.002495
   7 O       -0.173385        1.361771       -0.459106        0.902665
   8 H        0.152232        0.119106       -0.021084        0.098022
  --------------------------------------------------------------------
  Sum:       -1.000000        1.683659       -1.683659        0.000000
  
  Multipole moment analysis of the density matrix
    Molecular charge:                      -1.000000
    Number of electrons:                   26.000000
      Center of electronic charge [Ang]: [ -0.000000,  -0.000000,   0.057122]
    Total nuclear charge:                  25.000000
      Center of nuclear charge [Ang]:    [  0.000000,   0.000000,  -0.000000]
    Dipole moment [D]:                     7.133537
      Cartesian components [D]:          [  0.000000,   0.000000,  -7.133537]
    RMS size of the density [Ang]:         1.868557
      Cartesian components [Ang]:        [  0.910454,   0.664280,   1.490407]
  
  Exciton analysis of the difference density matrix
    <r_h> [Ang]:                  [  0.000000,   0.000000,  -1.404241]
    <r_e> [Ang]:                  [ -0.000000,  -0.000000,   0.153557]
    |<r_e - r_h>| [Ang]:            1.557798
    Hole size [Ang]:                1.714283
      Cartesian components [Ang]: [  0.898555,   0.738839,   1.259159]
    Electron size [Ang]:            3.347376
      Cartesian components [Ang]: [  2.043333,   1.991026,   1.750866]

  Transition density matrix analysis:
  -----------------------------------
  
  CT numbers (Mulliken)
    omega =     0.8432
    <Phe> =    -0.0007
  
  Exciton analysis of the transition density matrix
    Trans. dipole moment [D]:             0.048331
      Cartesian components [D]:         [  0.000000,   0.048331,   0.000000]
    <r_h> [Ang]:                        [  0.000000,   0.000000,  -1.695699]
    <r_e> [Ang]:                        [ -0.000000,  -0.000000,   1.024274]
    |<r_e - r_h>| [Ang]:                  2.719973
    Hole size [Ang]:                      1.177666
      Cartesian components [Ang]:       [  0.825476,   0.469183,   0.696674]
    Electron size [Ang]:                  3.852042
      Cartesian components [Ang]:       [  2.543988,   2.500578,   1.453775]
    RMS electron-hole separation [Ang]:   4.858577
      Cartesian components [Ang]:       [  2.671757,   2.543970,   3.161598]
    Covariance(r_h, r_e) [Ang^2]:         0.008802
    Correlation coefficient:              0.001940
    Center-of-mass size [Ang]:            2.015113
      Cartesian components [Ang]:       [  1.338683,   1.272229,   0.806254]

  Decomposition into state-averaged NTOs
    H- 1 -> L+ 8: -0.5989 ( 71.7%)
    H- 1 -> L+ 7: -0.2488 ( 12.4%)
                   omega =  84.3%
  ----------------------------------------------------------------------------


  Excited state 9 (singlet, B2)                                    [converged]
  ----------------------------------------------------------------------------
  Term symbol:  9 (1) B2                                    R^2 =  9.75092e-07

  Total energy:                                           -153.8076920082 a.u.
  Excitation energy:                                               4.442755 eV

  Osc. strength:                                                      0.000899
  Trans. dip. moment [a.u.]:           [   0.000000,    0.090879,   -0.000000]
  <i|r^2|0> [a.u.]:                    [  -0.000000,   -0.000000,   -0.000000]

  Dip. moment [a.u.]:                  [  -0.000000,   -0.000000,    0.901222]
  Total dipole [Debye]:                                               2.290678
  <r^2> [a.u.]:                        [  78.425958,   27.961371,  222.525765]
  Total <r^2> [a.u.]:                                               328.913094

  V1^2 = 0.8865, V2^2 = 0.1135

  Important amplitudes:
      occ i      occ j       vir a       vir b          v   
    ---------------------------------------------------------
     2 (B2) A              13 (A1) A                 -0.4620
     2 (B2) A              14 (A1) A                  0.3686
    ---------------------------------------------------------

  Density matrix analysis:
  ------------------------
  NOs
    Occupation of frontier NOs:
       0.9651   0.9963
    Number of electrons: 26.000000
    Number of unpaired electrons: n_u =  2.73063, n_u,nl =  2.10701
    NO participation ratio (PR_NO):  3.818396
  
  
  Mulliken Population Analysis
  Atom      Charge (e)              h+              e-           Del q
  --------------------------------------------------------------------
   1 C       -0.424582        0.032807       -0.229146       -0.196339
   2 C       -0.424582        0.032807       -0.229146       -0.196339
   3 H        0.225167        0.005645        0.014659        0.020304
   4 H        0.225167        0.005645        0.014659        0.020304
   5 H        0.071643        0.021714        0.015629        0.037342
   6 H        0.071643        0.021714        0.015629        0.037342
   7 O       -1.368792        1.282540       -1.575282       -0.292743
   8 H        0.624336        0.178325        0.391801        0.570126
  --------------------------------------------------------------------
  Sum:       -1.000000        1.581199       -1.581199        0.000000
  
  Multipole moment analysis of the density matrix
    Molecular charge:                      -1.000000
    Number of electrons:                   26.000000
      Center of electronic charge [Ang]: [  0.000000,   0.000000,  -0.018343]
    Total nuclear charge:                  25.000000
      Center of nuclear charge [Ang]:    [  0.000000,   0.000000,  -0.000000]
    Dipole moment [D]:                     2.290677
      Cartesian components [D]:          [ -0.000000,  -0.000000,   2.290677]
    RMS size of the density [Ang]:         1.882064
      Cartesian components [Ang]:        [  0.919061,   0.548774,   1.548011]
  
  Exciton analysis of the difference density matrix
    <r_h> [Ang]:                  [  0.000000,   0.000000,  -1.552109]
    <r_e> [Ang]:                  [  0.000000,   0.000000,  -1.134240]
    |<r_e - r_h>| [Ang]:            0.417869
    Hole size [Ang]:                1.698884
      Cartesian components [Ang]: [  0.851651,   0.881068,   1.176697]
    Electron size [Ang]:            3.394242
      Cartesian components [Ang]: [  2.137823,   1.453324,   2.199645]

  Transition density matrix analysis:
  -----------------------------------
  
  CT numbers (Mulliken)
    omega =     0.8691
    <Phe> =    -0.0038
  
  Exciton analysis of the transition density matrix
    Trans. dipole moment [D]:             0.115496
      Cartesian components [D]:         [  0.000000,   0.115496,  -0.000000]
    <r_h> [Ang]:                        [  0.000000,   0.000000,  -1.745413]
    <r_e> [Ang]:                        [  0.000000,   0.000000,  -1.094249]
    |<r_e - r_h>| [Ang]:                  0.651164
    Hole size [Ang]:                      1.090646
      Cartesian components [Ang]:       [  0.476185,   0.821850,   0.536022]
    Electron size [Ang]:                  4.045406
      Cartesian components [Ang]:       [  2.571039,   1.733212,   2.598277]
    RMS electron-hole separation [Ang]:   4.234889
      Cartesian components [Ang]:       [  2.614356,   1.916094,   2.725437]
    Covariance(r_h, r_e) [Ang^2]:         0.022275
    Correlation coefficient:              0.005048
    Center-of-mass size [Ang]:            2.097580
      Cartesian components [Ang]:       [  1.307586,   0.960144,   1.329730]

  Decomposition into state-averaged NTOs
    H- 0 -> L+ 1:  0.4992 ( 49.8%)
    H- 0 -> L+ 0: -0.4162 ( 34.6%)
                   omega =  86.9%
  ----------------------------------------------------------------------------


  Excited state 10 (singlet, B2)                                    [converged]
  ----------------------------------------------------------------------------
  Term symbol:  10 (1) B2                                   R^2 =  4.35015e-06

  Total energy:                                           -153.7856804661 a.u.
  Excitation energy:                                               5.041720 eV

  Osc. strength:                                                      0.029263
  Trans. dip. moment [a.u.]:           [   0.000000,   -0.486732,   -0.000000]
  <i|r^2|0> [a.u.]:                    [  -0.000000,   -0.000000,   -0.000000]

  Dip. moment [a.u.]:                  [  -0.000000,    0.000000,   -3.034645]
  Total dipole [Debye]:                                               7.713300
  <r^2> [a.u.]:                        [  75.962207,   35.512899,  250.951093]
  Total <r^2> [a.u.]:                                               362.426200

  V1^2 = 0.8758, V2^2 = 0.1242

  Important amplitudes:
      occ i      occ j       vir a       vir b          v   
    ---------------------------------------------------------
     2 (B2) A              14 (A1) A                 -0.4408
     2 (B2) A              13 (A1) A                 -0.4193
    ---------------------------------------------------------

  Density matrix analysis:
  ------------------------
  NOs
    Occupation of frontier NOs:
       0.9691   0.9874
    Number of electrons: 26.000000
    Number of unpaired electrons: n_u =  2.75620, n_u,nl =  2.11691
    NO participation ratio (PR_NO):  3.904837
  
  
  Mulliken Population Analysis
  Atom      Charge (e)              h+              e-           Del q
  --------------------------------------------------------------------
   1 C       -0.735223        0.033754       -0.540734       -0.506979
   2 C       -0.735223        0.033754       -0.540734       -0.506979
   3 H        0.124563        0.001667       -0.081967       -0.080300
   4 H        0.124563        0.001667       -0.081967       -0.080300
   5 H        0.088709        0.037889        0.016521        0.054409
   6 H        0.088709        0.037889        0.016521        0.054409
   7 O       -0.353852        1.341950       -0.619752        0.722198
   8 H        0.397752        0.148719        0.194823        0.343542
  --------------------------------------------------------------------
  Sum:       -1.000000        1.637289       -1.637289        0.000000
  
  Multipole moment analysis of the density matrix
    Molecular charge:                      -1.000000
    Number of electrons:                   26.000000
      Center of electronic charge [Ang]: [  0.000000,  -0.000000,   0.061764]
    Total nuclear charge:                  25.000000
      Center of nuclear charge [Ang]:    [  0.000000,   0.000000,  -0.000000]
    Dipole moment [D]:                     7.713298
      Cartesian components [D]:          [ -0.000000,   0.000000,  -7.713298]
    RMS size of the density [Ang]:         1.974749
      Cartesian components [Ang]:        [  0.904510,   0.618454,   1.642867]
  
  Exciton analysis of the difference density matrix
    <r_h> [Ang]:                  [  0.000000,   0.000000,  -1.468402]
    <r_e> [Ang]:                  [  0.000000,   0.000000,   0.207236]
    |<r_e - r_h>| [Ang]:            1.675638
    Hole size [Ang]:                1.786184
      Cartesian components [Ang]: [  0.835362,   0.881609,   1.309728]
    Electron size [Ang]:            4.276715
      Cartesian components [Ang]: [  1.997425,   1.832728,   3.307824]

  Transition density matrix analysis:
  -----------------------------------
  
  CT numbers (Mulliken)
    omega =     0.8589
    <Phe> =    -0.0048
  
  Exciton analysis of the transition density matrix
    Trans. dipole moment [D]:             0.618575
      Cartesian components [D]:         [  0.000000,  -0.618575,  -0.000000]
    <r_h> [Ang]:                        [  0.000000,   0.000000,  -1.715854]
    <r_e> [Ang]:                        [  0.000000,  -0.000000,   1.079907]
    |<r_e - r_h>| [Ang]:                  2.795762
    Hole size [Ang]:                      1.133123
      Cartesian components [Ang]:       [  0.480581,   0.823537,   0.612206]
    Electron size [Ang]:                  5.072312
      Cartesian components [Ang]:       [  2.441308,   2.259054,   3.829497]
    RMS electron-hole separation [Ang]:   5.892316
      Cartesian components [Ang]:       [  2.487804,   2.403481,   4.770062]
    Covariance(r_h, r_e) [Ang^2]:         0.054608
    Correlation coefficient:              0.009501
    Center-of-mass size [Ang]:            2.603917
      Cartesian components [Ang]:       [  1.244258,   1.202742,   1.945666]

  Decomposition into state-averaged NTOs
    H- 0 -> L+ 9:  0.4513 ( 40.7%)
    H- 0 -> L+ 5: -0.2971 ( 17.7%)
    H- 0 -> L+ 0:  0.2858 ( 16.3%)
    H- 0 -> L+ 1:  0.1955 (  7.6%)
    H- 0 -> L+ 6: -0.1029 (  2.1%)
                   omega =  85.9%
  ----------------------------------------------------------------------------


--------------------------------------------------------------------------------
  Time of ADC calculation:  CPU 306.16 s  wall 74.36 s
================================================================================
 
 --------------------------------------------------------------
             Orbital Energies (a.u.) and Symmetries
 --------------------------------------------------------------
 
 Alpha MOs, Restricted
 -- Occupied --                  
-20.213 -11.049 -11.047  -0.930  -0.854  -0.598  -0.473  -0.384
  1 A1    2 A1    1 B1    3 A1    4 A1    2 B1    5 A1    6 A1                 
 -0.328  -0.271  -0.194  -0.130  -0.129
  3 B1    7 A1    1 B2    4 B1    2 B2                                         
 -- Virtual --                   
  0.078   0.085   0.086   0.086   0.092   0.105   0.142   0.151
  5 B1    3 B2    8 A1    1 A2    6 B1    9 A1    7 B1   10 A1                 
  0.158   0.159   0.160   0.175   0.229   0.251   0.267   0.276
  4 B2   11 A1    2 A2    8 B1   12 A1    9 B1    3 A2   13 A1                 
  0.284   0.294   0.331   0.337   0.365   0.374   0.448   0.457
  5 B2   10 B1   14 A1   15 A1    4 A2   11 B1    6 B2   16 A1                 
  0.472   0.497   0.507   0.523   0.533   0.556   0.574   0.580
 12 B1   17 A1   13 B1   18 A1   14 B1    7 B2   15 B1   19 A1                 
  0.613   0.615   0.700   0.738   0.792   1.007   1.047   1.128
  5 A2   20 A1   21 A1   16 B1   17 B1   22 A1   23 A1   24 A1                 
  1.133   1.156   1.200   1.223   1.276   1.291   1.302   1.309
 18 B1   25 A1    8 B2   19 B1   26 A1    6 A2   20 B1    9 B2                 
  1.332   1.334   1.339   1.344   1.370   1.475   1.483   1.504
  7 A2   27 A1   21 B1   28 A1   10 B2   11 B2    8 A2   22 B1                 
  1.651   1.665   1.719   1.737   1.875   1.941   2.029   2.064
 23 B1   29 A1   12 B2   24 B1   30 A1   25 B1   31 A1    9 A2                 
  2.131   2.158   2.175   2.213   2.261   2.336   2.367   2.395
 13 B2   32 A1   26 B1   14 B2   33 A1   34 A1   10 A2   15 B2                 
  2.441   2.528   2.577   2.604   2.770   2.779   2.853   3.046
 27 B1   28 B1   35 A1   11 A2   36 A1   29 B1   30 B1   37 A1                 
  3.061   3.119   3.471   3.567   3.923   3.946   3.972   4.090
 38 A1   39 A1   31 B1   32 B1   16 B2   12 A2   40 A1   33 B1                 
  4.546
 41 A1                                                                         
 
 Beta MOs, Restricted
 -- Occupied --                  
-20.213 -11.049 -11.047  -0.930  -0.854  -0.598  -0.473  -0.384
  1 A1    2 A1    1 B1    3 A1    4 A1    2 B1    5 A1    6 A1                 
 -0.328  -0.271  -0.194  -0.130  -0.129
  3 B1    7 A1    1 B2    4 B1    2 B2                                         
 -- Virtual --                   
  0.078   0.085   0.086   0.086   0.092   0.105   0.142   0.151
  5 B1    3 B2    8 A1    1 A2    6 B1    9 A1    7 B1   10 A1                 
  0.158   0.159   0.160   0.175   0.229   0.251   0.267   0.276
  4 B2   11 A1    2 A2    8 B1   12 A1    9 B1    3 A2   13 A1                 
  0.284   0.294   0.331   0.337   0.365   0.374   0.448   0.457
  5 B2   10 B1   14 A1   15 A1    4 A2   11 B1    6 B2   16 A1                 
  0.472   0.497   0.507   0.523   0.533   0.556   0.574   0.580
 12 B1   17 A1   13 B1   18 A1   14 B1    7 B2   15 B1   19 A1                 
  0.613   0.615   0.700   0.738   0.792   1.007   1.047   1.128
  5 A2   20 A1   21 A1   16 B1   17 B1   22 A1   23 A1   24 A1                 
  1.133   1.156   1.200   1.223   1.276   1.291   1.302   1.309
 18 B1   25 A1    8 B2   19 B1   26 A1    6 A2   20 B1    9 B2                 
  1.332   1.334   1.339   1.344   1.370   1.475   1.483   1.504
  7 A2   27 A1   21 B1   28 A1   10 B2   11 B2    8 A2   22 B1                 
  1.651   1.665   1.719   1.737   1.875   1.941   2.029   2.064
 23 B1   29 A1   12 B2   24 B1   30 A1   25 B1   31 A1    9 A2                 
  2.131   2.158   2.175   2.213   2.261   2.336   2.367   2.395
 13 B2   32 A1   26 B1   14 B2   33 A1   34 A1   10 A2   15 B2                 
  2.441   2.528   2.577   2.604   2.770   2.779   2.853   3.046
 27 B1   28 B1   35 A1   11 A2   36 A1   29 B1   30 B1   37 A1                 
  3.061   3.119   3.471   3.567   3.923   3.946   3.972   4.090
 38 A1   39 A1   31 B1   32 B1   16 B2   12 A2   40 A1   33 B1                 
  4.546
 41 A1                                                                         
 --------------------------------------------------------------
 
          Ground-State Mulliken Net Atomic Charges

     Atom                 Charge (a.u.)
  ----------------------------------------
      1 C                    -0.224716
      2 C                    -0.224716
      3 H                     0.199239
      4 H                     0.199239
      5 H                     0.027588
      6 H                     0.027588
      7 O                    -1.075453
      8 H                     0.071231
  ----------------------------------------
  Sum of atomic charges =    -1.000000

 -----------------------------------------------------------------
                    Cartesian Multipole Moments
 -----------------------------------------------------------------
    Charge (ESU x 10^10)
                -4.8032
    Dipole Moment (Debye)
         X      -0.0000      Y       0.0000      Z       5.2856
       Tot       5.2856
    Quadrupole Moments (Debye-Ang)
        XX     -23.6714     XY       0.0000     YY     -26.5197
        XZ      -0.0000     YZ      -0.0000     ZZ     -32.9012
    Octopole Moments (Debye-Ang^2)
       XXX      -0.0000    XXY       0.0000    XYY      -0.0000
       YYY      -0.0000    XXZ       1.0927    XYZ       0.0000
       YYZ      -0.0845    XZZ      -0.0000    YZZ       0.0000
       ZZZ       6.4060
    Hexadecapole Moments (Debye-Ang^3)
      XXXX     -88.4107   XXXY      -0.0000   XXYY     -22.0217
      XYYY      -0.0000   YYYY     -40.8749   XXXZ      -0.0000
      XXYZ       0.0000   XYYZ      -0.0000   YYYZ       0.0000
      XXZZ     -70.7585   XYZZ       0.0000   YYZZ     -65.6838
      XZZZ       0.0000   YZZZ       0.0000   ZZZZ    -293.2359
 -----------------------------------------------------------------
 Total job time:  183.78s(wall), 356.95s(cpu) 
 Fri Mar  4 17:27:27 2022

        *************************************************************
        *                                                           *
        *  Thank you very much for using Q-Chem.  Have a nice day.  *
        *                                                           *
        *************************************************************


