/src/tsommerfeld/qchem/exe/qcprog.exe .input2.163636.13461.qcin.1 /src/jdavis/qchem.scratch/qchem13461/

                  Welcome to Q-Chem
     A Quantum Leap Into The Future Of Chemistry


 Q-Chem 5.4 (devel), Q-Chem, Inc., Pleasanton, CA (2021)

 E. Epifanovsky,  A. T. B. Gilbert,  Xintian Feng,  Joonho Lee,  Yuezhi Mao,  
 N. Mardirossian,  P. Pokhilko,  A. White,  M. Wormit,  M. P. Coons,  
 A. L. Dempwolff,  Zhengting Gan,  D. Hait,  P. R. Horn,  L. D. Jacobson,  
 I. Kaliman,  J. Kussmann,  A. W. Lange,  Ka Un Lao,  D. S. Levine,  Jie Liu,  
 S. C. McKenzie,  A. F. Morrison,  K. Nanda,  F. Plasser,  D. R. Rehn,  
 M. L. Vidal,  Zhi-Qiang You,  Ying Zhu,  B. Alam,  B. Albrecht,  
 A. Aldossary,  E. Alguire,  J. H. Andersen,  D. Barton,  K. Begam,  A. Behn,  
 Y. A. Bernard,  E. J. Berquist,  H. Burton,  A. Carreras,  K. Carter-Fenk,  
 R. Chakraborty,  A. D. Chien,  K. D. Closser,  V. Cofer-Shabica,  
 S. Dasgupta,  Jia Deng,  M. de Wergifosse,  M. Diedenhofen,  Hainam Do,  
 S. Ehlert,  Po-Tung Fang,  S. Fatehi,  Qingguo Feng,  T. Friedhoff,  
 J. Gayvert,  Qinghui Ge,  G. Gidofalvi,  M. Goldey,  J. Gomes,  
 C. Gonzalez-Espinoza,  S. Gulania,  A. Gunina,  M. W. D. Hanson-Heine,  
 P. H. P. Harbach,  A. W. Hauser,  M. F. Herbst,  M. Hernandez Vera,  
 M. Hodecker,  Z. C. Holden,  S. Houck,  Xunkun Huang,  Kerwin Hui,  
 B. C. Huynh,  M. Ivanov,  Hyunjun Ji,  Hanjie Jiang,  B. Kaduk,  S. Kaehler,  
 K. Khistyaev,  Jaehoon Kim,  P. Klunzinger,  Z. Koczor-Benda,  
 Joong Hoon Koh,  D. Kosenkov,  L. Koulias,  T. Kowalczyk,  C. M. Krauter,  
 K. Kue,  A. Kunitsa,  T. Kus,  A. Landau,  K. V. Lawler,  D. Lefrancois,  
 S. Lehtola,  Rain Li,  Yi-Pei Li,  Jiashu Liang,  M. Liebenthal,  
 Hung-Hsuan Lin,  You-Sheng Lin,  Fenglai Liu,  Kuan-Yu Liu,  
 M. Loipersberger,  A. Luenser,  A. Manjanath,  P. Manohar,  E. Mansoor,  
 S. F. Manzer,  Shan-Ping Mao,  A. V. Marenich,  T. Markovich,  S. Mason,  
 S. A. Maurer,  P. F. McLaughlin,  M. F. S. J. Menger,  J.-M. Mewes,  
 S. A. Mewes,  P. Morgante,  J. W. Mullinax,  K. J. Oosterbaan,  G. Paran,  
 Alexander C. Paul,  Suranjan K. Paul,  F. Pavosevic,  Zheng Pei,  S. Prager,  
 E. I. Proynov,  E. Ramos,  B. Rana,  A. E. Rask,  A. Rettig,  R. M. Richard,  
 F. Rob,  E. Rossomme,  T. Scheele,  M. Scheurer,  M. Schneider,  
 N. Sergueev,  S. M. Sharada,  W. Skomorowski,  D. W. Small,  C. J. Stein,  
 Yu-Chuan Su,  E. J. Sundstrom,  Zhen Tao,  J. Thirman,  T. Tsuchimochi,  
 N. M. Tubman,  S. P. Veccham,  O. Vydrov,  J. Wenzel,  J. Witte,  A. Yamada,  
 Kun Yao,  S. Yeganeh,  S. R. Yost,  A. Zech,  Igor Ying Zhang,  Xing Zhang,  
 Yu Zhang,  D. Zuev,  A. Aspuru-Guzik,  A. T. Bell,  N. A. Besley,  
 K. B. Bravaya,  B. R. Brooks,  D. Casanova,  Jeng-Da Chai,  S. Coriani,  
 C. J. Cramer,  A. E. DePrince, III,  R. A. DiStasio Jr.,  A. Dreuw,  
 B. D. Dunietz,  T. R. Furlani,  W. A. Goddard III,  S. Grimme,  
 S. Hammes-Schiffer,  T. Head-Gordon,  W. J. Hehre,  Chao-Ping Hsu,  
 T.-C. Jagau,  Yousung Jung,  A. Klamt,  Jing Kong,  D. S. Lambrecht,  
 WanZhen Liang,  N. J. Mayhall,  C. W. McCurdy,  J. B. Neaton,  
 C. Ochsenfeld,  J. A. Parkhill,  R. Peverati,  V. A. Rassolov,  Yihan Shao,  
 L. V. Slipchenko,  T. Stauch,  R. P. Steele,  J. E. Subotnik,  
 A. J. W. Thom,  A. Tkatchenko,  D. G. Truhlar,  T. Van Voorhis,  
 T. A. Wesolowski,  K. B. Whaley,  H. L. Woodcock III,  P. M. Zimmerman,  
 S. Faraji,  P. M. W. Gill,  M. Head-Gordon,  J. M. Herbert,  A. I. Krylov

 Additional authors for Version 5.4.1: 
 S. Kotaru,  Shaozhi Li,  Xiangyuan Li,  F. Matz,  A. Molle,  Haisheng Ren,  
 Yingli Su,  Hung-Yi Tsai,  C. Utku,  Fang Wang

 Contributors to earlier versions of Q-Chem not listed above: 
 R. D. Adamson,  B. Austin,  R. Baer,  J. Baker,  G. J. O. Beran,  
 K. Brandhorst,  S. T. Brown,  E. F. C. Byrd,  A. K. Chakraborty,  
 G. K. L. Chan,  Chun-Min Chang,  Yunqing Chen,  C.-L. Cheng,  
 Siu Hung Chien,  D. M. Chipman,  D. L. Crittenden,  H. Dachsel,  
 R. J. Doerksen,  A. D. Dutoi,  R. G. Edgar,  J. Fosso-Tande,  
 L. Fusti-Molnar,  D. Ghosh,  A. Ghysels,  A. Golubeva-Zadorozhnaya,  
 J. Gonthier,  M. S. Gordon,  S. R. Gwaltney,  G. Hawkins,  J. E. Herr,  
 A. Heyden,  S. Hirata,  E. G. Hohenstein,  G. Kedziora,  F. J. Keil,  
 C. Kelley,  Jihan Kim,  R. A. King,  R. Z. Khaliullin,  P. P. Korambath,  
 W. Kurlancheek,  A. Laurent,  A. M. Lee,  M. S. Lee,  S. V. Levchenko,  
 Ching Yeh Lin,  D. Liotard,  E. Livshits,  R. C. Lochan,  I. Lotan,  
 L. A. Martinez-Martinez,  P. E. Maslen,  N. Nair,  D. P. O'Neill,  
 D. Neuhauser,  E. Neuscamman,  C. M. Oana,  R. Olivares-Amaya,  R. Olson,  
 T. M. Perrine,  B. Peters,  P. A. Pieniazek,  A. Prociuk,  Y. M. Rhee,  
 J. Ritchie,  M. A. Rohrdanz,  E. Rosta,  N. J. Russ,  H. F. Schaefer III,  
 M. W. Schmidt,  N. E. Schultz,  S. Sharma,  N. Shenvi,  C. D. Sherrill,  
 A. C. Simmonett,  A. Sodt,  T. Stein,  D. Stuck,  K. S. Thanthiriwatte,  
 V. Vanovschi,  L. Vogt,  Tao Wang,  A. Warshel,  M. A. Watson,  
 C. F. Williams,  Q. Wu,  X. Xu,  Jun Yang,  W. Zhang,  Yan Zhao

 Please cite Q-Chem as follows:
 Y. Shao et al., Mol. Phys. 113, 184-215 (2015)
 DOI: 10.1080/00268976.2014.952696

 Q-Chem 5.4.1 for Intel X86 EM64T Linux

 Parts of Q-Chem use Armadillo 9.900.5 (Nocturnal Misbehaviour).
 http://arma.sourceforge.net/

 Q-Chem begins on Fri Mar  4 18:06:16 2022  

 Host: node01
0

     Scratch files written to /src/jdavis/qchem.scratch/qchem13461//
 Processing $rem in /src/tsommerfeld/qchem/config/preferences:
 Processing $rem in /home/jdavis/.qchemrc:

 Checking the input file for inconsistencies... 	...done.

--------------------------------------------------------------
User input:
--------------------------------------------------------------
$molecule
-1 1
C        -0.6645000000    0.0000000000    1.1619088658
C         0.6645000000    0.0000000000    1.1619088658
H        -1.1590800000    0.0000000000    0.1995598658
H         1.1590800000    0.0000000000    0.1995598658
H        -1.1590800000    0.0000000000    2.1242568658
H         1.1590800000    0.0000000000    2.1242568658
O         0.0000000000    0.0000000000   -1.5841414040
H         0.0000000000    0.0000000000   -2.5471307683
$end
$rem
   METHOD adc(2)
   BASIS gen
   PURECART 11
   EE_STATES [0,0,0,10]
   scf_convergence 8
   ADC_DAVIDSON_MAXITER 120
   ADC_DAVIDSON_MAXSUBSPACE 200
   adc_nguess_singles 100
   THRESH 14
   S2THRESH 14
   adc_davidson_conv 5
   adc_davidson_thresh 14
   THREADS 10
   MEM_TOTAL 95000
   STATE_ANALYSIS TRUE
$end
$basis
C 1
S   9   1.00
      6.665000D+03           6.920000D-04
      1.000000D+03           5.329000D-03
      2.280000D+02           2.707700D-02
      6.471000D+01           1.017180D-01
      2.106000D+01           2.747400D-01
      7.495000D+00           4.485640D-01
      2.797000D+00           2.850740D-01
      5.215000D-01           1.520400D-02
      1.596000D-01          -3.191000D-03
S   9   1.00
      6.665000D+03          -1.460000D-04
      1.000000D+03          -1.154000D-03
      2.280000D+02          -5.725000D-03
      6.471000D+01          -2.331200D-02
      2.106000D+01          -6.395500D-02
      7.495000D+00          -1.499810D-01
      2.797000D+00          -1.272620D-01
      5.215000D-01           5.445290D-01
      1.596000D-01           5.804960D-01
S   1   1.00
      1.596000D-01           1.000000D+00
S   1   1.00
      0.0469000              1.0000000
P   4   1.00
      9.439000D+00           3.810900D-02
      2.002000D+00           2.094800D-01
      5.456000D-01           5.085570D-01
      1.517000D-01           4.688420D-01
P   1   1.00
      1.517000D-01           1.000000D+00
P   1   1.00
      0.0937782      1.0000000
P   1   1.00
      0.0468891      1.0000000
P   1   1.00
      0.0234445      1.0000000
P   1   1.00
      0.0117223      1.0000000
D   1   1.00
      5.500000D-01           1.0000000
****
C 2
S   9   1.00
      6.665000D+03           6.920000D-04
      1.000000D+03           5.329000D-03
      2.280000D+02           2.707700D-02
      6.471000D+01           1.017180D-01
      2.106000D+01           2.747400D-01
      7.495000D+00           4.485640D-01
      2.797000D+00           2.850740D-01
      5.215000D-01           1.520400D-02
      1.596000D-01          -3.191000D-03
S   9   1.00
      6.665000D+03          -1.460000D-04
      1.000000D+03          -1.154000D-03
      2.280000D+02          -5.725000D-03
      6.471000D+01          -2.331200D-02
      2.106000D+01          -6.395500D-02
      7.495000D+00          -1.499810D-01
      2.797000D+00          -1.272620D-01
      5.215000D-01           5.445290D-01
      1.596000D-01           5.804960D-01
S   1   1.00
      1.596000D-01           1.000000D+00
S   1   1.00
      0.0469000              1.0000000
P   4   1.00
      9.439000D+00           3.810900D-02
      2.002000D+00           2.094800D-01
      5.456000D-01           5.085570D-01
      1.517000D-01           4.688420D-01
P   1   1.00
      1.517000D-01           1.000000D+00
P   1   1.00
      0.0937782      1.0000000
P   1   1.00
      0.0468891      1.0000000
P   1   1.00
      0.0234445      1.0000000
P   1   1.00
      0.0117223      1.0000000
D   1   1.00
      5.500000D-01           1.0000000
****
H 3
cc-pVDZ
****
H 4
cc-pVDZ
****
H 5
cc-pVDZ
****
H 6
cc-pVDZ
****
O 7
aug-cc-pVDZ
****
H 8
cc-pVDZ
****
$end
--------------------------------------------------------------
 ----------------------------------------------------------------
             Standard Nuclear Orientation (Angstroms)
    I     Atom           X                Y                Z
 ----------------------------------------------------------------
    1      C      -0.6645000000    -0.0000000000     1.0270977517
    2      C       0.6645000000     0.0000000000     1.0270977517
    3      H      -1.1590800000    -0.0000000000     0.0647487517
    4      H       1.1590800000     0.0000000000     0.0647487517
    5      H      -1.1590800000    -0.0000000000     1.9894457517
    6      H       1.1590800000     0.0000000000     1.9894457517
    7      O       0.0000000000    -0.0000000000    -1.7189525181
    8      H       0.0000000000    -0.0000000000    -2.6819418824
 ----------------------------------------------------------------
 Molecular Point Group                 C2v   NOp =  4
 Largest Abelian Subgroup              C2v   NOp =  4
 Nuclear Repulsion Energy =          64.38561153 hartrees
 There are       13 alpha and       13 beta electrons
 Requested basis set is non-standard
 There are 46 shells and 102 basis functions
 Total memory of 95000 MB is distributed as follows: 
   MEM_STATIC is set to 192 MB
   QALLOC/CCMAN JOB total memory use is  94808 MB
 Warning: actual memory use might exceed 95000 MB

 Total QAlloc Memory Limit  95000 MB
 Mega-Array Size       188 MB
 MEM_STATIC part       192 MB

                       Distance Matrix (Angstroms)
             C (  1)   C (  2)   H (  3)   H (  4)   H (  5)   H (  6)
   C (  2)  1.329000
   H (  3)  1.082000  2.061931
   H (  4)  2.061931  1.082000  2.318160
   H (  5)  1.082000  2.061931  1.924697  3.013026
   H (  6)  2.061931  1.082000  3.013026  1.924697  2.318160
   O (  7)  2.825306  2.825306  2.127218  2.127218  3.885316  3.885316
   H (  8)  3.768094  3.768094  2.981237  2.981237  4.813037  4.813037
             O (  7)
   H (  8)  0.962989
 
 A cutoff of  1.0D-14 yielded   1081 shell pairs
 There are      5353 function pairs (      5791 Cartesian)
 Smallest overlap matrix eigenvalue = 1.48E-04

 Scale SEOQF with 1.000000e-01/1.000000e-01/1.000000e-01

 Standard Electronic Orientation quadrupole field applied
 Nucleus-field energy     =    -0.0000000051 hartrees
 ================ Generating on-the-fly SAD Guess ================
Attempting to make child job directory: /src/jdavis/qchem.scratch/qchem13461//Frg1/
Attempting to make child job directory: /src/jdavis/qchem.scratch/qchem13461//Frg2/
Attempting to make child job directory: /src/jdavis/qchem.scratch/qchem13461//Frg3/
Creating input file /src/jdavis/qchem.scratch/qchem13461/Frg1.input
using default PutDataFrgm: nothing
calling putenv with: QCSCRATCH=/src/jdavis/qchem.scratch/qchem13461/ 
Spawning Job For Fragment 0
Done Job For Fragment 0
calling putenv with: QCSCRATCH=/src/jdavis/qchem.scratch 
calling putenv with: QCTHREADS=1 
Creating input file /src/jdavis/qchem.scratch/qchem13461/Frg2.input
using default PutDataFrgm: nothing
calling putenv with: QCSCRATCH=/src/jdavis/qchem.scratch/qchem13461/ 
Spawning Job For Fragment 1
Done Job For Fragment 1
calling putenv with: QCSCRATCH=/src/jdavis/qchem.scratch 
calling putenv with: QCTHREADS=1 
Creating input file /src/jdavis/qchem.scratch/qchem13461/Frg3.input
using default PutDataFrgm: nothing
calling putenv with: QCSCRATCH=/src/jdavis/qchem.scratch/qchem13461/ 
Spawning Job For Fragment 2
Done Job For Fragment 2
calling putenv with: QCSCRATCH=/src/jdavis/qchem.scratch 
calling putenv with: QCTHREADS=1 
 Time for running child jobs:  CPU 1.77 s  wall 81.00 s
 ============= Method Specific SAD Guess Constructed =============
 Guess from on-the-fly superposition of atomic densities
 Warning: Energy on first SCF cycle will be non-variational
 A restricted Hartree-Fock SCF calculation will be
 performed using Pulay DIIS extrapolation
 SCF converges when DIIS error is below 1.0E-08
 using 10 threads for integral computing
 -------------------------------------------------------
 OpenMP Integral computing Module                
 Release: version 1.0, May 2013, Q-Chem Inc. Pittsburgh 
 -------------------------------------------------------
 ---------------------------------------
  Cycle       Energy         DIIS Error
 ---------------------------------------
    1    -153.5769252828      5.28E-02
    2    -153.2902827445      1.08E-02
    3    -153.3535986761      9.16E-03
    4    -153.4406860258      6.90E-04
    5    -153.4416636456      1.90E-04
    6    -153.4417410242      4.14E-05
    7    -153.4417467086      1.10E-05
    8    -153.4417473114      3.33E-06
    9    -153.4417473624      6.39E-07
   10    -153.4417473641      1.18E-07
   11    -153.4417473642      3.85E-08
   12    -153.4417473642      1.26E-08
   13    -153.4417473642      2.44E-09 Convergence criterion met
 ---------------------------------------
 SCF time:  CPU 16.46 s  wall 1.65 s
 SCF   energy in the final basis set = -153.44174736
 Total energy in the final basis set = -153.44174736
================================================================================
|                                                                              |
|                                 A D C  M A N                                 |
|                                                                              |
 ------------------------------------------------------------------------------ 
|                                                                              |
| Components:                                                                  |
|                                                                              |
| - libvmm - 1.3-trunk                                                         |
|   Authors:                                                                   |
|   Evgeny Epifanovsky, Ilya Kaliman                                           |
|                                                                              |
| - libtensor - 2.5-trunk                                                      |
|   Authors:                                                                   |
|   Evgeny Epifanovsky, Michael Wormit, Dmitry Zuev, Sam Manzer,               |
|   Ilya Kaliman                                                               |
|                                                                              |
| - libwfa - 1.1-trunk                                                         |
|   Authors:                                                                   |
|   Felix Plasser, Stefanie Mewes (Baeppler), Benjamin Thomitzni,              |
|   Michael Wormit, Feng Chen, Anna I. Krylov, Pavel Pokhilko                  |
|                                                                              |
| - libadc - 1.1-trunk                                                         |
|   Authors:                                                                   |
|   Michael Wormit, Adrian L. Dempwolff, Philipp H. P. Harbach,                |
|   Caroline Krauter, Dirk Rehn, Matthias Schneider, Jan Wenzel                |
|                                                                              |
| - adcman - 2.6-trunk                                                         |
|   Authors:                                                                   |
|   Michael Wormit, Adrian L. Dempwolff, Philipp H. P. Harbach,                |
|   Caroline Krauter, Daniel Lefrancois, Jan-Michael Mewes, Dirk Rehn,         |
|   Matthias Schneider, Jan Wenzel, Andreas Dreuw                              |
|                                                                              |
| Authors of earlier versions of ADCMAN:                                       |
| Andreas Dreuw, Jan Hendrik Starcke, Dirk Rehn, Michael Wormit                |
|                                                                              |
================================================================================

 
 Alpha MOs, Restricted
 -- Occupied --                  
-20.213 -11.049 -11.047  -0.930  -0.854  -0.598  -0.473  -0.384
  1 A1    2 A1    1 B1    3 A1    4 A1    2 B1    5 A1    6 A1                 
 -0.328  -0.271  -0.194  -0.130  -0.129
  3 B1    7 A1    1 B2    4 B1    2 B2                                         
 -- Virtual --                   
  0.092   0.101   0.102   0.103   0.111   0.122   0.167   0.172
  5 B1    3 B2    8 A1    1 A2    6 B1    9 A1   10 A1    7 B1                 
  0.190   0.190   0.194   0.212   0.271   0.300   0.313   0.326
  4 B2   11 A1    2 A2    8 B1   12 A1    3 A2    9 B1   13 A1                 
  0.339   0.344   0.350   0.367   0.386   0.424   0.451   0.484
 14 A1   10 B1    5 B2   15 A1   11 B1    4 A2    6 B2   12 B1                 
  0.495   0.521   0.542   0.580   0.618   0.620   0.675   0.680
 16 A1   17 A1   13 B1   18 A1   14 B1   19 A1   20 A1    7 B2                 
  0.692   0.716   0.732   0.737   0.820   1.011   1.057   1.129
 15 B1   16 B1   21 A1    5 A2   17 B1   22 A1   23 A1   18 B1                 
  1.162   1.200   1.268   1.291   1.310   1.323   1.325   1.351
 24 A1    8 B2   19 B1    6 A2   25 A1   26 A1   20 B1   27 A1                 
  1.367   1.369   1.399   1.437   1.482   1.509   1.533   1.620
 21 B1    9 B2   28 A1   10 B2    7 A2    8 A2   11 B2   22 B1                 
  1.671   1.691   1.719   1.839   1.885   2.021   2.046   2.076
 23 B1   29 A1   12 B2   24 B1   30 A1   25 B1   31 A1    9 A2                 
  2.133   2.169   2.204   2.213   2.283   2.366   2.373   2.397
 13 B2   32 A1   26 B1   14 B2   33 A1   34 A1   10 A2   15 B2                 
  2.440   2.536   2.586   2.604   2.768   2.777   2.857   3.072
 27 B1   28 B1   35 A1   11 A2   29 B1   36 A1   30 B1   37 A1                 
  3.119   3.158   3.529   3.587   3.923   3.945   3.973   4.090
 38 A1   39 A1   31 B1   32 B1   16 B2   12 A2   40 A1   33 B1                 
  4.548
 41 A1                                                                         
 
 Beta MOs, Restricted
 -- Occupied --                  
-20.213 -11.049 -11.047  -0.930  -0.854  -0.598  -0.473  -0.384
  1 A1    2 A1    1 B1    3 A1    4 A1    2 B1    5 A1    6 A1                 
 -0.328  -0.271  -0.194  -0.130  -0.129
  3 B1    7 A1    1 B2    4 B1    2 B2                                         
 -- Virtual --                   
  0.092   0.101   0.102   0.103   0.111   0.122   0.167   0.172
  5 B1    3 B2    8 A1    1 A2    6 B1    9 A1   10 A1    7 B1                 
  0.190   0.190   0.194   0.212   0.271   0.300   0.313   0.326
  4 B2   11 A1    2 A2    8 B1   12 A1    3 A2    9 B1   13 A1                 
  0.339   0.344   0.350   0.367   0.386   0.424   0.451   0.484
 14 A1   10 B1    5 B2   15 A1   11 B1    4 A2    6 B2   12 B1                 
  0.495   0.521   0.542   0.580   0.618   0.620   0.675   0.680
 16 A1   17 A1   13 B1   18 A1   14 B1   19 A1   20 A1    7 B2                 
  0.692   0.716   0.732   0.737   0.820   1.011   1.057   1.129
 15 B1   16 B1   21 A1    5 A2   17 B1   22 A1   23 A1   18 B1                 
  1.162   1.200   1.268   1.291   1.310   1.323   1.325   1.351
 24 A1    8 B2   19 B1    6 A2   25 A1   26 A1   20 B1   27 A1                 
  1.367   1.369   1.399   1.437   1.482   1.509   1.533   1.620
 21 B1    9 B2   28 A1   10 B2    7 A2    8 A2   11 B2   22 B1                 
  1.671   1.691   1.719   1.839   1.885   2.021   2.046   2.076
 23 B1   29 A1   12 B2   24 B1   30 A1   25 B1   31 A1    9 A2                 
  2.133   2.169   2.204   2.213   2.283   2.366   2.373   2.397
 13 B2   32 A1   26 B1   14 B2   33 A1   34 A1   10 A2   15 B2                 
  2.440   2.536   2.586   2.604   2.768   2.777   2.857   3.072
 27 B1   28 B1   35 A1   11 A2   29 B1   36 A1   30 B1   37 A1                 
  3.119   3.158   3.529   3.587   3.923   3.945   3.973   4.090
 38 A1   39 A1   31 B1   32 B1   16 B2   12 A2   40 A1   33 B1                 
  4.548
 41 A1                                                                         

--------------------------------------------------------------------------------
                                   HF Summary                                   
--------------------------------------------------------------------------------
  Energy:                                                 -153.4417473642 a.u.
  Dip. moment [a.u.]:                  [  -0.000000,    0.000000,    2.080751]
  Total dipole [Debye]:                                               5.288744
  <r^2> [a.u.]:                        [  55.697147,   19.720289,  208.058002]
  Total <r^2> [a.u.]:                                               283.475438
--------------------------------------------------------------------------------

--------------------------------------------------------------------------------
                                 MP(2) Summary                                  
--------------------------------------------------------------------------------
  MP energy contribution:                                   -0.5307772475 a.u.
  Total energy:                                           -153.9725246117 a.u.
  Dip. moment [a.u.]:                  [   0.000000,    0.000000,    2.151266]
  Total dipole [Debye]:                                               5.467973
  <r^2> [a.u.]:                        [  56.695633,   20.421308,  209.351470]
  Total <r^2> [a.u.]:                                               286.468412

  Density matrix analysis:
  ------------------------
  NOs
    Occupation of frontier NOs:
       0.0447   1.9355
    Number of electrons: 26.000000
    Number of unpaired electrons: n_u =  0.71633, n_u,nl =  0.08557
    NO participation ratio (PR_NO): 23.023372
  
  
  Mulliken Population Analysis
  Atom      Charge (e)              h+              e-           Del q
  --------------------------------------------------------------------
   1 C       -0.267717        0.094322       -0.098975       -0.004653
   2 C       -0.267717        0.094322       -0.098975       -0.004653
   3 H        0.224951        0.017492       -0.011071        0.006422
   4 H        0.224951        0.017492       -0.011071        0.006422
   5 H        0.055229        0.019464       -0.012238        0.007226
   6 H        0.055229        0.019464       -0.012238        0.007226
   7 O       -1.079289        0.278943       -0.279922       -0.000978
   8 H        0.054362        0.015192       -0.032203       -0.017011
  --------------------------------------------------------------------
  Sum:       -1.000000        0.556692       -0.556692        0.000000
  
  Multipole moment analysis of the density matrix
    Molecular charge:                      -1.000000
    Number of electrons:                   26.000000
      Center of electronic charge [Ang]: [ -0.000000,  -0.000000,  -0.043785]
    Total nuclear charge:                  25.000000
      Center of nuclear charge [Ang]:    [  0.000000,   0.000000,  -0.000000]
    Dipole moment [D]:                     5.467971
      Cartesian components [D]:          [  0.000000,   0.000000,   5.467971]
    RMS size of the density [Ang]:         1.755973
      Cartesian components [Ang]:        [  0.781429,   0.468982,   1.500955]
  
  Exciton analysis of the difference density matrix
    <r_h> [Ang]:                  [  0.000000,  -0.000000,  -0.482269]
    <r_e> [Ang]:                  [ -0.000000,  -0.000000,  -0.549298]
    |<r_e - r_h>| [Ang]:            0.067029
    Hole size [Ang]:                1.973121
      Cartesian components [Ang]: [  0.891404,   0.761526,   1.587036]
    Electron size [Ang]:            2.308591
      Cartesian components [Ang]: [  1.138798,   0.965687,   1.760733]
--------------------------------------------------------------------------------
  Starting Davidson for singlet states of irrep B2 ... 
--------------------------------------------------------------------------------
   It NVec Conv  Avg. Norm  Max. Norm  Conv. states           Remark
--------------------------------------------------------------------------------
       100    0  1.505e-01  5.319e-01  0.2167 n n n n n n n n Guess.
    1  110    0  1.427e-02  5.736e-02  0.0434 n n n n n n n n 
    2  120    0  1.477e-02  1.384e-01  0.0421 n n n n n n n n 
    3  130    0  1.299e-02  1.283e-01  0.0421 n n n n n n n n 
    4  140    0  3.233e-03  3.209e-02  0.0421 n n n n n n n n 
    5  150    3  5.507e-03  5.471e-02  0.0421 y y y n n n n n 
    6  160    5  8.379e-04  8.326e-03  0.0421 y y y y y n n n 
    7  170    7  1.005e-04  9.988e-04  0.0421 y y y y y y y n 
    8  180    8  1.928e-05  1.923e-04  0.0421 y y y y y y y n 
    9  190    9  3.129e-06  3.123e-05  0.0421 y y y y y y y y 
   10  200   10  4.335e-07  4.330e-06  0.0421 y y y y y y y y Converged.
--------------------------------------------------------------------------------
  Davidson Summary: 
 ------------------------------------------------------------
  State  0: excitation energy =   0.0421 a.u.   (converged)
  State  1: excitation energy =   0.0541 a.u.   (converged)
  State  2: excitation energy =   0.0609 a.u.   (converged)
  State  3: excitation energy =   0.0908 a.u.   (converged)
  State  4: excitation energy =   0.1065 a.u.   (converged)
  State  5: excitation energy =   0.1145 a.u.   (converged)
  State  6: excitation energy =   0.1552 a.u.   (converged)
  State  7: excitation energy =   0.1654 a.u.   (converged)
  State  8: excitation energy =   0.1743 a.u.   (converged)
  State  9: excitation energy =   0.1963 a.u.   (converged)
 ------------------------------------------------------------


--------------------------------------------------------------------------------
                   State-averaged natural transition orbitals
--------------------------------------------------------------------------------
--------------------------------------------------------------------------------

--------------------------------------------------------------------------------
                             Excited State Summary
--------------------------------------------------------------------------------
--------------------------------------------------------------------------------

  Excited state 1 (singlet, B2)                                    [converged]
  ----------------------------------------------------------------------------
  Term symbol:  1 (1) B2                                    R^2 =  1.43837e-10

  Total energy:                                           -153.9304315324 a.u.
  Excitation energy:                                               1.145411 eV

  Osc. strength:                                                      0.003092
  Trans. dip. moment [a.u.]:           [  -0.000000,    0.331944,   -0.000000]
  <i|r^2|0> [a.u.]:                    [  -0.000000,   -0.000000,   -0.000000]

  Dip. moment [a.u.]:                  [  -0.000000,    0.000000,   -2.743473]
  Total dipole [Debye]:                                               6.973213
  <r^2> [a.u.]:                        [  88.975381,   51.078780,  300.096221]
  Total <r^2> [a.u.]:                                               440.150382

  V1^2 = 0.8654, V2^2 = 0.1346

  Important amplitudes:
      occ i      occ j       vir a       vir b          v   
    ---------------------------------------------------------
     2 (B2) A               8 (A1) A                  0.5984
     2 (B2) A               9 (A1) A                 -0.2183
    ---------------------------------------------------------

  Density matrix analysis:
  ------------------------
  NOs
    Occupation of frontier NOs:
       0.9601   0.9995
    Number of electrons: 26.000000
    Number of unpaired electrons: n_u =  2.75193, n_u,nl =  2.11677
    NO participation ratio (PR_NO):  3.878763
  
  
  Mulliken Population Analysis
  Atom      Charge (e)              h+              e-           Del q
  --------------------------------------------------------------------
   1 C       -0.770787        0.033425       -0.536495       -0.503070
   2 C       -0.770787        0.033425       -0.536495       -0.503070
   3 H        0.186361       -0.001848       -0.036743       -0.038590
   4 H        0.186361       -0.001848       -0.036743       -0.038590
   5 H        0.092216        0.037064       -0.000077        0.036987
   6 H        0.092216        0.037064       -0.000077        0.036987
   7 O       -0.194399        1.413072       -0.528182        0.884890
   8 H        0.178820        0.146958       -0.022501        0.124458
  --------------------------------------------------------------------
  Sum:       -1.000000        1.697312       -1.697312       -0.000000
  
  Multipole moment analysis of the density matrix
    Molecular charge:                      -1.000000
    Number of electrons:                   26.000000
      Center of electronic charge [Ang]: [  0.000000,  -0.000000,   0.055838]
    Total nuclear charge:                  25.000000
      Center of nuclear charge [Ang]:    [  0.000000,   0.000000,  -0.000000]
    Dipole moment [D]:                     6.973211
      Cartesian components [D]:          [ -0.000000,   0.000000,  -6.973211]
    RMS size of the density [Ang]:         2.176567
      Cartesian components [Ang]:        [  0.978925,   0.741711,   1.796947]
  
  Exciton analysis of the difference density matrix
    <r_h> [Ang]:                  [ -0.000000,  -0.000000,  -1.493498]
    <r_e> [Ang]:                  [  0.000000,  -0.000000,   0.032552]
    |<r_e - r_h>| [Ang]:            1.526050
    Hole size [Ang]:                1.802564
      Cartesian components [Ang]: [  0.859594,   0.895530,   1.307042]
    Electron size [Ang]:            5.552810
      Cartesian components [Ang]: [  2.462626,   2.420734,   4.348474]

  Transition density matrix analysis:
  -----------------------------------
  
  CT numbers (Mulliken)
    omega =     0.8507
    <Phe> =    -0.0006
  
  Exciton analysis of the transition density matrix
    Trans. dipole moment [D]:             0.421859
      Cartesian components [D]:         [ -0.000000,   0.421859,  -0.000000]
    <r_h> [Ang]:                        [ -0.000000,  -0.000000,  -1.746618]
    <r_e> [Ang]:                        [  0.000000,  -0.000000,   0.900103]
    |<r_e - r_h>| [Ang]:                  2.646721
    Hole size [Ang]:                      1.096349
      Cartesian components [Ang]:       [  0.478914,   0.827092,   0.537160]
    Electron size [Ang]:                  6.937680
      Cartesian components [Ang]:       [  3.112583,   3.086139,   5.377636]
    RMS electron-hole separation [Ang]:   7.504988
      Cartesian components [Ang]:       [  3.149053,   3.194668,   6.016844]
    Covariance(r_h, r_e) [Ang^2]:         0.006834
    Correlation coefficient:              0.000898
    Center-of-mass size [Ang]:            3.512373
      Cartesian components [Ang]:       [  1.574685,   1.597715,   2.702672]

  Decomposition into state-averaged NTOs
    H- 0 -> L+ 6:  0.3880 ( 30.1%)
    H- 0 -> L+ 4: -0.3383 ( 22.9%)
    H- 0 -> L+ 8:  0.3262 ( 21.3%)
    H- 0 -> L+ 0:  0.1766 (  6.2%)
    H- 0 -> L+ 1:  0.1195 (  2.9%)
    H- 0 -> L+ 3:  0.0913 (  1.7%)
                   omega =  85.1%
  ----------------------------------------------------------------------------


  Excited state 2 (singlet, B2)                                    [converged]
  ----------------------------------------------------------------------------
  Term symbol:  2 (1) B2                                    R^2 =  1.29865e-10

  Total energy:                                           -153.9184480243 a.u.
  Excitation energy:                                               1.471499 eV

  Osc. strength:                                                      0.000663
  Trans. dip. moment [a.u.]:           [  -0.000000,   -0.135637,    0.000000]
  <i|r^2|0> [a.u.]:                    [   0.000000,   -0.000000,    0.000000]

  Dip. moment [a.u.]:                  [   0.000000,   -0.000000,   -2.888703]
  Total dipole [Debye]:                                               7.342351
  <r^2> [a.u.]:                        [ 142.505309,  106.909910,  227.019881]
  Total <r^2> [a.u.]:                                               476.435100

  V1^2 = 0.8615, V2^2 = 0.1385

  Important amplitudes:
      occ i      occ j       vir a       vir b          v   
    ---------------------------------------------------------
     4 (B1) A               1 (A2) A                 -0.6492
     4 (B1) A               2 (A2) A                 -0.0934
    ---------------------------------------------------------

  Density matrix analysis:
  ------------------------
  NOs
    Occupation of frontier NOs:
       0.9596   0.9996
    Number of electrons: 26.000000
    Number of unpaired electrons: n_u =  2.75564, n_u,nl =  2.11805
    NO participation ratio (PR_NO):  3.890318
  
  
  Mulliken Population Analysis
  Atom      Charge (e)              h+              e-           Del q
  --------------------------------------------------------------------
   1 C       -0.759687        0.045535       -0.537505       -0.491970
   2 C       -0.759687        0.045535       -0.537505       -0.491970
   3 H        0.174877       -0.006588       -0.043486       -0.050074
   4 H        0.174877       -0.006588       -0.043486       -0.050074
   5 H        0.091406        0.037244       -0.001067        0.036177
   6 H        0.091406        0.037244       -0.001067        0.036177
   7 O       -0.182797        1.423522       -0.527030        0.896492
   8 H        0.169605        0.140615       -0.025373        0.115243
  --------------------------------------------------------------------
  Sum:       -1.000000        1.716518       -1.716518        0.000000
  
  Multipole moment analysis of the density matrix
    Molecular charge:                      -1.000000
    Number of electrons:                   26.000000
      Center of electronic charge [Ang]: [ -0.000000,   0.000000,   0.058794]
    Total nuclear charge:                  25.000000
      Center of nuclear charge [Ang]:    [  0.000000,   0.000000,  -0.000000]
    Dipole moment [D]:                     7.342349
      Cartesian components [D]:          [  0.000000,  -0.000000,  -7.342349]
    RMS size of the density [Ang]:         2.264488
      Cartesian components [Ang]:        [  1.238882,   1.073059,   1.562569]
  
  Exciton analysis of the difference density matrix
    <r_h> [Ang]:                  [ -0.000000,  -0.000000,  -1.468370]
    <r_e> [Ang]:                  [ -0.000000,   0.000000,   0.085378]
    |<r_e - r_h>| [Ang]:            1.553748
    Hole size [Ang]:                1.815312
      Cartesian components [Ang]: [  0.944233,   0.807008,   1.323828]
    Electron size [Ang]:            6.036131
      Cartesian components [Ang]: [  3.858802,   3.841978,   2.604558]

  Transition density matrix analysis:
  -----------------------------------
  
  CT numbers (Mulliken)
    omega =     0.8471
    <Phe> =     0.0000
  
  Exciton analysis of the transition density matrix
    Trans. dipole moment [D]:             0.172378
      Cartesian components [D]:         [ -0.000000,  -0.172378,   0.000000]
    <r_h> [Ang]:                        [ -0.000000,  -0.000000,  -1.728634]
    <r_e> [Ang]:                        [ -0.000000,   0.000000,   1.027254]
    |<r_e - r_h>| [Ang]:                  2.755888
    Hole size [Ang]:                      1.140481
      Cartesian components [Ang]:       [  0.828024,   0.472934,   0.625626]
    Electron size [Ang]:                  7.625081
      Cartesian components [Ang]:       [  5.002163,   4.983793,   2.877854]
    RMS electron-hole separation [Ang]:   8.187023
      Cartesian components [Ang]:       [  5.069300,   5.006114,   4.033407]
    Covariance(r_h, r_e) [Ang^2]:         0.005068
    Correlation coefficient:              0.000583
    Center-of-mass size [Ang]:            3.855279
      Cartesian components [Ang]:       [  2.535583,   2.503125,   1.472536]

  Decomposition into state-averaged NTOs
    H- 1 -> L+ 7:  0.5858 ( 68.6%)
    H- 1 -> L+ 2:  0.2764 ( 15.3%)
                   omega =  84.7%
  ----------------------------------------------------------------------------


  Excited state 3 (singlet, B2)                                    [converged]
  ----------------------------------------------------------------------------
  Term symbol:  3 (1) B2                                    R^2 =  1.75205e-10

  Total energy:                                           -153.9116646175 a.u.
  Excitation energy:                                               1.656085 eV

  Osc. strength:                                                      0.005344
  Trans. dip. moment [a.u.]:           [   0.000000,   -0.362924,   -0.000000]
  <i|r^2|0> [a.u.]:                    [  -0.000000,   -0.000000,    0.000000]

  Dip. moment [a.u.]:                  [   0.000000,   -0.000000,   -3.182677]
  Total dipole [Debye]:                                               8.089559
  <r^2> [a.u.]:                        [ 158.349561,   53.237533,  233.325214]
  Total <r^2> [a.u.]:                                               444.912307

  V1^2 = 0.8640, V2^2 = 0.1360

  Important amplitudes:
      occ i      occ j       vir a       vir b          v   
    ---------------------------------------------------------
     2 (B2) A               9 (A1) A                  0.5976
     2 (B2) A               8 (A1) A                  0.2368
    ---------------------------------------------------------

  Density matrix analysis:
  ------------------------
  NOs
    Occupation of frontier NOs:
       0.9599   0.9987
    Number of electrons: 26.000000
    Number of unpaired electrons: n_u =  2.75377, n_u,nl =  2.11756
    NO participation ratio (PR_NO):  3.887502
  
  
  Mulliken Population Analysis
  Atom      Charge (e)              h+              e-           Del q
  --------------------------------------------------------------------
   1 C       -0.769822        0.038215       -0.540320       -0.502105
   2 C       -0.769822        0.038215       -0.540320       -0.502105
   3 H        0.181834       -0.001700       -0.041417       -0.043117
   4 H        0.181834       -0.001700       -0.041417       -0.043117
   5 H        0.086098        0.036325       -0.005456        0.030869
   6 H        0.086098        0.036325       -0.005456        0.030869
   7 O       -0.154736        1.417016       -0.492464        0.924552
   8 H        0.158515        0.140198       -0.036044        0.104153
  --------------------------------------------------------------------
  Sum:       -1.000000        1.702894       -1.702894        0.000000
  
  Multipole moment analysis of the density matrix
    Molecular charge:                      -1.000000
    Number of electrons:                   26.000000
      Center of electronic charge [Ang]: [ -0.000000,   0.000000,   0.064777]
    Total nuclear charge:                  25.000000
      Center of nuclear charge [Ang]:    [  0.000000,   0.000000,  -0.000000]
    Dipole moment [D]:                     8.089557
      Cartesian components [D]:          [  0.000000,  -0.000000,  -8.089557]
    RMS size of the density [Ang]:         2.188071
      Cartesian components [Ang]:        [  1.305939,   0.757222,   1.583917]
  
  Exciton analysis of the difference density matrix
    <r_h> [Ang]:                  [ -0.000000,  -0.000000,  -1.483767]
    <r_e> [Ang]:                  [ -0.000000,   0.000000,   0.173765]
    |<r_e - r_h>| [Ang]:            1.657532
    Hole size [Ang]:                1.800423
      Cartesian components [Ang]: [  0.866054,   0.892277,   1.302042]
    Electron size [Ang]:            5.609620
      Cartesian components [Ang]: [  4.179270,   2.488483,   2.794457]

  Transition density matrix analysis:
  -----------------------------------
  
  CT numbers (Mulliken)
    omega =     0.8494
    <Phe> =    -0.0006
  
  Exciton analysis of the transition density matrix
    Trans. dipole moment [D]:             0.461231
      Cartesian components [D]:         [  0.000000,  -0.461231,  -0.000000]
    <r_h> [Ang]:                        [ -0.000000,  -0.000000,  -1.744273]
    <r_e> [Ang]:                        [ -0.000000,   0.000000,   1.154939]
    |<r_e - r_h>| [Ang]:                  2.899212
    Hole size [Ang]:                      1.099793
      Cartesian components [Ang]:       [  0.479182,   0.827059,   0.543969]
    Electron size [Ang]:                  6.996428
      Cartesian components [Ang]:       [  5.392411,   3.184693,   3.119236]
    RMS electron-hole separation [Ang]:   7.651333
      Cartesian components [Ang]:       [  5.413565,   3.288775,   4.291874]
    Covariance(r_h, r_e) [Ang^2]:         0.011036
    Correlation coefficient:              0.001434
    Center-of-mass size [Ang]:            3.541949
      Cartesian components [Ang]:       [  2.706877,   1.645946,   1.584008]

  Decomposition into state-averaged NTOs
    H- 0 -> L+ 6: -0.3975 ( 31.6%)
    H- 0 -> L+ 8:  0.3507 ( 24.6%)
    H- 0 -> L+ 3:  0.2387 ( 11.4%)
    H- 0 -> L+ 1: -0.1956 (  7.7%)
    H- 0 -> L+ 4: -0.1822 (  6.6%)
    H- 0 -> L+ 0: -0.1232 (  3.0%)
                   omega =  84.9%
  ----------------------------------------------------------------------------


  Excited state 4 (singlet, B2)                                    [converged]
  ----------------------------------------------------------------------------
  Term symbol:  4 (1) B2                                    R^2 =  4.96299e-10

  Total energy:                                           -153.8817390143 a.u.
  Excitation energy:                                               2.470402 eV

  Osc. strength:                                                      0.000000
  Trans. dip. moment [a.u.]:           [  -0.000000,    0.000389,    0.000000]
  <i|r^2|0> [a.u.]:                    [   0.000000,   -0.000000,   -0.000000]

  Dip. moment [a.u.]:                  [  -0.000000,   -0.000000,   -3.642759]
  Total dipole [Debye]:                                               9.258972
  <r^2> [a.u.]:                        [ 110.438309,   28.701396,  216.258249]
  Total <r^2> [a.u.]:                                               355.397954

  V1^2 = 0.8667, V2^2 = 0.1333

  Important amplitudes:
      occ i      occ j       vir a       vir b          v   
    ---------------------------------------------------------
     2 (B2) A              10 (A1) A                 -0.6318
     2 (B2) A              11 (A1) A                  0.1171
    ---------------------------------------------------------

  Density matrix analysis:
  ------------------------
  NOs
    Occupation of frontier NOs:
       0.9611   0.9969
    Number of electrons: 26.000000
    Number of unpaired electrons: n_u =  2.75293, n_u,nl =  2.11669
    NO participation ratio (PR_NO):  3.888360
  
  
  Mulliken Population Analysis
  Atom      Charge (e)              h+              e-           Del q
  --------------------------------------------------------------------
   1 C       -0.788983        0.035794       -0.557060       -0.521266
   2 C       -0.788983        0.035794       -0.557060       -0.521266
   3 H        0.197935        0.001332       -0.028349       -0.027017
   4 H        0.197935        0.001332       -0.028349       -0.027017
   5 H        0.110227        0.042517        0.012480        0.054997
   6 H        0.110227        0.042517        0.012480        0.054997
   7 O       -0.246694        1.400614       -0.568020        0.832594
   8 H        0.208339        0.138506        0.015470        0.153977
  --------------------------------------------------------------------
  Sum:       -1.000000        1.698407       -1.698407        0.000000
  
  Multipole moment analysis of the density matrix
    Molecular charge:                      -1.000000
    Number of electrons:                   26.000000
      Center of electronic charge [Ang]: [  0.000000,   0.000000,   0.074141]
    Total nuclear charge:                  25.000000
      Center of nuclear charge [Ang]:    [  0.000000,   0.000000,  -0.000000]
    Dipole moment [D]:                     9.258969
      Cartesian components [D]:          [ -0.000000,  -0.000000,  -9.258969]
    RMS size of the density [Ang]:         1.955059
      Cartesian components [Ang]:        [  1.090622,   0.555989,   1.524361]
  
  Exciton analysis of the difference density matrix
    <r_h> [Ang]:                  [ -0.000000,  -0.000000,  -1.463032]
    <r_e> [Ang]:                  [  0.000000,   0.000000,   0.342228]
    |<r_e - r_h>| [Ang]:            1.805260
    Hole size [Ang]:                1.791565
      Cartesian components [Ang]: [  0.860714,   0.877520,   1.303394]
    Electron size [Ang]:            4.074059
      Cartesian components [Ang]: [  3.098672,   1.461246,   2.204756]

  Transition density matrix analysis:
  -----------------------------------
  
  CT numbers (Mulliken)
    omega =     0.8515
    <Phe> =    -0.0001
  
  Exciton analysis of the transition density matrix
    Trans. dipole moment [D]:             0.000495
      Cartesian components [D]:         [ -0.000000,   0.000495,   0.000000]
    <r_h> [Ang]:                        [ -0.000000,  -0.000000,  -1.740776]
    <r_e> [Ang]:                        [  0.000000,   0.000000,   1.423641]
    |<r_e - r_h>| [Ang]:                  3.164417
    Hole size [Ang]:                      1.103301
      Cartesian components [Ang]:       [  0.478829,   0.825808,   0.553206]
    Electron size [Ang]:                  4.820215
      Cartesian components [Ang]:       [  3.967943,   1.806983,   2.055410]
    RMS electron-hole separation [Ang]:   5.869459
      Cartesian components [Ang]:       [  3.996380,   1.986424,   3.812297]
    Covariance(r_h, r_e) [Ang^2]:         0.007363
    Correlation coefficient:              0.001385
    Center-of-mass size [Ang]:            2.473180
      Cartesian components [Ang]:       [  1.998539,   0.993531,   1.065530]

  Decomposition into state-averaged NTOs
    H- 0 -> L+ 3:  0.5279 ( 55.7%)
    H- 0 -> L+ 4:  0.3222 ( 20.8%)
    H- 0 -> L+ 1:  0.1809 (  6.5%)
    H- 0 -> L+ 0:  0.0821 (  1.3%)
                   omega =  85.1%
  ----------------------------------------------------------------------------


  Excited state 5 (singlet, B2)                                    [converged]
  ----------------------------------------------------------------------------
  Term symbol:  5 (1) B2                                    R^2 =  1.02758e-09

  Total energy:                                           -153.8660493937 a.u.
  Excitation energy:                                               2.897338 eV

  Osc. strength:                                                      0.020802
  Trans. dip. moment [a.u.]:           [  -0.000000,    0.541341,   -0.000000]
  <i|r^2|0> [a.u.]:                    [   0.000000,   -0.000000,    0.000000]

  Dip. moment [a.u.]:                  [   0.000000,   -0.000000,   -3.336409]
  Total dipole [Debye]:                                               8.480307
  <r^2> [a.u.]:                        [  82.827420,   39.960663,  260.385194]
  Total <r^2> [a.u.]:                                               383.173278

  V1^2 = 0.8694, V2^2 = 0.1306

  Important amplitudes:
      occ i      occ j       vir a       vir b          v   
    ---------------------------------------------------------
     2 (B2) A              11 (A1) A                  0.6014
     2 (B2) A              10 (A1) A                  0.1404
    ---------------------------------------------------------

  Density matrix analysis:
  ------------------------
  NOs
    Occupation of frontier NOs:
       0.9633   0.9947
    Number of electrons: 26.000000
    Number of unpaired electrons: n_u =  2.75343, n_u,nl =  2.11691
    NO participation ratio (PR_NO):  3.889731
  
  
  Mulliken Population Analysis
  Atom      Charge (e)              h+              e-           Del q
  --------------------------------------------------------------------
   1 C       -0.777810        0.031108       -0.541200       -0.510092
   2 C       -0.777810        0.031108       -0.541200       -0.510092
   3 H        0.187537        0.000165       -0.037579       -0.037414
   4 H        0.187537        0.000165       -0.037579       -0.037414
   5 H        0.079050        0.039060       -0.015239        0.023821
   6 H        0.079050        0.039060       -0.015239        0.023821
   7 O       -0.129372        1.403884       -0.453968        0.949916
   8 H        0.151817        0.135186       -0.037730        0.097455
  --------------------------------------------------------------------
  Sum:       -1.000000        1.679734       -1.679734       -0.000000
  
  Multipole moment analysis of the density matrix
    Molecular charge:                      -1.000000
    Number of electrons:                   26.000000
      Center of electronic charge [Ang]: [ -0.000000,   0.000000,   0.067906]
    Total nuclear charge:                  25.000000
      Center of nuclear charge [Ang]:    [  0.000000,   0.000000,  -0.000000]
    Dipole moment [D]:                     8.480305
      Cartesian components [D]:          [  0.000000,  -0.000000,  -8.480305]
    RMS size of the density [Ang]:         2.030342
      Cartesian components [Ang]:        [  0.944499,   0.656041,   1.673267]
  
  Exciton analysis of the difference density matrix
    <r_h> [Ang]:                  [ -0.000000,  -0.000000,  -1.478582]
    <r_e> [Ang]:                  [ -0.000000,   0.000000,   0.250234]
    |<r_e - r_h>| [Ang]:            1.728816
    Hole size [Ang]:                1.791986
      Cartesian components [Ang]: [  0.847136,   0.885633,   1.307375]
    Electron size [Ang]:            4.632113
      Cartesian components [Ang]: [  2.252570,   2.010411,   3.512926]

  Transition density matrix analysis:
  -----------------------------------
  
  CT numbers (Mulliken)
    omega =     0.8541
    <Phe> =    -0.0017
  
  Exciton analysis of the transition density matrix
    Trans. dipole moment [D]:             0.687976
      Cartesian components [D]:         [ -0.000000,   0.687976,  -0.000000]
    <r_h> [Ang]:                        [ -0.000000,  -0.000000,  -1.742088]
    <r_e> [Ang]:                        [ -0.000000,   0.000000,   1.238327]
    |<r_e - r_h>| [Ang]:                  2.980415
    Hole size [Ang]:                      1.100894
      Cartesian components [Ang]:       [  0.479595,   0.824894,   0.549094]
    Electron size [Ang]:                  5.598563
      Cartesian components [Ang]:       [  2.818746,   2.528582,   4.123694]
    RMS electron-hole separation [Ang]:   6.435338
      Cartesian components [Ang]:       [  2.858923,   2.658359,   5.115981]
    Covariance(r_h, r_e) [Ang^2]:         0.012589
    Correlation coefficient:              0.002042
    Center-of-mass size [Ang]:            2.853991
      Cartesian components [Ang]:       [  1.429793,   1.330553,   2.081006]

  Decomposition into state-averaged NTOs
    H- 0 -> L+ 1:  0.3856 ( 29.7%)
    H- 0 -> L+ 4: -0.3184 ( 20.3%)
    H- 0 -> L+ 6: -0.2748 ( 15.1%)
    H- 0 -> L+ 8: -0.2535 ( 12.9%)
    H- 0 -> L+ 0:  0.1756 (  6.2%)
    H- 0 -> L+ 3:  0.0724 (  1.0%)
                   omega =  85.4%
  ----------------------------------------------------------------------------


  Excited state 6 (singlet, B2)                                    [converged]
  ----------------------------------------------------------------------------
  Term symbol:  6 (1) B2                                    R^2 =  5.71814e-09

  Total energy:                                           -153.8580212053 a.u.
  Excitation energy:                                               3.115796 eV

  Osc. strength:                                                      0.002083
  Trans. dip. moment [a.u.]:           [  -0.000000,   -0.165192,    0.000000]
  <i|r^2|0> [a.u.]:                    [   0.000000,   -0.000000,    0.000000]

  Dip. moment [a.u.]:                  [   0.000000,   -0.000000,   -2.854527]
  Total dipole [Debye]:                                               7.255486
  <r^2> [a.u.]:                        [  95.235062,   59.683745,  211.900574]
  Total <r^2> [a.u.]:                                               366.819382

  V1^2 = 0.8684, V2^2 = 0.1316

  Important amplitudes:
      occ i      occ j       vir a       vir b          v   
    ---------------------------------------------------------
     4 (B1) A               2 (A2) A                 -0.6106
     4 (B1) A               3 (A2) A                 -0.2244
    ---------------------------------------------------------

  Density matrix analysis:
  ------------------------
  NOs
    Occupation of frontier NOs:
       0.9642   0.9943
    Number of electrons: 26.000000
    Number of unpaired electrons: n_u =  2.75030, n_u,nl =  2.11399
    NO participation ratio (PR_NO):  3.880819
  
  
  Mulliken Population Analysis
  Atom      Charge (e)              h+              e-           Del q
  --------------------------------------------------------------------
   1 C       -0.741742        0.042483       -0.516508       -0.474025
   2 C       -0.741742        0.042483       -0.516508       -0.474025
   3 H        0.169898       -0.003576       -0.051477       -0.055053
   4 H        0.169898       -0.003576       -0.051477       -0.055053
   5 H        0.080849        0.026134       -0.000514        0.025620
   6 H        0.080849        0.026134       -0.000514        0.025620
   7 O       -0.179458        1.398406       -0.498575        0.899831
   8 H        0.161449        0.130284       -0.023196        0.107087
  --------------------------------------------------------------------
  Sum:       -1.000000        1.658770       -1.658770        0.000000
  
  Multipole moment analysis of the density matrix
    Molecular charge:                      -1.000000
    Number of electrons:                   26.000000
      Center of electronic charge [Ang]: [ -0.000000,   0.000000,   0.058098]
    Total nuclear charge:                  25.000000
      Center of nuclear charge [Ang]:    [  0.000000,   0.000000,  -0.000000]
    Dipole moment [D]:                     7.255484
      Cartesian components [D]:          [  0.000000,  -0.000000,  -7.255484]
    RMS size of the density [Ang]:         1.986804
      Cartesian components [Ang]:        [  1.012775,   0.801757,   1.509590]
  
  Exciton analysis of the difference density matrix
    <r_h> [Ang]:                  [ -0.000000,  -0.000000,  -1.508780]
    <r_e> [Ang]:                  [ -0.000000,  -0.000000,   0.088158]
    |<r_e - r_h>| [Ang]:            1.596937
    Hole size [Ang]:                1.718932
      Cartesian components [Ang]: [  0.917414,   0.768490,   1.233898]
    Electron size [Ang]:            4.334510
      Cartesian components [Ang]: [  2.710675,   2.686772,   2.054624]

  Transition density matrix analysis:
  -----------------------------------
  
  CT numbers (Mulliken)
    omega =     0.8508
    <Phe> =    -0.0000
  
  Exciton analysis of the transition density matrix
    Trans. dipole moment [D]:             0.209938
      Cartesian components [D]:         [ -0.000000,  -0.209938,   0.000000]
    <r_h> [Ang]:                        [ -0.000000,  -0.000000,  -1.718379]
    <r_e> [Ang]:                        [ -0.000000,   0.000000,   1.025985]
    |<r_e - r_h>| [Ang]:                  2.744364
    Hole size [Ang]:                      1.150951
      Cartesian components [Ang]:       [  0.825760,   0.472328,   0.647854]
    Electron size [Ang]:                  5.213313
      Cartesian components [Ang]:       [  3.424202,   3.400111,   1.972998]
    RMS electron-hole separation [Ang]:   6.001660
      Cartesian components [Ang]:       [  3.520471,   3.432585,   3.441448]
    Covariance(r_h, r_e) [Ang^2]:         0.007466
    Correlation coefficient:              0.001244
    Center-of-mass size [Ang]:            2.670124
      Cartesian components [Ang]:       [  1.762127,   1.716469,   1.038368]

  Decomposition into state-averaged NTOs
    H- 1 -> L+ 2:  0.5650 ( 63.8%)
    H- 1 -> L+ 7: -0.2810 ( 15.8%)
    H- 1 -> L+ 9: -0.1612 (  5.2%)
                   omega =  85.1%
  ----------------------------------------------------------------------------


  Excited state 7 (singlet, B2)                                    [converged]
  ----------------------------------------------------------------------------
  Term symbol:  7 (1) B2                                    R^2 =  6.23328e-09

  Total energy:                                           -153.8172934919 a.u.
  Excitation energy:                                               4.224054 eV

  Osc. strength:                                                      0.024852
  Trans. dip. moment [a.u.]:           [   0.000000,    0.490041,    0.000000]
  <i|r^2|0> [a.u.]:                    [  -0.000000,    0.000000,   -0.000000]

  Dip. moment [a.u.]:                  [  -0.000000,    0.000000,    1.071881]
  Total dipole [Debye]:                                               2.724450
  <r^2> [a.u.]:                        [  92.374843,   32.495879,  229.368111]
  Total <r^2> [a.u.]:                                               354.238833

  V1^2 = 0.8884, V2^2 = 0.1116

  Important amplitudes:
      occ i      occ j       vir a       vir b          v   
    ---------------------------------------------------------
     2 (B2) A              13 (A1) A                  0.4656
     2 (B2) A              12 (A1) A                 -0.3557
    ---------------------------------------------------------

  Density matrix analysis:
  ------------------------
  NOs
    Occupation of frontier NOs:
       0.9659   0.9939
    Number of electrons: 26.000000
    Number of unpaired electrons: n_u =  2.73072, n_u,nl =  2.10746
    NO participation ratio (PR_NO):  3.824587
  
  
  Mulliken Population Analysis
  Atom      Charge (e)              h+              e-           Del q
  --------------------------------------------------------------------
   1 C       -0.504578        0.029312       -0.266173       -0.236861
   2 C       -0.504578        0.029312       -0.266173       -0.236861
   3 H        0.170809        0.000599       -0.054741       -0.054142
   4 H        0.170809        0.000599       -0.054741       -0.054142
   5 H        0.028978        0.023690       -0.049941       -0.026251
   6 H        0.028978        0.023690       -0.049941       -0.026251
   7 O       -1.210217        1.276561       -1.407490       -0.130928
   8 H        0.819798        0.184217        0.581220        0.765436
  --------------------------------------------------------------------
  Sum:       -1.000000        1.567979       -1.567979        0.000000
  
  Multipole moment analysis of the density matrix
    Molecular charge:                      -1.000000
    Number of electrons:                   26.000000
      Center of electronic charge [Ang]: [  0.000000,  -0.000000,  -0.021816]
    Total nuclear charge:                  25.000000
      Center of nuclear charge [Ang]:    [  0.000000,   0.000000,  -0.000000]
    Dipole moment [D]:                     2.724450
      Cartesian components [D]:          [ -0.000000,   0.000000,   2.724450]
    RMS size of the density [Ang]:         1.953149
      Cartesian components [Ang]:        [  0.997450,   0.591601,   1.571590]
  
  Exciton analysis of the difference density matrix
    <r_h> [Ang]:                  [ -0.000000,  -0.000000,  -1.555881]
    <r_e> [Ang]:                  [  0.000000,  -0.000000,  -1.191599]
    |<r_e - r_h>| [Ang]:            0.364281
    Hole size [Ang]:                1.727335
      Cartesian components [Ang]: [  0.868618,   0.893172,   1.196425]
    Electron size [Ang]:            4.010959
      Cartesian components [Ang]: [  2.669554,   1.718772,   2.450939]

  Transition density matrix analysis:
  -----------------------------------
  
  CT numbers (Mulliken)
    omega =     0.8707
    <Phe> =    -0.0096
  
  Exciton analysis of the transition density matrix
    Trans. dipole moment [D]:             0.622780
      Cartesian components [D]:         [  0.000000,   0.622780,   0.000000]
    <r_h> [Ang]:                        [ -0.000000,  -0.000000,  -1.740875]
    <r_e> [Ang]:                        [  0.000000,  -0.000000,  -1.194198]
    |<r_e - r_h>| [Ang]:                  0.546677
    Hole size [Ang]:                      1.096500
      Cartesian components [Ang]:       [  0.476333,   0.821129,   0.548785]
    Electron size [Ang]:                  4.798126
      Cartesian components [Ang]:       [  3.217759,   2.054341,   2.906496]
    RMS electron-hole separation [Ang]:   4.943110
      Cartesian components [Ang]:       [  3.252598,   2.210652,   2.994655]
    Covariance(r_h, r_e) [Ang^2]:         0.044421
    Correlation coefficient:              0.008443
    Center-of-mass size [Ang]:            2.465419
      Cartesian components [Ang]:       [  1.626525,   1.107041,   1.485653]

  Decomposition into state-averaged NTOs
    H- 0 -> L+ 0:  0.5131 ( 52.6%)
    H- 0 -> L+ 8:  0.2249 ( 10.1%)
    H- 0 -> L+ 4:  0.2197 (  9.7%)
    H- 0 -> L+ 3: -0.1987 (  7.9%)
    H- 0 -> L+ 6: -0.1805 (  6.5%)
                   omega =  87.1%
  ----------------------------------------------------------------------------


  Excited state 8 (singlet, B2)                                    [converged]
  ----------------------------------------------------------------------------
  Term symbol:  8 (1) B2                                    R^2 =  2.02729e-07

  Total energy:                                           -153.8070764317 a.u.
  Excitation energy:                                               4.502074 eV

  Osc. strength:                                                      0.000344
  Trans. dip. moment [a.u.]:           [  -0.000000,   -0.055811,    0.000000]
  <i|r^2|0> [a.u.]:                    [   0.000000,    0.000000,    0.000000]

  Dip. moment [a.u.]:                  [   0.000000,   -0.000000,   -2.803204]
  Total dipole [Debye]:                                               7.125035
  <r^2> [a.u.]:                        [  77.280839,   41.327750,  206.706867]
  Total <r^2> [a.u.]:                                               325.315457

  V1^2 = 0.8664, V2^2 = 0.1336

  Important amplitudes:
      occ i      occ j       vir a       vir b          v   
    ---------------------------------------------------------
     4 (B1) A               3 (A2) A                  0.5834
     4 (B1) A               2 (A2) A                 -0.2233
    ---------------------------------------------------------

  Density matrix analysis:
  ------------------------
  NOs
    Occupation of frontier NOs:
       0.9655   0.9935
    Number of electrons: 26.000000
    Number of unpaired electrons: n_u =  2.73163, n_u,nl =  2.10434
    NO participation ratio (PR_NO):  3.831922
  
  
  Mulliken Population Analysis
  Atom      Charge (e)              h+              e-           Del q
  --------------------------------------------------------------------
   1 C       -0.686310        0.096904       -0.515497       -0.418593
   2 C       -0.686310        0.096904       -0.515497       -0.418593
   3 H        0.149239        0.000218       -0.075930       -0.075712
   4 H        0.149239        0.000218       -0.075930       -0.075712
   5 H        0.049520        0.010581       -0.016291       -0.005709
   6 H        0.049520        0.010581       -0.016291       -0.005709
   7 O       -0.177405        1.359191       -0.457308        0.901884
   8 H        0.152506        0.119140       -0.020996        0.098144
  --------------------------------------------------------------------
  Sum:       -1.000000        1.693738       -1.693738        0.000000
  
  Multipole moment analysis of the density matrix
    Molecular charge:                      -1.000000
    Number of electrons:                   26.000000
      Center of electronic charge [Ang]: [ -0.000000,   0.000000,   0.057054]
    Total nuclear charge:                  25.000000
      Center of nuclear charge [Ang]:    [  0.000000,   0.000000,  -0.000000]
    Dipole moment [D]:                     7.125033
      Cartesian components [D]:          [  0.000000,  -0.000000,  -7.125033]
    RMS size of the density [Ang]:         1.870962
      Cartesian components [Ang]:        [  0.912327,   0.667168,   1.490988]
  
  Exciton analysis of the difference density matrix
    <r_h> [Ang]:                  [ -0.000000,  -0.000000,  -1.386570]
    <r_e> [Ang]:                  [ -0.000000,   0.000000,   0.161362]
    |<r_e - r_h>| [Ang]:            1.547932
    Hole size [Ang]:                1.719089
      Cartesian components [Ang]: [  0.895750,   0.733750,   1.270634]
    Electron size [Ang]:            3.357745
      Cartesian components [Ang]: [  2.050794,   1.998721,   1.753229]

  Transition density matrix analysis:
  -----------------------------------
  
  CT numbers (Mulliken)
    omega =     0.8408
    <Phe> =    -0.0007
  
  Exciton analysis of the transition density matrix
    Trans. dipole moment [D]:             0.070928
      Cartesian components [D]:         [ -0.000000,  -0.070928,   0.000000]
    <r_h> [Ang]:                        [ -0.000000,  -0.000000,  -1.692785]
    <r_e> [Ang]:                        [ -0.000000,   0.000000,   1.023935]
    |<r_e - r_h>| [Ang]:                  2.716721
    Hole size [Ang]:                      1.181598
      Cartesian components [Ang]:       [  0.825654,   0.469230,   0.703058]
    Electron size [Ang]:                  3.882890
      Cartesian components [Ang]:       [  2.561707,   2.523016,   1.465908]
    RMS electron-hole separation [Ang]:   4.882227
      Cartesian components [Ang]:       [  2.688777,   2.566041,   3.165763]
    Covariance(r_h, r_e) [Ang^2]:         0.008717
    Correlation coefficient:              0.001900
    Center-of-mass size [Ang]:            2.030421
      Cartesian components [Ang]:       [  1.347087,   1.283258,   0.813152]

  Decomposition into state-averaged NTOs
    H- 1 -> L+ 9:  0.6236 ( 77.8%)
    H- 1 -> L+ 2:  0.1737 (  6.0%)
                   omega =  84.1%
  ----------------------------------------------------------------------------


  Excited state 9 (singlet, B2)                                    [converged]
  ----------------------------------------------------------------------------
  Term symbol:  9 (1) B2                                    R^2 =  3.24479e-08

  Total energy:                                           -153.7982427220 a.u.
  Excitation energy:                                               4.742451 eV

  Osc. strength:                                                      0.000003
  Trans. dip. moment [a.u.]:           [   0.000000,    0.005253,   -0.000000]
  <i|r^2|0> [a.u.]:                    [   0.000000,    0.000000,    0.000000]

  Dip. moment [a.u.]:                  [   0.000000,    0.000000,   -1.577932]
  Total dipole [Debye]:                                               4.010705
  <r^2> [a.u.]:                        [  77.466086,   31.343278,  221.288726]
  Total <r^2> [a.u.]:                                               330.098090

  V1^2 = 0.8794, V2^2 = 0.1206

  Important amplitudes:
      occ i      occ j       vir a       vir b          v   
    ---------------------------------------------------------
     2 (B2) A              12 (A1) A                  0.4951
     2 (B2) A              13 (A1) A                  0.3809
    ---------------------------------------------------------

  Density matrix analysis:
  ------------------------
  NOs
    Occupation of frontier NOs:
       0.9666   0.9918
    Number of electrons: 26.000000
    Number of unpaired electrons: n_u =  2.74543, n_u,nl =  2.11217
    NO participation ratio (PR_NO):  3.869244
  
  
  Mulliken Population Analysis
  Atom      Charge (e)              h+              e-           Del q
  --------------------------------------------------------------------
   1 C       -0.671493        0.046104       -0.449880       -0.403776
   2 C       -0.671493        0.046104       -0.449880       -0.403776
   3 H        0.263849        0.002426        0.036471        0.038897
   4 H        0.263849        0.002426        0.036471        0.038897
   5 H        0.202062        0.023196        0.123636        0.146833
   6 H        0.202062        0.023196        0.123636        0.146833
   7 O       -0.973961        1.312344       -1.207016        0.105327
   8 H        0.385127        0.155122        0.175643        0.330765
  --------------------------------------------------------------------
  Sum:       -1.000000        1.610918       -1.610918        0.000000
  
  Multipole moment analysis of the density matrix
    Molecular charge:                      -1.000000
    Number of electrons:                   26.000000
      Center of electronic charge [Ang]: [ -0.000000,  -0.000000,   0.032116]
    Total nuclear charge:                  25.000000
      Center of nuclear charge [Ang]:    [  0.000000,   0.000000,  -0.000000]
    Dipole moment [D]:                     4.010704
      Cartesian components [D]:          [  0.000000,   0.000000,  -4.010704]
    RMS size of the density [Ang]:         1.885267
      Cartesian components [Ang]:        [  0.913419,   0.581014,   1.543477]
  
  Exciton analysis of the difference density matrix
    <r_h> [Ang]:                  [ -0.000000,  -0.000000,  -1.504309]
    <r_e> [Ang]:                  [ -0.000000,  -0.000000,  -0.279289]
    |<r_e - r_h>| [Ang]:            1.225020
    Hole size [Ang]:                1.722368
      Cartesian components [Ang]: [  0.839726,   0.872716,   1.224654]
    Electron size [Ang]:            3.568713
      Cartesian components [Ang]: [  2.077427,   1.631017,   2.399957]

  Transition density matrix analysis:
  -----------------------------------
  
  CT numbers (Mulliken)
    omega =     0.8623
    <Phe> =    -0.0017
  
  Exciton analysis of the transition density matrix
    Trans. dipole moment [D]:             0.006676
      Cartesian components [D]:         [  0.000000,   0.006676,  -0.000000]
    <r_h> [Ang]:                        [ -0.000000,  -0.000000,  -1.730137]
    <r_e> [Ang]:                        [ -0.000000,  -0.000000,   0.273452]
    |<r_e - r_h>| [Ang]:                  2.003588
    Hole size [Ang]:                      1.112866
      Cartesian components [Ang]:       [  0.478333,   0.821958,   0.577974]
    Electron size [Ang]:                  4.215238
      Cartesian components [Ang]:       [  2.519886,   1.986479,   2.733552]
    RMS electron-hole separation [Ang]:   4.789066
      Cartesian components [Ang]:       [  2.564551,   2.145594,   3.428506]
    Covariance(r_h, r_e) [Ang^2]:         0.042957
    Correlation coefficient:              0.009157
    Center-of-mass size [Ang]:            2.184755
      Cartesian components [Ang]:       [  1.282609,   1.077015,   1.402892]

  Decomposition into state-averaged NTOs
    H- 0 -> L+ 1: -0.4410 ( 38.9%)
    H- 0 -> L+ 0:  0.3062 ( 18.8%)
    H- 0 -> L+ 8: -0.2795 ( 15.6%)
    H- 0 -> L+ 3:  0.1925 (  7.4%)
    H- 0 -> L+ 4: -0.1496 (  4.5%)
                   omega =  86.2%
  ----------------------------------------------------------------------------


  Excited state 10 (singlet, B2)                                    [converged]
  ----------------------------------------------------------------------------
  Term symbol:  10 (1) B2                                   R^2 =  4.33027e-06

  Total energy:                                           -153.7762075439 a.u.
  Excitation energy:                                               5.342059 eV

  Osc. strength:                                                      0.000153
  Trans. dip. moment [a.u.]:           [  -0.000000,    0.034203,    0.000000]
  <i|r^2|0> [a.u.]:                    [   0.000000,    0.000000,    0.000000]

  Dip. moment [a.u.]:                  [  -0.000000,    0.000000,   -2.791500]
  Total dipole [Debye]:                                               7.095286
  <r^2> [a.u.]:                        [  89.415230,  122.150312,  230.984017]
  Total <r^2> [a.u.]:                                               442.549559

  V1^2 = 0.8668, V2^2 = 0.1332

  Important amplitudes:
      occ i      occ j       vir a       vir b          v   
    ---------------------------------------------------------
     7 (A1) A               3 (B2) A                  0.6472
     7 (A1) A               4 (B2) A                  0.1070
    ---------------------------------------------------------

  Density matrix analysis:
  ------------------------
  NOs
    Occupation of frontier NOs:
       0.9788   1.0003
    Number of electrons: 26.000000
    Number of unpaired electrons: n_u =  2.80456, n_u,nl =  2.13359
    NO participation ratio (PR_NO):  3.946053
  
  
  Mulliken Population Analysis
  Atom      Charge (e)              h+              e-           Del q
  --------------------------------------------------------------------
   1 C       -0.754999        0.062283       -0.549564       -0.487281
   2 C       -0.754999        0.062283       -0.549564       -0.487281
   3 H        0.182710       -0.001670       -0.040572       -0.042241
   4 H        0.182710       -0.001670       -0.040572       -0.042241
   5 H        0.092483        0.039079       -0.001826        0.037253
   6 H        0.092483        0.039079       -0.001826        0.037253
   7 O       -0.376066        1.226384       -0.523161        0.703223
   8 H        0.335678        0.298291       -0.016975        0.281316
  --------------------------------------------------------------------
  Sum:       -1.000000        1.724060       -1.724060        0.000000
  
  Multipole moment analysis of the density matrix
    Molecular charge:                      -1.000000
    Number of electrons:                   26.000000
      Center of electronic charge [Ang]: [  0.000000,  -0.000000,   0.056815]
    Total nuclear charge:                  25.000000
      Center of nuclear charge [Ang]:    [  0.000000,   0.000000,  -0.000000]
    Dipole moment [D]:                     7.095284
      Cartesian components [D]:          [ -0.000000,   0.000000,  -7.095284]
    RMS size of the density [Ang]:         2.182470
      Cartesian components [Ang]:        [  0.981342,   1.146996,   1.576244]
  
  Exciton analysis of the difference density matrix
    <r_h> [Ang]:                  [ -0.000000,  -0.000000,  -1.392923]
    <r_e> [Ang]:                  [  0.000000,  -0.000000,   0.124193]
    |<r_e - r_h>| [Ang]:            1.517116
    Hole size [Ang]:                1.857500
      Cartesian components [Ang]: [  0.866674,   0.796576,   1.436889]
    Electron size [Ang]:            5.543142
      Cartesian components [Ang]: [  2.462837,   4.142192,   2.739179]

  Transition density matrix analysis:
  -----------------------------------
  
  CT numbers (Mulliken)
    omega =     0.8500
    <Phe> =     0.0000
  
  Exciton analysis of the transition density matrix
    Trans. dipole moment [D]:             0.043468
      Cartesian components [D]:         [ -0.000000,   0.043468,   0.000000]
    <r_h> [Ang]:                        [ -0.000000,   0.000000,  -1.713389]
    <r_e> [Ang]:                        [  0.000000,  -0.000000,   1.041015]
    |<r_e - r_h>| [Ang]:                  2.754404
    Hole size [Ang]:                      1.147276
      Cartesian components [Ang]:       [  0.453615,   0.406459,   0.972248]
    Electron size [Ang]:                  6.965948
      Cartesian components [Ang]:       [  3.136346,   5.389238,   3.105458]
    RMS electron-hole separation [Ang]:   7.577616
      Cartesian components [Ang]:       [  3.168524,   5.404506,   4.262866]
    Covariance(r_h, r_e) [Ang^2]:         0.003575
    Correlation coefficient:              0.000447
    Center-of-mass size [Ang]:            3.530149
      Cartesian components [Ang]:       [  1.584717,   2.702291,   1.627344]

  Decomposition into state-averaged NTOs
    H- 2 -> L+ 5: -0.6519 ( 85.0%)
                   omega =  85.0%
  ----------------------------------------------------------------------------


--------------------------------------------------------------------------------
  Time of ADC calculation:  CPU 346.56 s  wall 83.53 s
================================================================================
 
 --------------------------------------------------------------
             Orbital Energies (a.u.) and Symmetries
 --------------------------------------------------------------
 
 Alpha MOs, Restricted
 -- Occupied --                  
-20.213 -11.049 -11.047  -0.930  -0.854  -0.598  -0.473  -0.384
  1 A1    2 A1    1 B1    3 A1    4 A1    2 B1    5 A1    6 A1                 
 -0.328  -0.271  -0.194  -0.130  -0.129
  3 B1    7 A1    1 B2    4 B1    2 B2                                         
 -- Virtual --                   
  0.092   0.101   0.102   0.103   0.111   0.122   0.167   0.172
  5 B1    3 B2    8 A1    1 A2    6 B1    9 A1   10 A1    7 B1                 
  0.190   0.190   0.194   0.212   0.271   0.300   0.313   0.326
  4 B2   11 A1    2 A2    8 B1   12 A1    3 A2    9 B1   13 A1                 
  0.339   0.344   0.350   0.367   0.386   0.424   0.451   0.484
 14 A1   10 B1    5 B2   15 A1   11 B1    4 A2    6 B2   12 B1                 
  0.495   0.521   0.542   0.580   0.618   0.620   0.675   0.680
 16 A1   17 A1   13 B1   18 A1   14 B1   19 A1   20 A1    7 B2                 
  0.692   0.716   0.732   0.737   0.820   1.011   1.057   1.129
 15 B1   16 B1   21 A1    5 A2   17 B1   22 A1   23 A1   18 B1                 
  1.162   1.200   1.268   1.291   1.310   1.323   1.325   1.351
 24 A1    8 B2   19 B1    6 A2   25 A1   26 A1   20 B1   27 A1                 
  1.367   1.369   1.399   1.437   1.482   1.509   1.533   1.620
 21 B1    9 B2   28 A1   10 B2    7 A2    8 A2   11 B2   22 B1                 
  1.671   1.691   1.719   1.839   1.885   2.021   2.046   2.076
 23 B1   29 A1   12 B2   24 B1   30 A1   25 B1   31 A1    9 A2                 
  2.133   2.169   2.204   2.213   2.283   2.366   2.373   2.397
 13 B2   32 A1   26 B1   14 B2   33 A1   34 A1   10 A2   15 B2                 
  2.440   2.536   2.586   2.604   2.768   2.777   2.857   3.072
 27 B1   28 B1   35 A1   11 A2   29 B1   36 A1   30 B1   37 A1                 
  3.119   3.158   3.529   3.587   3.923   3.945   3.973   4.090
 38 A1   39 A1   31 B1   32 B1   16 B2   12 A2   40 A1   33 B1                 
  4.548
 41 A1                                                                         
 
 Beta MOs, Restricted
 -- Occupied --                  
-20.213 -11.049 -11.047  -0.930  -0.854  -0.598  -0.473  -0.384
  1 A1    2 A1    1 B1    3 A1    4 A1    2 B1    5 A1    6 A1                 
 -0.328  -0.271  -0.194  -0.130  -0.129
  3 B1    7 A1    1 B2    4 B1    2 B2                                         
 -- Virtual --                   
  0.092   0.101   0.102   0.103   0.111   0.122   0.167   0.172
  5 B1    3 B2    8 A1    1 A2    6 B1    9 A1   10 A1    7 B1                 
  0.190   0.190   0.194   0.212   0.271   0.300   0.313   0.326
  4 B2   11 A1    2 A2    8 B1   12 A1    3 A2    9 B1   13 A1                 
  0.339   0.344   0.350   0.367   0.386   0.424   0.451   0.484
 14 A1   10 B1    5 B2   15 A1   11 B1    4 A2    6 B2   12 B1                 
  0.495   0.521   0.542   0.580   0.618   0.620   0.675   0.680
 16 A1   17 A1   13 B1   18 A1   14 B1   19 A1   20 A1    7 B2                 
  0.692   0.716   0.732   0.737   0.820   1.011   1.057   1.129
 15 B1   16 B1   21 A1    5 A2   17 B1   22 A1   23 A1   18 B1                 
  1.162   1.200   1.268   1.291   1.310   1.323   1.325   1.351
 24 A1    8 B2   19 B1    6 A2   25 A1   26 A1   20 B1   27 A1                 
  1.367   1.369   1.399   1.437   1.482   1.509   1.533   1.620
 21 B1    9 B2   28 A1   10 B2    7 A2    8 A2   11 B2   22 B1                 
  1.671   1.691   1.719   1.839   1.885   2.021   2.046   2.076
 23 B1   29 A1   12 B2   24 B1   30 A1   25 B1   31 A1    9 A2                 
  2.133   2.169   2.204   2.213   2.283   2.366   2.373   2.397
 13 B2   32 A1   26 B1   14 B2   33 A1   34 A1   10 A2   15 B2                 
  2.440   2.536   2.586   2.604   2.768   2.777   2.857   3.072
 27 B1   28 B1   35 A1   11 A2   29 B1   36 A1   30 B1   37 A1                 
  3.119   3.158   3.529   3.587   3.923   3.945   3.973   4.090
 38 A1   39 A1   31 B1   32 B1   16 B2   12 A2   40 A1   33 B1                 
  4.548
 41 A1                                                                         
 --------------------------------------------------------------
 
          Ground-State Mulliken Net Atomic Charges

     Atom                 Charge (a.u.)
  ----------------------------------------
      1 C                    -0.263064
      2 C                    -0.263064
      3 H                     0.218530
      4 H                     0.218530
      5 H                     0.048003
      6 H                     0.048003
      7 O                    -1.078310
      8 H                     0.071373
  ----------------------------------------
  Sum of atomic charges =    -1.000000

 -----------------------------------------------------------------
                    Cartesian Multipole Moments
 -----------------------------------------------------------------
    Charge (ESU x 10^10)
                -4.8032
    Dipole Moment (Debye)
         X      -0.0000      Y       0.0000      Z       5.2887
       Tot       5.2887
    Quadrupole Moments (Debye-Ang)
        XX     -23.6519     XY       0.0000     YY     -26.5245
        XZ      -0.0000     YZ      -0.0000     ZZ     -32.8907
    Octopole Moments (Debye-Ang^2)
       XXX      -0.0000    XXY       0.0000    XYY       0.0000
       YYY      -0.0000    XXZ       1.1236    XYZ      -0.0000
       YYZ      -0.0850    XZZ       0.0000    YZZ       0.0000
       ZZZ       6.5135
    Hexadecapole Moments (Debye-Ang^3)
      XXXX     -88.1099   XXXY      -0.0000   XXYY     -21.8925
      XYYY       0.0000   YYYY     -40.1109   XXXZ      -0.0000
      XXYZ       0.0000   XYYZ       0.0000   YYYZ      -0.0000
      XXZZ     -70.5797   XYZZ      -0.0000   YYZZ     -65.5627
      XZZZ       0.0000   YZZZ      -0.0000   ZZZZ    -292.8968
 -----------------------------------------------------------------
 Total job time:  193.22s(wall), 396.93s(cpu) 
 Fri Mar  4 18:09:29 2022

        *************************************************************
        *                                                           *
        *  Thank you very much for using Q-Chem.  Have a nice day.  *
        *                                                           *
        *************************************************************


