/src/tsommerfeld/qchem/exe/qcprog.exe .input0.694444.6411.qcin.1 /src/jdavis/qchem.scratch/qchem6411/

                  Welcome to Q-Chem
     A Quantum Leap Into The Future Of Chemistry


 Q-Chem 5.4 (devel), Q-Chem, Inc., Pleasanton, CA (2021)

 E. Epifanovsky,  A. T. B. Gilbert,  Xintian Feng,  Joonho Lee,  Yuezhi Mao,  
 N. Mardirossian,  P. Pokhilko,  A. White,  M. Wormit,  M. P. Coons,  
 A. L. Dempwolff,  Zhengting Gan,  D. Hait,  P. R. Horn,  L. D. Jacobson,  
 I. Kaliman,  J. Kussmann,  A. W. Lange,  Ka Un Lao,  D. S. Levine,  Jie Liu,  
 S. C. McKenzie,  A. F. Morrison,  K. Nanda,  F. Plasser,  D. R. Rehn,  
 M. L. Vidal,  Zhi-Qiang You,  Ying Zhu,  B. Alam,  B. Albrecht,  
 A. Aldossary,  E. Alguire,  J. H. Andersen,  D. Barton,  K. Begam,  A. Behn,  
 Y. A. Bernard,  E. J. Berquist,  H. Burton,  A. Carreras,  K. Carter-Fenk,  
 R. Chakraborty,  A. D. Chien,  K. D. Closser,  V. Cofer-Shabica,  
 S. Dasgupta,  Jia Deng,  M. de Wergifosse,  M. Diedenhofen,  Hainam Do,  
 S. Ehlert,  Po-Tung Fang,  S. Fatehi,  Qingguo Feng,  T. Friedhoff,  
 J. Gayvert,  Qinghui Ge,  G. Gidofalvi,  M. Goldey,  J. Gomes,  
 C. Gonzalez-Espinoza,  S. Gulania,  A. Gunina,  M. W. D. Hanson-Heine,  
 P. H. P. Harbach,  A. W. Hauser,  M. F. Herbst,  M. Hernandez Vera,  
 M. Hodecker,  Z. C. Holden,  S. Houck,  Xunkun Huang,  Kerwin Hui,  
 B. C. Huynh,  M. Ivanov,  Hyunjun Ji,  Hanjie Jiang,  B. Kaduk,  S. Kaehler,  
 K. Khistyaev,  Jaehoon Kim,  P. Klunzinger,  Z. Koczor-Benda,  
 Joong Hoon Koh,  D. Kosenkov,  L. Koulias,  T. Kowalczyk,  C. M. Krauter,  
 K. Kue,  A. Kunitsa,  T. Kus,  A. Landau,  K. V. Lawler,  D. Lefrancois,  
 S. Lehtola,  Rain Li,  Yi-Pei Li,  Jiashu Liang,  M. Liebenthal,  
 Hung-Hsuan Lin,  You-Sheng Lin,  Fenglai Liu,  Kuan-Yu Liu,  
 M. Loipersberger,  A. Luenser,  A. Manjanath,  P. Manohar,  E. Mansoor,  
 S. F. Manzer,  Shan-Ping Mao,  A. V. Marenich,  T. Markovich,  S. Mason,  
 S. A. Maurer,  P. F. McLaughlin,  M. F. S. J. Menger,  J.-M. Mewes,  
 S. A. Mewes,  P. Morgante,  J. W. Mullinax,  K. J. Oosterbaan,  G. Paran,  
 Alexander C. Paul,  Suranjan K. Paul,  F. Pavosevic,  Zheng Pei,  S. Prager,  
 E. I. Proynov,  E. Ramos,  B. Rana,  A. E. Rask,  A. Rettig,  R. M. Richard,  
 F. Rob,  E. Rossomme,  T. Scheele,  M. Scheurer,  M. Schneider,  
 N. Sergueev,  S. M. Sharada,  W. Skomorowski,  D. W. Small,  C. J. Stein,  
 Yu-Chuan Su,  E. J. Sundstrom,  Zhen Tao,  J. Thirman,  T. Tsuchimochi,  
 N. M. Tubman,  S. P. Veccham,  O. Vydrov,  J. Wenzel,  J. Witte,  A. Yamada,  
 Kun Yao,  S. Yeganeh,  S. R. Yost,  A. Zech,  Igor Ying Zhang,  Xing Zhang,  
 Yu Zhang,  D. Zuev,  A. Aspuru-Guzik,  A. T. Bell,  N. A. Besley,  
 K. B. Bravaya,  B. R. Brooks,  D. Casanova,  Jeng-Da Chai,  S. Coriani,  
 C. J. Cramer,  A. E. DePrince, III,  R. A. DiStasio Jr.,  A. Dreuw,  
 B. D. Dunietz,  T. R. Furlani,  W. A. Goddard III,  S. Grimme,  
 S. Hammes-Schiffer,  T. Head-Gordon,  W. J. Hehre,  Chao-Ping Hsu,  
 T.-C. Jagau,  Yousung Jung,  A. Klamt,  Jing Kong,  D. S. Lambrecht,  
 WanZhen Liang,  N. J. Mayhall,  C. W. McCurdy,  J. B. Neaton,  
 C. Ochsenfeld,  J. A. Parkhill,  R. Peverati,  V. A. Rassolov,  Yihan Shao,  
 L. V. Slipchenko,  T. Stauch,  R. P. Steele,  J. E. Subotnik,  
 A. J. W. Thom,  A. Tkatchenko,  D. G. Truhlar,  T. Van Voorhis,  
 T. A. Wesolowski,  K. B. Whaley,  H. L. Woodcock III,  P. M. Zimmerman,  
 S. Faraji,  P. M. W. Gill,  M. Head-Gordon,  J. M. Herbert,  A. I. Krylov

 Additional authors for Version 5.4.1: 
 S. Kotaru,  Shaozhi Li,  Xiangyuan Li,  F. Matz,  A. Molle,  Haisheng Ren,  
 Yingli Su,  Hung-Yi Tsai,  C. Utku,  Fang Wang

 Contributors to earlier versions of Q-Chem not listed above: 
 R. D. Adamson,  B. Austin,  R. Baer,  J. Baker,  G. J. O. Beran,  
 K. Brandhorst,  S. T. Brown,  E. F. C. Byrd,  A. K. Chakraborty,  
 G. K. L. Chan,  Chun-Min Chang,  Yunqing Chen,  C.-L. Cheng,  
 Siu Hung Chien,  D. M. Chipman,  D. L. Crittenden,  H. Dachsel,  
 R. J. Doerksen,  A. D. Dutoi,  R. G. Edgar,  J. Fosso-Tande,  
 L. Fusti-Molnar,  D. Ghosh,  A. Ghysels,  A. Golubeva-Zadorozhnaya,  
 J. Gonthier,  M. S. Gordon,  S. R. Gwaltney,  G. Hawkins,  J. E. Herr,  
 A. Heyden,  S. Hirata,  E. G. Hohenstein,  G. Kedziora,  F. J. Keil,  
 C. Kelley,  Jihan Kim,  R. A. King,  R. Z. Khaliullin,  P. P. Korambath,  
 W. Kurlancheek,  A. Laurent,  A. M. Lee,  M. S. Lee,  S. V. Levchenko,  
 Ching Yeh Lin,  D. Liotard,  E. Livshits,  R. C. Lochan,  I. Lotan,  
 L. A. Martinez-Martinez,  P. E. Maslen,  N. Nair,  D. P. O'Neill,  
 D. Neuhauser,  E. Neuscamman,  C. M. Oana,  R. Olivares-Amaya,  R. Olson,  
 T. M. Perrine,  B. Peters,  P. A. Pieniazek,  A. Prociuk,  Y. M. Rhee,  
 J. Ritchie,  M. A. Rohrdanz,  E. Rosta,  N. J. Russ,  H. F. Schaefer III,  
 M. W. Schmidt,  N. E. Schultz,  S. Sharma,  N. Shenvi,  C. D. Sherrill,  
 A. C. Simmonett,  A. Sodt,  T. Stein,  D. Stuck,  K. S. Thanthiriwatte,  
 V. Vanovschi,  L. Vogt,  Tao Wang,  A. Warshel,  M. A. Watson,  
 C. F. Williams,  Q. Wu,  X. Xu,  Jun Yang,  W. Zhang,  Yan Zhao

 Please cite Q-Chem as follows:
 Y. Shao et al., Mol. Phys. 113, 184-215 (2015)
 DOI: 10.1080/00268976.2014.952696

 Q-Chem 5.4.1 for Intel X86 EM64T Linux

 Parts of Q-Chem use Armadillo 9.900.5 (Nocturnal Misbehaviour).
 http://arma.sourceforge.net/

 Q-Chem begins on Thu Mar  3 17:54:20 2022  

 Host: node01
0

     Scratch files written to /src/jdavis/qchem.scratch/qchem6411//
 Processing $rem in /src/tsommerfeld/qchem/config/preferences:
 Processing $rem in /home/jdavis/.qchemrc:

 Checking the input file for inconsistencies... 	...done.

--------------------------------------------------------------
User input:
--------------------------------------------------------------
$molecule
-1 1
C        -0.6645000000    0.0000000000    1.1619088658
C         0.6645000000    0.0000000000    1.1619088658
H        -1.1590800000    0.0000000000    0.1995598658
H         1.1590800000    0.0000000000    0.1995598658
H        -1.1590800000    0.0000000000    2.1242568658
H         1.1590800000    0.0000000000    2.1242568658
O         0.0000000000    0.0000000000   -1.5841414040
H         0.0000000000    0.0000000000   -2.5471307683
$end
$rem
   METHOD adc(2)
   BASIS gen
   PURECART 11
   EE_STATES [0,0,0,10]
   scf_convergence 8
   ADC_DAVIDSON_MAXITER 120
   ADC_DAVIDSON_MAXSUBSPACE 200
   adc_nguess_singles 100
   THRESH 14
   S2THRESH 14
   adc_davidson_conv 5
   adc_davidson_thresh 14
   THREADS 10
   MEM_TOTAL 95000
   STATE_ANALYSIS TRUE
$end
$basis
C 1
S   9   1.00
      6.665000D+03           6.920000D-04
      1.000000D+03           5.329000D-03
      2.280000D+02           2.707700D-02
      6.471000D+01           1.017180D-01
      2.106000D+01           2.747400D-01
      7.495000D+00           4.485640D-01
      2.797000D+00           2.850740D-01
      5.215000D-01           1.520400D-02
      1.596000D-01          -3.191000D-03
S   9   1.00
      6.665000D+03          -1.460000D-04
      1.000000D+03          -1.154000D-03
      2.280000D+02          -5.725000D-03
      6.471000D+01          -2.331200D-02
      2.106000D+01          -6.395500D-02
      7.495000D+00          -1.499810D-01
      2.797000D+00          -1.272620D-01
      5.215000D-01           5.445290D-01
      1.596000D-01           5.804960D-01
S   1   1.00
      1.596000D-01           1.000000D+00
S   1   1.00
      0.0469000              1.0000000
P   4   1.00
      9.439000D+00           3.810900D-02
      2.002000D+00           2.094800D-01
      5.456000D-01           5.085570D-01
      1.517000D-01           4.688420D-01
P   1   1.00
      1.517000D-01           1.000000D+00
P   1   1.00
      0.0421389      1.0000000
P   1   1.00
      0.0210694      1.0000000
D   1   1.00
      5.500000D-01           1.0000000
****
C 2
S   9   1.00
      6.665000D+03           6.920000D-04
      1.000000D+03           5.329000D-03
      2.280000D+02           2.707700D-02
      6.471000D+01           1.017180D-01
      2.106000D+01           2.747400D-01
      7.495000D+00           4.485640D-01
      2.797000D+00           2.850740D-01
      5.215000D-01           1.520400D-02
      1.596000D-01          -3.191000D-03
S   9   1.00
      6.665000D+03          -1.460000D-04
      1.000000D+03          -1.154000D-03
      2.280000D+02          -5.725000D-03
      6.471000D+01          -2.331200D-02
      2.106000D+01          -6.395500D-02
      7.495000D+00          -1.499810D-01
      2.797000D+00          -1.272620D-01
      5.215000D-01           5.445290D-01
      1.596000D-01           5.804960D-01
S   1   1.00
      1.596000D-01           1.000000D+00
S   1   1.00
      0.0469000              1.0000000
P   4   1.00
      9.439000D+00           3.810900D-02
      2.002000D+00           2.094800D-01
      5.456000D-01           5.085570D-01
      1.517000D-01           4.688420D-01
P   1   1.00
      1.517000D-01           1.000000D+00
P   1   1.00
      0.0421389      1.0000000
P   1   1.00
      0.0210694      1.0000000
D   1   1.00
      5.500000D-01           1.0000000
****
H 3
cc-pVDZ
****
H 4
cc-pVDZ
****
H 5
cc-pVDZ
****
H 6
cc-pVDZ
****
O 7
aug-cc-pVDZ
****
H 8
cc-pVDZ
****
$end
--------------------------------------------------------------
 ----------------------------------------------------------------
             Standard Nuclear Orientation (Angstroms)
    I     Atom           X                Y                Z
 ----------------------------------------------------------------
    1      C      -0.6645000000    -0.0000000000     1.0270977517
    2      C       0.6645000000     0.0000000000     1.0270977517
    3      H      -1.1590800000    -0.0000000000     0.0647487517
    4      H       1.1590800000     0.0000000000     0.0647487517
    5      H      -1.1590800000    -0.0000000000     1.9894457517
    6      H       1.1590800000     0.0000000000     1.9894457517
    7      O       0.0000000000    -0.0000000000    -1.7189525181
    8      H       0.0000000000    -0.0000000000    -2.6819418824
 ----------------------------------------------------------------
 Molecular Point Group                 C2v   NOp =  4
 Largest Abelian Subgroup              C2v   NOp =  4
 Nuclear Repulsion Energy =          64.38561153 hartrees
 There are       13 alpha and       13 beta electrons
 Requested basis set is non-standard
 There are 42 shells and 90 basis functions
 Total memory of 95000 MB is distributed as follows: 
   MEM_STATIC is set to 192 MB
   QALLOC/CCMAN JOB total memory use is  94808 MB
 Warning: actual memory use might exceed 95000 MB

 Total QAlloc Memory Limit  95000 MB
 Mega-Array Size       188 MB
 MEM_STATIC part       192 MB

                       Distance Matrix (Angstroms)
             C (  1)   C (  2)   H (  3)   H (  4)   H (  5)   H (  6)
   C (  2)  1.329000
   H (  3)  1.082000  2.061931
   H (  4)  2.061931  1.082000  2.318160
   H (  5)  1.082000  2.061931  1.924697  3.013026
   H (  6)  2.061931  1.082000  3.013026  1.924697  2.318160
   O (  7)  2.825306  2.825306  2.127218  2.127218  3.885316  3.885316
   H (  8)  3.768094  3.768094  2.981237  2.981237  4.813037  4.813037
             O (  7)
   H (  8)  0.962989
 
 A cutoff of  1.0D-14 yielded    903 shell pairs
 There are      4183 function pairs (      4573 Cartesian)
 Smallest overlap matrix eigenvalue = 2.26E-04

 Scale SEOQF with 1.000000e-01/1.000000e-01/1.000000e-01

 Standard Electronic Orientation quadrupole field applied
 Nucleus-field energy     =    -0.0000000051 hartrees
 ================ Generating on-the-fly SAD Guess ================
Attempting to make child job directory: /src/jdavis/qchem.scratch/qchem6411//Frg1/
Attempting to make child job directory: /src/jdavis/qchem.scratch/qchem6411//Frg2/
Attempting to make child job directory: /src/jdavis/qchem.scratch/qchem6411//Frg3/
Creating input file /src/jdavis/qchem.scratch/qchem6411/Frg1.input
using default PutDataFrgm: nothing
calling putenv with: QCSCRATCH=/src/jdavis/qchem.scratch/qchem6411/ 
Spawning Job For Fragment 0
Done Job For Fragment 0
calling putenv with: QCSCRATCH=/src/jdavis/qchem.scratch 
calling putenv with: QCTHREADS=1 
Creating input file /src/jdavis/qchem.scratch/qchem6411/Frg2.input
using default PutDataFrgm: nothing
calling putenv with: QCSCRATCH=/src/jdavis/qchem.scratch/qchem6411/ 
Spawning Job For Fragment 1
Done Job For Fragment 1
calling putenv with: QCSCRATCH=/src/jdavis/qchem.scratch 
calling putenv with: QCTHREADS=1 
Creating input file /src/jdavis/qchem.scratch/qchem6411/Frg3.input
using default PutDataFrgm: nothing
calling putenv with: QCSCRATCH=/src/jdavis/qchem.scratch/qchem6411/ 
Spawning Job For Fragment 2
Done Job For Fragment 2
calling putenv with: QCSCRATCH=/src/jdavis/qchem.scratch 
calling putenv with: QCTHREADS=1 
 Time for running child jobs:  CPU 1.76 s  wall 80.61 s
 ============= Method Specific SAD Guess Constructed =============
 Guess from on-the-fly superposition of atomic densities
 Warning: Energy on first SCF cycle will be non-variational
 A restricted Hartree-Fock SCF calculation will be
 performed using Pulay DIIS extrapolation
 SCF converges when DIIS error is below 1.0E-08
 using 10 threads for integral computing
 -------------------------------------------------------
 OpenMP Integral computing Module                
 Release: version 1.0, May 2013, Q-Chem Inc. Pittsburgh 
 -------------------------------------------------------
 ---------------------------------------
  Cycle       Energy         DIIS Error
 ---------------------------------------
    1    -153.5739546380      5.98E-02
    2    -153.2897586376      1.22E-02
    3    -153.3545319043      1.03E-02
    4    -153.4401737260      7.70E-04
    5    -153.4411201454      2.13E-04
    6    -153.4411948572      4.63E-05
    7    -153.4412002737      1.23E-05
    8    -153.4412008487      3.68E-06
    9    -153.4412008977      7.28E-07
   10    -153.4412008994      1.33E-07
   11    -153.4412008994      4.30E-08
   12    -153.4412008994      1.38E-08
   13    -153.4412008995      2.73E-09 Convergence criterion met
 ---------------------------------------
 SCF time:  CPU 15.15 s  wall 1.52 s
 SCF   energy in the final basis set = -153.44120090
 Total energy in the final basis set = -153.44120090
================================================================================
|                                                                              |
|                                 A D C  M A N                                 |
|                                                                              |
 ------------------------------------------------------------------------------ 
|                                                                              |
| Components:                                                                  |
|                                                                              |
| - libvmm - 1.3-trunk                                                         |
|   Authors:                                                                   |
|   Evgeny Epifanovsky, Ilya Kaliman                                           |
|                                                                              |
| - libtensor - 2.5-trunk                                                      |
|   Authors:                                                                   |
|   Evgeny Epifanovsky, Michael Wormit, Dmitry Zuev, Sam Manzer,               |
|   Ilya Kaliman                                                               |
|                                                                              |
| - libwfa - 1.1-trunk                                                         |
|   Authors:                                                                   |
|   Felix Plasser, Stefanie Mewes (Baeppler), Benjamin Thomitzni,              |
|   Michael Wormit, Feng Chen, Anna I. Krylov, Pavel Pokhilko                  |
|                                                                              |
| - libadc - 1.1-trunk                                                         |
|   Authors:                                                                   |
|   Michael Wormit, Adrian L. Dempwolff, Philipp H. P. Harbach,                |
|   Caroline Krauter, Dirk Rehn, Matthias Schneider, Jan Wenzel                |
|                                                                              |
| - adcman - 2.6-trunk                                                         |
|   Authors:                                                                   |
|   Michael Wormit, Adrian L. Dempwolff, Philipp H. P. Harbach,                |
|   Caroline Krauter, Daniel Lefrancois, Jan-Michael Mewes, Dirk Rehn,         |
|   Matthias Schneider, Jan Wenzel, Andreas Dreuw                              |
|                                                                              |
| Authors of earlier versions of ADCMAN:                                       |
| Andreas Dreuw, Jan Hendrik Starcke, Dirk Rehn, Michael Wormit                |
|                                                                              |
================================================================================

 
 Alpha MOs, Restricted
 -- Occupied --                  
-20.213 -11.049 -11.047  -0.930  -0.854  -0.598  -0.473  -0.384
  1 A1    2 A1    1 B1    3 A1    4 A1    2 B1    5 A1    6 A1                 
 -0.328  -0.271  -0.194  -0.130  -0.129
  3 B1    7 A1    1 B2    4 B1    2 B2                                         
 -- Virtual --                   
  0.132   0.143   0.153   0.158   0.159   0.169   0.239   0.259
  5 B1    8 A1    3 B2    9 A1    1 A2    6 B1   10 A1    7 B1                 
  0.285   0.308   0.323   0.333   0.339   0.372   0.426   0.431
  2 A2   11 A1    8 B1   12 A1    4 B2   13 A1    9 B1    3 A2                 
  0.450   0.477   0.495   0.526   0.545   0.577   0.656   0.671
  5 B2   10 B1   14 A1   15 A1   11 B1   16 A1   12 B1   17 A1                 
  0.682   0.874   0.975   1.051   1.060   1.080   1.111   1.122
 13 B1   18 A1   19 A1    6 B2   20 A1   21 A1    4 A2   14 B1                 
  1.177   1.204   1.215   1.226   1.291   1.316   1.334   1.335
 15 B1    7 B2   22 A1   16 B1    5 A2   23 A1   17 B1   24 A1                 
  1.370   1.468   1.483   1.514   1.561   1.642   1.695   1.719
  8 B2    9 B2    6 A2   18 B1   19 B1   25 A1   20 B1   10 B2                 
  1.855   1.926   1.977   2.039   2.125   2.132   2.135   2.199
 26 A1   21 B1   27 A1    7 A2   11 B2   22 B1   28 A1   29 A1                 
  2.212   2.296   2.358   2.393   2.439   2.486   2.556   2.604
 12 B2   30 A1    8 A2   13 B2   23 B1   24 B1   31 A1    9 A2                 
  2.748   2.755   2.845   3.007   3.037   3.091   3.467   3.562
 25 B1   32 A1   26 B1   33 A1   34 A1   35 A1   27 B1   28 B1                 
  3.921   3.945   3.970   4.087   4.539
 14 B2   10 A2   36 A1   29 B1   37 A1                                         
 
 Beta MOs, Restricted
 -- Occupied --                  
-20.213 -11.049 -11.047  -0.930  -0.854  -0.598  -0.473  -0.384
  1 A1    2 A1    1 B1    3 A1    4 A1    2 B1    5 A1    6 A1                 
 -0.328  -0.271  -0.194  -0.130  -0.129
  3 B1    7 A1    1 B2    4 B1    2 B2                                         
 -- Virtual --                   
  0.132   0.143   0.153   0.158   0.159   0.169   0.239   0.259
  5 B1    8 A1    3 B2    9 A1    1 A2    6 B1   10 A1    7 B1                 
  0.285   0.308   0.323   0.333   0.339   0.372   0.426   0.431
  2 A2   11 A1    8 B1   12 A1    4 B2   13 A1    9 B1    3 A2                 
  0.450   0.477   0.495   0.526   0.545   0.577   0.656   0.671
  5 B2   10 B1   14 A1   15 A1   11 B1   16 A1   12 B1   17 A1                 
  0.682   0.874   0.975   1.051   1.060   1.080   1.111   1.122
 13 B1   18 A1   19 A1    6 B2   20 A1   21 A1    4 A2   14 B1                 
  1.177   1.204   1.215   1.226   1.291   1.316   1.334   1.335
 15 B1    7 B2   22 A1   16 B1    5 A2   23 A1   17 B1   24 A1                 
  1.370   1.468   1.483   1.514   1.561   1.642   1.695   1.719
  8 B2    9 B2    6 A2   18 B1   19 B1   25 A1   20 B1   10 B2                 
  1.855   1.926   1.977   2.039   2.125   2.132   2.135   2.199
 26 A1   21 B1   27 A1    7 A2   11 B2   22 B1   28 A1   29 A1                 
  2.212   2.296   2.358   2.393   2.439   2.486   2.556   2.604
 12 B2   30 A1    8 A2   13 B2   23 B1   24 B1   31 A1    9 A2                 
  2.748   2.755   2.845   3.007   3.037   3.091   3.467   3.562
 25 B1   32 A1   26 B1   33 A1   34 A1   35 A1   27 B1   28 B1                 
  3.921   3.945   3.970   4.087   4.539
 14 B2   10 A2   36 A1   29 B1   37 A1                                         

--------------------------------------------------------------------------------
                                   HF Summary                                   
--------------------------------------------------------------------------------
  Energy:                                                 -153.4412008995 a.u.
  Dip. moment [a.u.]:                  [  -0.000000,   -0.000000,    2.077653]
  Total dipole [Debye]:                                               5.280869
  <r^2> [a.u.]:                        [  55.709057,   19.699623,  208.036353]
  Total <r^2> [a.u.]:                                               283.445033
--------------------------------------------------------------------------------

--------------------------------------------------------------------------------
                                 MP(2) Summary                                  
--------------------------------------------------------------------------------
  MP energy contribution:                                   -0.5279561362 a.u.
  Total energy:                                           -153.9691570357 a.u.
  Dip. moment [a.u.]:                  [  -0.000000,    0.000000,    2.145720]
  Total dipole [Debye]:                                               5.453877
  <r^2> [a.u.]:                        [  56.699328,   20.400378,  209.304166]
  Total <r^2> [a.u.]:                                               286.403872

  Density matrix analysis:
  ------------------------
  NOs
    Occupation of frontier NOs:
       0.0446   1.9358
    Number of electrons: 26.000000
    Number of unpaired electrons: n_u =  0.71464, n_u,nl =  0.08527
    NO participation ratio (PR_NO): 22.999819
  
  
  Mulliken Population Analysis
  Atom      Charge (e)              h+              e-           Del q
  --------------------------------------------------------------------
   1 C       -0.189120        0.094770       -0.099083       -0.004313
   2 C       -0.189120        0.094770       -0.099083       -0.004313
   3 H        0.181031        0.017303       -0.011486        0.005817
   4 H        0.181031        0.017303       -0.011486        0.005817
   5 H        0.011918        0.018264       -0.012510        0.005754
   6 H        0.011918        0.018264       -0.012510        0.005754
   7 O       -1.061407        0.278194       -0.275398        0.002795
   8 H        0.053748        0.015287       -0.032598       -0.017311
  --------------------------------------------------------------------
  Sum:       -1.000000        0.554155       -0.554155       -0.000000
  
  Multipole moment analysis of the density matrix
    Molecular charge:                      -1.000000
    Number of electrons:                   26.000000
      Center of electronic charge [Ang]: [  0.000000,  -0.000000,  -0.043672]
    Total nuclear charge:                  25.000000
      Center of nuclear charge [Ang]:    [  0.000000,   0.000000,  -0.000000]
    Dipole moment [D]:                     5.453875
      Cartesian components [D]:          [ -0.000000,   0.000000,   5.453875]
    RMS size of the density [Ang]:         1.755778
      Cartesian components [Ang]:        [  0.781454,   0.468742,   1.500789]
  
  Exciton analysis of the difference density matrix
    <r_h> [Ang]:                  [ -0.000000,   0.000000,  -0.481503]
    <r_e> [Ang]:                  [  0.000000,  -0.000000,  -0.546502]
    |<r_e - r_h>| [Ang]:            0.064999
    Hole size [Ang]:                1.968002
      Cartesian components [Ang]: [  0.889885,   0.757493,   1.583458]
    Electron size [Ang]:            2.302474
      Cartesian components [Ang]: [  1.136796,   0.963278,   1.755328]
--------------------------------------------------------------------------------
  Starting Davidson for singlet states of irrep B2 ... 
--------------------------------------------------------------------------------
   It NVec Conv  Avg. Norm  Max. Norm  Conv. states           Remark
--------------------------------------------------------------------------------
       100    0  1.517e-01  5.740e-01  0.2407 n n n n n n n n Guess.
    1  110    0  1.865e-02  1.070e-01  0.0690 n n n n n n n n 
    2  120    0  4.144e-03  3.034e-02  0.0678 n n n n n n n n 
    3  130    0  5.525e-03  5.472e-02  0.0678 n n n n n n n n 
    4  140    0  8.878e-03  8.876e-02  0.0678 n n n n n n n n 
    5  150    3  1.190e-03  1.190e-02  0.0678 y y y n n n n n 
    6  160    7  1.315e-04  1.315e-03  0.0678 y y y y y y n y 
    7  170    9  1.325e-05  1.325e-04  0.0678 y y y y y y y y 
    8  180    9  1.894e-06  1.894e-05  0.0678 y y y y y y y y 
    9  190   10  1.520e-07  1.520e-06  0.0678 y y y y y y y y Converged.
--------------------------------------------------------------------------------
  Davidson Summary: 
 ------------------------------------------------------------
  State  0: excitation energy =   0.0678 a.u.   (converged)
  State  1: excitation energy =   0.0867 a.u.   (converged)
  State  2: excitation energy =   0.0869 a.u.   (converged)
  State  3: excitation energy =   0.1243 a.u.   (converged)
  State  4: excitation energy =   0.1501 a.u.   (converged)
  State  5: excitation energy =   0.1714 a.u.   (converged)
  State  6: excitation energy =   0.1993 a.u.   (converged)
  State  7: excitation energy =   0.2096 a.u.   (converged)
  State  8: excitation energy =   0.2261 a.u.   (converged)
  State  9: excitation energy =   0.2391 a.u.   (converged)
 ------------------------------------------------------------


--------------------------------------------------------------------------------
                   State-averaged natural transition orbitals
--------------------------------------------------------------------------------
--------------------------------------------------------------------------------

--------------------------------------------------------------------------------
                             Excited State Summary
--------------------------------------------------------------------------------
--------------------------------------------------------------------------------

  Excited state 1 (singlet, B2)                                    [converged]
  ----------------------------------------------------------------------------
  Term symbol:  1 (1) B2                                    R^2 =  4.02005e-10

  Total energy:                                           -153.9013950460 a.u.
  Excitation energy:                                               1.843898 eV

  Osc. strength:                                                      0.011821
  Trans. dip. moment [a.u.]:           [  -0.000000,    0.511533,    0.000000]
  <i|r^2|0> [a.u.]:                    [  -0.000000,   -0.000000,    0.000000]

  Dip. moment [a.u.]:                  [  -0.000000,    0.000000,   -4.579403]
  Total dipole [Debye]:                                              11.639683
  <r^2> [a.u.]:                        [  75.418650,   36.561238,  255.267684]
  Total <r^2> [a.u.]:                                               367.247571

  V1^2 = 0.8685, V2^2 = 0.1315

  Important amplitudes:
      occ i      occ j       vir a       vir b          v   
    ---------------------------------------------------------
     2 (B2) A               8 (A1) A                  0.6364
     2 (B2) A              12 (A1) A                  0.1050
    ---------------------------------------------------------

  Density matrix analysis:
  ------------------------
  NOs
    Occupation of frontier NOs:
       0.9610   0.9981
    Number of electrons: 26.000000
    Number of unpaired electrons: n_u =  2.74712, n_u,nl =  2.11484
    NO participation ratio (PR_NO):  3.868194
  
  
  Mulliken Population Analysis
  Atom      Charge (e)              h+              e-           Del q
  --------------------------------------------------------------------
   1 C       -0.695593        0.035614       -0.542087       -0.506473
   2 C       -0.695593        0.035614       -0.542087       -0.506473
   3 H        0.136900       -0.000316       -0.043815       -0.044131
   4 H        0.136900       -0.000316       -0.043815       -0.044131
   5 H        0.032862        0.042109       -0.021165        0.020944
   6 H        0.032862        0.042109       -0.021165        0.020944
   7 O       -0.067185        1.405228       -0.411006        0.994223
   8 H        0.118847        0.135276       -0.070177        0.065099
  --------------------------------------------------------------------
  Sum:       -1.000000        1.695317       -1.695317        0.000000
  
  Multipole moment analysis of the density matrix
    Molecular charge:                      -1.000000
    Number of electrons:                   26.000000
      Center of electronic charge [Ang]: [  0.000000,  -0.000000,   0.093204]
    Total nuclear charge:                  25.000000
      Center of nuclear charge [Ang]:    [  0.000000,   0.000000,  -0.000000]
    Dipole moment [D]:                     11.639679
      Cartesian components [D]:          [ -0.000000,   0.000000, -11.639679]
    RMS size of the density [Ang]:         1.986628
      Cartesian components [Ang]:        [  0.901268,   0.627516,   1.655485]
  
  Exciton analysis of the difference density matrix
    <r_h> [Ang]:                  [ -0.000000,  -0.000000,  -1.452941]
    <r_e> [Ang]:                  [  0.000000,  -0.000000,   0.646242]
    |<r_e - r_h>| [Ang]:            2.099183
    Hole size [Ang]:                1.810508
      Cartesian components [Ang]: [  0.849339,   0.886272,   1.330821]
    Electron size [Ang]:            4.280762
      Cartesian components [Ang]: [  1.952790,   1.858734,   3.325153]

  Transition density matrix analysis:
  -----------------------------------
  
  CT numbers (Mulliken)
    omega =     0.8534
    <Phe> =    -0.0013
  
  Exciton analysis of the transition density matrix
    Trans. dipole moment [D]:             0.650093
      Cartesian components [D]:         [ -0.000000,   0.650093,   0.000000]
    <r_h> [Ang]:                        [  0.000000,   0.000000,  -1.743253]
    <r_e> [Ang]:                        [  0.000000,  -0.000000,   1.896043]
    |<r_e - r_h>| [Ang]:                  3.639295
    Hole size [Ang]:                      1.099100
      Cartesian components [Ang]:       [  0.478415,   0.825453,   0.545680]
    Electron size [Ang]:                  4.998242
      Cartesian components [Ang]:       [  2.426997,   2.339033,   3.690668]
    RMS electron-hole separation [Ang]:   6.278062
      Cartesian components [Ang]:       [  2.473449,   2.479218,   5.210527]
    Covariance(r_h, r_e) [Ang^2]:         0.010423
    Correlation coefficient:              0.001897
    Center-of-mass size [Ang]:            2.559848
      Cartesian components [Ang]:       [  1.236976,   1.240804,   1.866311]

  Decomposition into state-averaged NTOs
    H- 0 -> L+ 0: -0.5739 ( 65.9%)
    H- 0 -> L+ 6:  0.2381 ( 11.3%)
    H- 0 -> L+ 2: -0.1541 (  4.7%)
    H- 0 -> L+ 3:  0.1174 (  2.8%)
                   omega =  85.3%
  ----------------------------------------------------------------------------


  Excited state 2 (singlet, B2)                                    [converged]
  ----------------------------------------------------------------------------
  Term symbol:  2 (1) B2                                    R^2 =  6.71602e-10

  Total energy:                                           -153.8825014097 a.u.
  Excitation energy:                                               2.358020 eV

  Osc. strength:                                                      0.000798
  Trans. dip. moment [a.u.]:           [  -0.000000,    0.117512,    0.000000]
  <i|r^2|0> [a.u.]:                    [   0.000000,   -0.000000,    0.000000]

  Dip. moment [a.u.]:                  [  -0.000000,    0.000000,   -2.979892]
  Total dipole [Debye]:                                               7.574131
  <r^2> [a.u.]:                        [ 110.058611,   48.335227,  211.900605]
  Total <r^2> [a.u.]:                                               370.294443

  V1^2 = 0.8672, V2^2 = 0.1328

  Important amplitudes:
      occ i      occ j       vir a       vir b          v   
    ---------------------------------------------------------
     4 (B1) A               1 (A2) A                  0.4884
     2 (B2) A               9 (A1) A                 -0.4240
    ---------------------------------------------------------

  Density matrix analysis:
  ------------------------
  NOs
    Occupation of frontier NOs:
       0.5663   1.3767
    Number of electrons: 26.000000
    Number of unpaired electrons: n_u =  2.82797, n_u,nl =  2.50573
    NO participation ratio (PR_NO):  6.854294
  
  
  Mulliken Population Analysis
  Atom      Charge (e)              h+              e-           Del q
  --------------------------------------------------------------------
   1 C       -0.686631        0.042026       -0.539537       -0.497511
   2 C       -0.686631        0.042026       -0.539537       -0.497511
   3 H        0.142555       -0.000624       -0.037853       -0.038477
   4 H        0.142555       -0.000624       -0.037853       -0.038477
   5 H        0.047302        0.034520        0.000864        0.035384
   6 H        0.047302        0.034520        0.000864        0.035384
   7 O       -0.174592        1.318585       -0.431769        0.886815
   8 H        0.168141        0.136603       -0.022211        0.114393
  --------------------------------------------------------------------
  Sum:       -1.000000        1.607031       -1.607031       -0.000000
  
  Multipole moment analysis of the density matrix
    Molecular charge:                      -1.000000
    Number of electrons:                   26.000000
      Center of electronic charge [Ang]: [  0.000000,  -0.000000,   0.060650]
    Total nuclear charge:                  25.000000
      Center of nuclear charge [Ang]:    [  0.000000,   0.000000,  -0.000000]
    Dipole moment [D]:                     7.574129
      Cartesian components [D]:          [ -0.000000,   0.000000,  -7.574129]
    RMS size of the density [Ang]:         1.996125
      Cartesian components [Ang]:        [  1.088746,   0.721517,   1.509490]
  
  Exciton analysis of the difference density matrix
    <r_h> [Ang]:                  [  0.000000,  -0.000000,  -1.464205]
    <r_e> [Ang]:                  [  0.000000,  -0.000000,   0.223601]
    |<r_e - r_h>| [Ang]:            1.687806
    Hole size [Ang]:                1.842195
      Cartesian components [Ang]: [  0.934981,   0.865799,   1.330371]
    Electron size [Ang]:            4.483937
      Cartesian components [Ang]: [  3.189382,   2.370087,   2.077552]

  Transition density matrix analysis:
  -----------------------------------
  
  CT numbers (Mulliken)
    omega =     0.8522
    <Phe> =     0.0001
  
  Exciton analysis of the transition density matrix
    Trans. dipole moment [D]:             0.149343
      Cartesian components [D]:         [ -0.000000,   0.149343,   0.000000]
    <r_h> [Ang]:                        [ -0.000000,  -0.000000,  -1.732377]
    <r_e> [Ang]:                        [  0.000000,  -0.000000,   1.071462]
    |<r_e - r_h>| [Ang]:                  2.803839
    Hole size [Ang]:                      1.124398
      Cartesian components [Ang]:       [  0.696868,   0.650018,   0.596759]
    Electron size [Ang]:                  5.319638
      Cartesian components [Ang]:       [  3.975495,   2.930996,   1.975663]
    RMS electron-hole separation [Ang]:   6.116896
      Cartesian components [Ang]:       [  4.035129,   3.002056,   3.481640]
    Covariance(r_h, r_e) [Ang^2]:         0.003957
    Correlation coefficient:              0.000662
    Center-of-mass size [Ang]:            2.718949
      Cartesian components [Ang]:       [  2.018546,   1.501182,   1.031798]

  Decomposition into state-averaged NTOs
    H- 2 -> L+ 5:  0.4909 ( 48.2%)
    H- 0 -> L+ 1:  0.4258 ( 36.3%)
                   omega =  85.2%
  ----------------------------------------------------------------------------


  Excited state 3 (singlet, B2)                                    [converged]
  ----------------------------------------------------------------------------
  Term symbol:  3 (1) B2                                    R^2 =  6.16281e-10

  Total energy:                                           -153.8822676006 a.u.
  Excitation energy:                                               2.364382 eV

  Osc. strength:                                                      0.002385
  Trans. dip. moment [a.u.]:           [   0.000000,   -0.202926,   -0.000000]
  <i|r^2|0> [a.u.]:                    [  -0.000000,    0.000000,   -0.000000]

  Dip. moment [a.u.]:                  [  -0.000000,    0.000000,   -3.002385]
  Total dipole [Debye]:                                               7.631304
  <r^2> [a.u.]:                        [ 114.185519,   44.613207,  212.087098]
  Total <r^2> [a.u.]:                                               370.885825

  V1^2 = 0.8668, V2^2 = 0.1332

  Important amplitudes:
      occ i      occ j       vir a       vir b          v   
    ---------------------------------------------------------
     2 (B2) A               9 (A1) A                 -0.4870
     4 (B1) A               1 (A2) A                 -0.4272
    ---------------------------------------------------------

  Density matrix analysis:
  ------------------------
  NOs
    Occupation of frontier NOs:
       0.5659   1.3768
    Number of electrons: 26.000000
    Number of unpaired electrons: n_u =  2.82881, n_u,nl =  2.50673
    NO participation ratio (PR_NO):  6.855814
  
  
  Mulliken Population Analysis
  Atom      Charge (e)              h+              e-           Del q
  --------------------------------------------------------------------
   1 C       -0.688592        0.041404       -0.540876       -0.499472
   2 C       -0.688592        0.041404       -0.540876       -0.499472
   3 H        0.144399       -0.000079       -0.036554       -0.036633
   4 H        0.144399       -0.000079       -0.036554       -0.036633
   5 H        0.047858        0.034894        0.001046        0.035940
   6 H        0.047858        0.034894        0.001046        0.035940
   7 O       -0.175945        1.319454       -0.433991        0.885462
   8 H        0.168616        0.136887       -0.022019        0.114868
  --------------------------------------------------------------------
  Sum:       -1.000000        1.608779       -1.608779       -0.000000
  
  Multipole moment analysis of the density matrix
    Molecular charge:                      -1.000000
    Number of electrons:                   26.000000
      Center of electronic charge [Ang]: [  0.000000,  -0.000000,   0.061107]
    Total nuclear charge:                  25.000000
      Center of nuclear charge [Ang]:    [  0.000000,   0.000000,  -0.000000]
    Dipole moment [D]:                     7.631301
      Cartesian components [D]:          [ -0.000000,   0.000000,  -7.631301]
    RMS size of the density [Ang]:         1.997706
      Cartesian components [Ang]:        [  1.108970,   0.693180,   1.510137]
  
  Exciton analysis of the difference density matrix
    <r_h> [Ang]:                  [ -0.000000,  -0.000000,  -1.464871]
    <r_e> [Ang]:                  [  0.000000,  -0.000000,   0.228500]
    |<r_e - r_h>| [Ang]:            1.693371
    Hole size [Ang]:                1.843773
      Cartesian components [Ang]: [  0.927296,   0.877666,   1.330159]
    Electron size [Ang]:            4.494252
      Cartesian components [Ang]: [  3.296374,   2.232678,   2.085034]

  Transition density matrix analysis:
  -----------------------------------
  
  CT numbers (Mulliken)
    omega =     0.8518
    <Phe> =     0.0001
  
  Exciton analysis of the transition density matrix
    Trans. dipole moment [D]:             0.257894
      Cartesian components [D]:         [  0.000000,  -0.257894,  -0.000000]
    <r_h> [Ang]:                        [ -0.000000,  -0.000000,  -1.734980]
    <r_e> [Ang]:                        [  0.000000,  -0.000000,   1.080241]
    |<r_e - r_h>| [Ang]:                  2.815222
    Hole size [Ang]:                      1.118654
      Cartesian components [Ang]:       [  0.652259,   0.695403,   0.585115]
    Electron size [Ang]:                  5.333779
      Cartesian components [Ang]:       [  4.113278,   2.755715,   1.983979]
    RMS electron-hole separation [Ang]:   6.133417
      Cartesian components [Ang]:       [  4.163788,   2.841999,   3.493525]
    Covariance(r_h, r_e) [Ang^2]:         0.003629
    Correlation coefficient:              0.000608
    Center-of-mass size [Ang]:            2.725245
      Cartesian components [Ang]:       [  2.082779,   1.421104,   1.034145]

  Decomposition into state-averaged NTOs
    H- 0 -> L+ 1:  0.4873 ( 47.5%)
    H- 2 -> L+ 5: -0.4293 ( 36.9%)
                   omega =  85.2%
  ----------------------------------------------------------------------------


  Excited state 4 (singlet, B2)                                    [converged]
  ----------------------------------------------------------------------------
  Term symbol:  4 (1) B2                                    R^2 =  2.52023e-09

  Total energy:                                           -153.8449035044 a.u.
  Excitation energy:                                               3.381111 eV

  Osc. strength:                                                      0.027495
  Trans. dip. moment [a.u.]:           [  -0.000000,    0.576127,    0.000000]
  <i|r^2|0> [a.u.]:                    [   0.000000,    0.000000,    0.000000]

  Dip. moment [a.u.]:                  [  -0.000000,    0.000000,   -1.539140]
  Total dipole [Debye]:                                               3.912105
  <r^2> [a.u.]:                        [  68.635007,   28.695263,  216.697414]
  Total <r^2> [a.u.]:                                               314.027684

  V1^2 = 0.8790, V2^2 = 0.1210

  Important amplitudes:
      occ i      occ j       vir a       vir b          v   
    ---------------------------------------------------------
     2 (B2) A              10 (A1) A                 -0.5763
     2 (B2) A              12 (A1) A                  0.2438
    ---------------------------------------------------------

  Density matrix analysis:
  ------------------------
  NOs
    Occupation of frontier NOs:
       0.9643   0.9918
    Number of electrons: 26.000000
    Number of unpaired electrons: n_u =  2.74089, n_u,nl =  2.11176
    NO participation ratio (PR_NO):  3.865028
  
  
  Mulliken Population Analysis
  Atom      Charge (e)              h+              e-           Del q
  --------------------------------------------------------------------
   1 C       -0.696580        0.037070       -0.544531       -0.507460
   2 C       -0.696580        0.037070       -0.544531       -0.507460
   3 H        0.152684        0.001665       -0.030012       -0.028347
   4 H        0.152684        0.001665       -0.030012       -0.028347
   5 H        0.097260        0.026565        0.058777        0.085342
   6 H        0.097260        0.026565        0.058777        0.085342
   7 O       -0.508545        1.337664       -0.784803        0.552862
   8 H        0.401817        0.147126        0.200943        0.348069
  --------------------------------------------------------------------
  Sum:       -1.000000        1.615390       -1.615390        0.000000
  
  Multipole moment analysis of the density matrix
    Molecular charge:                      -1.000000
    Number of electrons:                   26.000000
      Center of electronic charge [Ang]: [  0.000000,  -0.000000,   0.031326]
    Total nuclear charge:                  25.000000
      Center of nuclear charge [Ang]:    [  0.000000,   0.000000,  -0.000000]
    Dipole moment [D]:                     3.912103
      Cartesian components [D]:          [ -0.000000,   0.000000,  -3.912103]
    RMS size of the density [Ang]:         1.838804
      Cartesian components [Ang]:        [  0.859780,   0.555929,   1.527390]
  
  Exciton analysis of the difference density matrix
    <r_h> [Ang]:                  [  0.000000,  -0.000000,  -1.502463]
    <r_e> [Ang]:                  [  0.000000,  -0.000000,  -0.295359]
    |<r_e - r_h>| [Ang]:            1.207104
    Hole size [Ang]:                1.710995
      Cartesian components [Ang]: [  0.813727,   0.864238,   1.232253]
    Electron size [Ang]:            3.144242
      Cartesian components [Ang]: [  1.652636,   1.478116,   2.229401]

  Transition density matrix analysis:
  -----------------------------------
  
  CT numbers (Mulliken)
    omega =     0.8619
    <Phe> =    -0.0057
  
  Exciton analysis of the transition density matrix
    Trans. dipole moment [D]:             0.732184
      Cartesian components [D]:         [ -0.000000,   0.732184,   0.000000]
    <r_h> [Ang]:                        [  0.000000,   0.000000,  -1.732822]
    <r_e> [Ang]:                        [  0.000000,  -0.000000,   0.257489]
    |<r_e - r_h>| [Ang]:                  1.990311
    Hole size [Ang]:                      1.109153
      Cartesian components [Ang]:       [  0.477561,   0.821649,   0.571883]
    Electron size [Ang]:                  3.658249
      Cartesian components [Ang]:       [  1.981227,   1.794218,   2.497661]
    RMS electron-hole separation [Ang]:   4.299386
      Cartesian components [Ang]:       [  2.037520,   1.968831,   3.233719]
    Covariance(r_h, r_e) [Ang^2]:         0.044812
    Correlation coefficient:              0.011044
    Center-of-mass size [Ang]:            1.917200
      Cartesian components [Ang]:       [  1.019210,   0.988983,   1.287936]

  Decomposition into state-averaged NTOs
    H- 0 -> L+ 3:  0.3891 ( 30.3%)
    H- 0 -> L+ 2: -0.3617 ( 26.2%)
    H- 0 -> L+ 0:  0.2810 ( 15.8%)
    H- 0 -> L+ 6:  0.2610 ( 13.6%)
                   omega =  86.2%
  ----------------------------------------------------------------------------


  Excited state 5 (singlet, B2)                                    [converged]
  ----------------------------------------------------------------------------
  Term symbol:  5 (1) B2                                    R^2 =  1.27017e-08

  Total energy:                                           -153.8190347984 a.u.
  Excitation energy:                                               4.085034 eV

  Osc. strength:                                                      0.000080
  Trans. dip. moment [a.u.]:           [   0.000000,   -0.028331,   -0.000000]
  <i|r^2|0> [a.u.]:                    [  -0.000000,   -0.000000,    0.000000]

  Dip. moment [a.u.]:                  [   0.000000,    0.000000,   -2.798991]
  Total dipole [Debye]:                                               7.114328
  <r^2> [a.u.]:                        [  67.705282,   31.419852,  203.514293]
  Total <r^2> [a.u.]:                                               302.639427

  V1^2 = 0.8689, V2^2 = 0.1311

  Important amplitudes:
      occ i      occ j       vir a       vir b          v   
    ---------------------------------------------------------
     4 (B1) A               2 (A2) A                 -0.6237
     4 (B1) A               3 (A2) A                 -0.1822
    ---------------------------------------------------------

  Density matrix analysis:
  ------------------------
  NOs
    Occupation of frontier NOs:
       0.9653   0.9956
    Number of electrons: 26.000000
    Number of unpaired electrons: n_u =  2.72126, n_u,nl =  2.10092
    NO participation ratio (PR_NO):  3.797449
  
  
  Mulliken Population Analysis
  Atom      Charge (e)              h+              e-           Del q
  --------------------------------------------------------------------
   1 C       -0.602898        0.102730       -0.516509       -0.413778
   2 C       -0.602898        0.102730       -0.516509       -0.413778
   3 H        0.107507        0.002262       -0.075786       -0.073525
   4 H        0.107507        0.002262       -0.075786       -0.073525
   5 H        0.001399        0.011018       -0.021536       -0.010519
   6 H        0.001399        0.011018       -0.021536       -0.010519
   7 O       -0.160896        1.350209       -0.449698        0.900511
   8 H        0.148880        0.115894       -0.020762        0.095132
  --------------------------------------------------------------------
  Sum:       -1.000000        1.698122       -1.698122       -0.000000
  
  Multipole moment analysis of the density matrix
    Molecular charge:                      -1.000000
    Number of electrons:                   26.000000
      Center of electronic charge [Ang]: [ -0.000000,  -0.000000,   0.056968]
    Total nuclear charge:                  25.000000
      Center of nuclear charge [Ang]:    [  0.000000,   0.000000,  -0.000000]
    Dipole moment [D]:                     7.114326
      Cartesian components [D]:          [  0.000000,   0.000000,  -7.114326]
    RMS size of the density [Ang]:         1.804517
      Cartesian components [Ang]:        [  0.853937,   0.581723,   1.479416]
  
  Exciton analysis of the difference density matrix
    <r_h> [Ang]:                  [  0.000000,  -0.000000,  -1.362046]
    <r_e> [Ang]:                  [ -0.000000,  -0.000000,   0.178849]
    |<r_e - r_h>| [Ang]:            1.540895
    Hole size [Ang]:                1.731461
      Cartesian components [Ang]: [  0.897197,   0.736376,   1.284813]
    Electron size [Ang]:            2.738332
      Cartesian components [Ang]: [  1.618610,   1.536038,   1.587183]

  Transition density matrix analysis:
  -----------------------------------
  
  CT numbers (Mulliken)
    omega =     0.8425
    <Phe> =    -0.0007
  
  Exciton analysis of the transition density matrix
    Trans. dipole moment [D]:             0.036005
      Cartesian components [D]:         [  0.000000,  -0.036005,  -0.000000]
    <r_h> [Ang]:                        [ -0.000000,  -0.000000,  -1.689406]
    <r_e> [Ang]:                        [ -0.000000,  -0.000000,   1.025344]
    |<r_e - r_h>| [Ang]:                  2.714750
    Hole size [Ang]:                      1.183495
      Cartesian components [Ang]:       [  0.824287,   0.469353,   0.707756]
    Electron size [Ang]:                  2.935859
      Cartesian components [Ang]:       [  1.961649,   1.886806,   1.100528]
    RMS electron-hole separation [Ang]:   4.167885
      Cartesian components [Ang]:       [  2.124093,   1.943967,   3.013384]
    Covariance(r_h, r_e) [Ang^2]:         0.009266
    Correlation coefficient:              0.002667
    Center-of-mass size [Ang]:            1.584176
      Cartesian components [Ang]:       [  1.065746,   0.972323,   0.654512]

  Decomposition into state-averaged NTOs
    H- 2 -> L+ 7:  0.6482 ( 84.0%)
                   omega =  84.3%
  ----------------------------------------------------------------------------


  Excited state 6 (singlet, B2)                                    [converged]
  ----------------------------------------------------------------------------
  Term symbol:  6 (1) B2                                    R^2 =  4.53087e-09

  Total energy:                                           -153.7977718007 a.u.
  Excitation energy:                                               4.663629 eV

  Osc. strength:                                                      0.016032
  Trans. dip. moment [a.u.]:           [  -0.000000,    0.374589,   -0.000000]
  <i|r^2|0> [a.u.]:                    [  -0.000000,   -0.000000,   -0.000000]

  Dip. moment [a.u.]:                  [  -0.000000,    0.000000,    0.566040]
  Total dipole [Debye]:                                               1.438729
  <r^2> [a.u.]:                        [  70.466533,   28.390685,  234.212819]
  Total <r^2> [a.u.]:                                               333.070037

  V1^2 = 0.8915, V2^2 = 0.1085

  Important amplitudes:
      occ i      occ j       vir a       vir b          v   
    ---------------------------------------------------------
     2 (B2) A              12 (A1) A                  0.5328
     2 (B2) A              10 (A1) A                  0.2766
    ---------------------------------------------------------

  Density matrix analysis:
  ------------------------
  NOs
    Occupation of frontier NOs:
       0.9658   0.9965
    Number of electrons: 26.000000
    Number of unpaired electrons: n_u =  2.72140, n_u,nl =  2.10366
    NO participation ratio (PR_NO):  3.791013
  
  
  Mulliken Population Analysis
  Atom      Charge (e)              h+              e-           Del q
  --------------------------------------------------------------------
   1 C       -0.373232        0.035357       -0.219469       -0.184111
   2 C       -0.373232        0.035357       -0.219469       -0.184111
   3 H        0.168005        0.003327       -0.016354       -0.013027
   4 H        0.168005        0.003327       -0.016354       -0.013027
   5 H        0.102762        0.023961        0.066882        0.090844
   6 H        0.102762        0.023961        0.066882        0.090844
   7 O       -1.643833        1.247953       -1.830379       -0.582426
   8 H        0.848763        0.189924        0.605092        0.795015
  --------------------------------------------------------------------
  Sum:       -1.000000        1.563168       -1.563168       -0.000000
  
  Multipole moment analysis of the density matrix
    Molecular charge:                      -1.000000
    Number of electrons:                   26.000000
      Center of electronic charge [Ang]: [  0.000000,  -0.000000,  -0.011521]
    Total nuclear charge:                  25.000000
      Center of nuclear charge [Ang]:    [  0.000000,   0.000000,  -0.000000]
    Dipole moment [D]:                     1.438729
      Cartesian components [D]:          [ -0.000000,   0.000000,   1.438729]
    RMS size of the density [Ang]:         1.893975
      Cartesian components [Ang]:        [  0.871176,   0.552971,   1.588212]
  
  Exciton analysis of the difference density matrix
    <r_h> [Ang]:                  [  0.000000,  -0.000000,  -1.537082]
    <r_e> [Ang]:                  [  0.000000,  -0.000000,  -1.002315]
    |<r_e - r_h>| [Ang]:            0.534767
    Hole size [Ang]:                1.719417
      Cartesian components [Ang]: [  0.832717,   0.886305,   1.215500]
    Electron size [Ang]:            3.560090
      Cartesian components [Ang]: [  1.777554,   1.488937,   2.701408]

  Transition density matrix analysis:
  -----------------------------------
  
  CT numbers (Mulliken)
    omega =     0.8733
    <Phe> =    -0.0081
  
  Exciton analysis of the transition density matrix
    Trans. dipole moment [D]:             0.476055
      Cartesian components [D]:         [ -0.000000,   0.476055,  -0.000000]
    <r_h> [Ang]:                        [  0.000000,   0.000000,  -1.746184]
    <r_e> [Ang]:                        [  0.000000,  -0.000000,  -0.949263]
    |<r_e - r_h>| [Ang]:                  0.796922
    Hole size [Ang]:                      1.087282
      Cartesian components [Ang]:       [  0.474961,   0.820174,   0.532831]
    Electron size [Ang]:                  4.217687
      Cartesian components [Ang]:       [  2.092269,   1.760406,   3.211271]
    RMS electron-hole separation [Ang]:   4.421560
      Cartesian components [Ang]:       [  2.145144,   1.939937,   3.344428]
    Covariance(r_h, r_e) [Ang^2]:         0.027976
    Correlation coefficient:              0.006101
    Center-of-mass size [Ang]:            2.180998
      Cartesian components [Ang]:       [  1.072930,   0.972121,   1.631121]

  Decomposition into state-averaged NTOs
    H- 0 -> L+ 2: -0.5275 ( 55.6%)
    H- 0 -> L+ 6: -0.3266 ( 21.3%)
    H- 0 -> L+ 3: -0.2182 (  9.5%)
                   omega =  87.3%
  ----------------------------------------------------------------------------


  Excited state 7 (singlet, B2)                                    [converged]
  ----------------------------------------------------------------------------
  Term symbol:  7 (1) B2                                    R^2 =  1.67278e-08

  Total energy:                                           -153.7698331528 a.u.
  Excitation energy:                                               5.423879 eV

  Osc. strength:                                                      0.014260
  Trans. dip. moment [a.u.]:           [   0.000000,   -0.327590,    0.000000]
  <i|r^2|0> [a.u.]:                    [   0.000000,    0.000000,    0.000000]

  Dip. moment [a.u.]:                  [  -0.000000,    0.000000,   -3.638894]
  Total dipole [Debye]:                                               9.249147
  <r^2> [a.u.]:                        [  67.374594,   28.425986,  225.553738]
  Total <r^2> [a.u.]:                                               321.354318

  V1^2 = 0.8739, V2^2 = 0.1261

  Important amplitudes:
      occ i      occ j       vir a       vir b          v   
    ---------------------------------------------------------
     2 (B2) A              11 (A1) A                 -0.6007
     2 (B2) A              12 (A1) A                  0.1589
    ---------------------------------------------------------

  Density matrix analysis:
  ------------------------
  NOs
    Occupation of frontier NOs:
       0.9760   0.9806
    Number of electrons: 26.000000
    Number of unpaired electrons: n_u =  2.78071, n_u,nl =  2.12543
    NO participation ratio (PR_NO):  3.969900
  
  
  Mulliken Population Analysis
  Atom      Charge (e)              h+              e-           Del q
  --------------------------------------------------------------------
   1 C       -0.816689        0.048789       -0.676357       -0.627569
   2 C       -0.816689        0.048789       -0.676357       -0.627569
   3 H        0.201497        0.003274        0.017192        0.020466
   4 H        0.201497        0.003274        0.017192        0.020466
   5 H        0.063362        0.037085        0.014358        0.051444
   6 H        0.063362        0.037085        0.014358        0.051444
   7 O       -0.051639        1.347531       -0.337764        1.009768
   8 H        0.155298        0.123994       -0.022444        0.101550
  --------------------------------------------------------------------
  Sum:       -1.000000        1.649823       -1.649823       -0.000000
  
  Multipole moment analysis of the density matrix
    Molecular charge:                      -1.000000
    Number of electrons:                   26.000000
      Center of electronic charge [Ang]: [  0.000000,  -0.000000,   0.074062]
    Total nuclear charge:                  25.000000
      Center of nuclear charge [Ang]:    [  0.000000,   0.000000,  -0.000000]
    Dipole moment [D]:                     9.249144
      Cartesian components [D]:          [ -0.000000,   0.000000,  -9.249144]
    RMS size of the density [Ang]:         1.858926
      Cartesian components [Ang]:        [  0.851849,   0.553315,   1.556857]
  
  Exciton analysis of the difference density matrix
    <r_h> [Ang]:                  [ -0.000000,  -0.000000,  -1.409872]
    <r_e> [Ang]:                  [  0.000000,  -0.000000,   0.445531]
    |<r_e - r_h>| [Ang]:            1.855403
    Hole size [Ang]:                1.780128
      Cartesian components [Ang]: [  0.817629,   0.857841,   1.328325]
    Electron size [Ang]:            3.300049
      Cartesian components [Ang]: [  1.574947,   1.448481,   2.512323]

  Transition density matrix analysis:
  -----------------------------------
  
  CT numbers (Mulliken)
    omega =     0.8568
    <Phe> =    -0.0008
  
  Exciton analysis of the transition density matrix
    Trans. dipole moment [D]:             0.416325
      Cartesian components [D]:         [  0.000000,  -0.416325,   0.000000]
    <r_h> [Ang]:                        [  0.000000,   0.000000,  -1.663281]
    <r_e> [Ang]:                        [  0.000000,  -0.000000,   1.515040]
    |<r_e - r_h>| [Ang]:                  3.178322
    Hole size [Ang]:                      1.197700
      Cartesian components [Ang]:       [  0.486553,   0.823044,   0.721353]
    Electron size [Ang]:                  3.628367
      Cartesian components [Ang]:       [  1.889648,   1.775916,   2.537794]
    RMS electron-hole separation [Ang]:   4.947941
      Cartesian components [Ang]:       [  1.950787,   1.955188,   4.105337]
    Covariance(r_h, r_e) [Ang^2]:         0.109571
    Correlation coefficient:              0.025214
    Center-of-mass size [Ang]:            1.924752
      Cartesian components [Ang]:       [  0.975889,   0.979770,   1.338790]

  Decomposition into state-averaged NTOs
    H- 0 -> L+ 3: -0.4583 ( 42.0%)
    H- 0 -> L+ 6:  0.4324 ( 37.4%)
    H- 0 -> L+ 0:  0.1067 (  2.3%)
    H- 1 -> L+ 0:  0.0932 (  1.7%)
    H- 0 -> L+ 2: -0.0926 (  1.7%)
                   omega =  85.7%
  ----------------------------------------------------------------------------


  Excited state 8 (singlet, B2)                                    [converged]
  ----------------------------------------------------------------------------
  Term symbol:  8 (1) B2                                    R^2 =  2.69439e-09

  Total energy:                                           -153.7595677346 a.u.
  Excitation energy:                                               5.703215 eV

  Osc. strength:                                                      0.020814
  Trans. dip. moment [a.u.]:           [   0.000000,   -0.385953,   -0.000000]
  <i|r^2|0> [a.u.]:                    [   0.000000,    0.000000,    0.000000]

  Dip. moment [a.u.]:                  [  -0.000000,    0.000000,   -1.432826]
  Total dipole [Debye]:                                               3.641882
  <r^2> [a.u.]:                        [  69.485184,   31.360654,  252.245546]
  Total <r^2> [a.u.]:                                               353.091384

  V1^2 = 0.9427, V2^2 = 0.0573

  Important amplitudes:
      occ i      occ j       vir a       vir b          v   
    ---------------------------------------------------------
     1 (B2) A               8 (A1) A                  0.6080
     1 (B2) A              10 (A1) A                  0.2659
    ---------------------------------------------------------

  Density matrix analysis:
  ------------------------
  NOs
    Occupation of frontier NOs:
       0.9780   1.0018
    Number of electrons: 26.000000
    Number of unpaired electrons: n_u =  2.64785, n_u,nl =  2.07645
    NO participation ratio (PR_NO):  3.553497
  
  
  Mulliken Population Analysis
  Atom      Charge (e)              h+              e-           Del q
  --------------------------------------------------------------------
   1 C       -0.394321        0.520902       -0.726103       -0.205201
   2 C       -0.394321        0.520902       -0.726103       -0.205201
   3 H        0.236286        0.061750       -0.006496        0.055254
   4 H        0.236286        0.061750       -0.006496        0.055254
   5 H        0.121471        0.123408       -0.013855        0.109552
   6 H        0.121471        0.123408       -0.013855        0.109552
   7 O       -0.981910        0.071482        0.008015        0.079497
   8 H        0.055040        0.027717       -0.026425        0.001292
  --------------------------------------------------------------------
  Sum:       -1.000000        1.511318       -1.511318        0.000000
  
  Multipole moment analysis of the density matrix
    Molecular charge:                      -1.000000
    Number of electrons:                   26.000000
      Center of electronic charge [Ang]: [  0.000000,  -0.000000,   0.029162]
    Total nuclear charge:                  25.000000
      Center of nuclear charge [Ang]:    [  0.000000,   0.000000,  -0.000000]
    Dipole moment [D]:                     3.641881
      Cartesian components [D]:          [ -0.000000,   0.000000,  -3.641881]
    RMS size of the density [Ang]:         1.949887
      Cartesian components [Ang]:        [  0.865089,   0.581175,   1.648004]
  
  Exciton analysis of the difference density matrix
    <r_h> [Ang]:                  [  0.000000,   0.000000,   0.865942]
    <r_e> [Ang]:                  [  0.000000,  -0.000000,   2.118944]
    |<r_e - r_h>| [Ang]:            1.253002
    Hole size [Ang]:                1.857157
      Cartesian components [Ang]: [  1.058536,   0.916320,   1.220201]
    Electron size [Ang]:            3.473519
      Cartesian components [Ang]: [  1.868036,   1.694239,   2.388582]

  Transition density matrix analysis:
  -----------------------------------
  
  CT numbers (Mulliken)
    omega =     0.9123
    <Phe> =    -0.0032
  
  Exciton analysis of the transition density matrix
    Trans. dipole moment [D]:             0.490498
      Cartesian components [D]:         [  0.000000,  -0.490498,  -0.000000]
    <r_h> [Ang]:                        [  0.000000,   0.000000,   0.963866]
    <r_e> [Ang]:                        [  0.000000,  -0.000000,   2.877284]
    |<r_e - r_h>| [Ang]:                  1.913418
    Hole size [Ang]:                      1.359150
      Cartesian components [Ang]:       [  0.762590,   0.892760,   0.684635]
    Electron size [Ang]:                  3.868337
      Cartesian components [Ang]:       [  2.181691,   2.025127,   2.470449]
    RMS electron-hole separation [Ang]:   4.511159
      Cartesian components [Ang]:       [  2.307630,   2.210022,   3.184526]
    Covariance(r_h, r_e) [Ang^2]:         0.060969
    Correlation coefficient:              0.011596
    Center-of-mass size [Ang]:            2.057502
      Cartesian components [Ang]:       [  1.157312,   1.108166,   1.290702]

  Decomposition into state-averaged NTOs
    H- 1 -> L+ 0:  0.6689 ( 89.5%)
    H- 0 -> L+ 6: -0.0719 (  1.0%)
                   omega =  91.2%
  ----------------------------------------------------------------------------


  Excited state 9 (singlet, B2)                                    [converged]
  ----------------------------------------------------------------------------
  Term symbol:  9 (1) B2                                    R^2 =  1.52024e-06

  Total energy:                                           -153.7430979166 a.u.
  Excitation energy:                                               6.151381 eV

  Osc. strength:                                                      0.000380
  Trans. dip. moment [a.u.]:           [   0.000000,   -0.050231,    0.000000]
  <i|r^2|0> [a.u.]:                    [  -0.000000,    0.000000,   -0.000000]

  Dip. moment [a.u.]:                  [  -0.000000,   -0.000000,   -2.940041]
  Total dipole [Debye]:                                               7.472840
  <r^2> [a.u.]:                        [  72.368984,   70.496455,  213.838758]
  Total <r^2> [a.u.]:                                               356.704197

  V1^2 = 0.8729, V2^2 = 0.1271

  Important amplitudes:
      occ i      occ j       vir a       vir b          v   
    ---------------------------------------------------------
     7 (A1) A               3 (B2) A                 -0.6555
     7 (A1) A   2 (B2) B    3 (B2) A    5 (B2) B     -0.0486
    ---------------------------------------------------------

  Density matrix analysis:
  ------------------------
  NOs
    Occupation of frontier NOs:
       0.9803   1.0001
    Number of electrons: 26.000000
    Number of unpaired electrons: n_u =  2.79582, n_u,nl =  2.12901
    NO participation ratio (PR_NO):  3.917640
  
  
  Mulliken Population Analysis
  Atom      Charge (e)              h+              e-           Del q
  --------------------------------------------------------------------
   1 C       -0.677224        0.062280       -0.550384       -0.488103
   2 C       -0.677224        0.062280       -0.550384       -0.488103
   3 H        0.142318        0.001873       -0.040586       -0.038713
   4 H        0.142318        0.001873       -0.040586       -0.038713
   5 H        0.044646        0.035323       -0.002595        0.032727
   6 H        0.044646        0.035323       -0.002595        0.032727
   7 O       -0.352516        1.203383       -0.494493        0.708891
   8 H        0.333036        0.295846       -0.016558        0.279288
  --------------------------------------------------------------------
  Sum:       -1.000000        1.698182       -1.698182       -0.000000
  
  Multipole moment analysis of the density matrix
    Molecular charge:                      -1.000000
    Number of electrons:                   26.000000
      Center of electronic charge [Ang]: [  0.000000,   0.000000,   0.059839]
    Total nuclear charge:                  25.000000
      Center of nuclear charge [Ang]:    [  0.000000,   0.000000,  -0.000000]
    Dipole moment [D]:                     7.472838
      Cartesian components [D]:          [ -0.000000,  -0.000000,  -7.472838]
    RMS size of the density [Ang]:         1.959143
      Cartesian components [Ang]:        [  0.882858,   0.871361,   1.516421]
  
  Exciton analysis of the difference density matrix
    <r_h> [Ang]:                  [ -0.000000,  -0.000000,  -1.387710]
    <r_e> [Ang]:                  [  0.000000,   0.000000,   0.197084]
    |<r_e - r_h>| [Ang]:            1.584794
    Hole size [Ang]:                1.832751
      Cartesian components [Ang]: [  0.850132,   0.772331,   1.428201]
    Electron size [Ang]:            4.103453
      Cartesian components [Ang]: [  1.818415,   2.976120,   2.162037]

  Transition density matrix analysis:
  -----------------------------------
  
  CT numbers (Mulliken)
    omega =     0.8556
    <Phe> =     0.0000
  
  Exciton analysis of the transition density matrix
    Trans. dipole moment [D]:             0.063837
      Cartesian components [D]:         [  0.000000,  -0.063837,   0.000000]
    <r_h> [Ang]:                        [  0.000000,  -0.000000,  -1.702027]
    <r_e> [Ang]:                        [  0.000000,   0.000000,   1.128245]
    |<r_e - r_h>| [Ang]:                  2.830272
    Hole size [Ang]:                      1.155524
      Cartesian components [Ang]:       [  0.456806,   0.405963,   0.980693]
    Electron size [Ang]:                  4.926180
      Cartesian components [Ang]:       [  2.247369,   3.820550,   2.149415]
    RMS electron-hole separation [Ang]:   5.796314
      Cartesian components [Ang]:       [  2.292165,   3.842450,   3.684945]
    Covariance(r_h, r_e) [Ang^2]:         0.007834
    Correlation coefficient:              0.001376
    Center-of-mass size [Ang]:            2.530719
      Cartesian components [Ang]:       [  1.147242,   1.920832,   1.182699]

  Decomposition into state-averaged NTOs
    H- 3 -> L+ 4: -0.6538 ( 85.5%)
                   omega =  85.6%
  ----------------------------------------------------------------------------


  Excited state 10 (singlet, B2)                                    [converged]
  ----------------------------------------------------------------------------
  Term symbol:  10 (1) B2                                   R^2 =  1.64468e-08

  Total energy:                                           -153.7301022889 a.u.
  Excitation energy:                                               6.505010 eV

  Osc. strength:                                                      0.000331
  Trans. dip. moment [a.u.]:           [  -0.000000,   -0.045603,   -0.000000]
  <i|r^2|0> [a.u.]:                    [   0.000000,    0.000000,    0.000000]

  Dip. moment [a.u.]:                  [  -0.000000,    0.000000,    1.909680]
  Total dipole [Debye]:                                               4.853923
  <r^2> [a.u.]:                        [ 119.591116,   30.388216,  219.147599]
  Total <r^2> [a.u.]:                                               369.126930

  V1^2 = 0.9417, V2^2 = 0.0583

  Important amplitudes:
      occ i      occ j       vir a       vir b          v   
    ---------------------------------------------------------
     1 (B2) A               9 (A1) A                  0.6625
     1 (B2) A              10 (A1) A                  0.1139
    ---------------------------------------------------------

  Density matrix analysis:
  ------------------------
  NOs
    Occupation of frontier NOs:
       0.9870   0.9946
    Number of electrons: 26.000000
    Number of unpaired electrons: n_u =  2.61546, n_u,nl =  2.06694
    NO participation ratio (PR_NO):  3.453357
  
  
  Mulliken Population Analysis
  Atom      Charge (e)              h+              e-           Del q
  --------------------------------------------------------------------
   1 C       -0.387800        0.541625       -0.740304       -0.198679
   2 C       -0.387800        0.541625       -0.740304       -0.198679
   3 H        0.271092        0.088553        0.001508        0.090061
   4 H        0.271092        0.088553        0.001508        0.090061
   5 H        0.122667        0.114311       -0.003562        0.110748
   6 H        0.122667        0.114311       -0.003562        0.110748
   7 O       -1.092003        0.054607       -0.085203       -0.030596
   8 H        0.080084        0.029304       -0.002968        0.026336
  --------------------------------------------------------------------
  Sum:       -1.000000        1.572888       -1.572888       -0.000000
  
  Multipole moment analysis of the density matrix
    Molecular charge:                      -1.000000
    Number of electrons:                   26.000000
      Center of electronic charge [Ang]: [  0.000000,  -0.000000,  -0.038868]
    Total nuclear charge:                  25.000000
      Center of nuclear charge [Ang]:    [  0.000000,   0.000000,  -0.000000]
    Dipole moment [D]:                     4.853922
      Cartesian components [D]:          [ -0.000000,   0.000000,   4.853922]
    RMS size of the density [Ang]:         1.993516
      Cartesian components [Ang]:        [  1.134917,   0.572094,   1.535832]
  
  Exciton analysis of the difference density matrix
    <r_h> [Ang]:                  [  0.000000,   0.000000,   0.855613]
    <r_e> [Ang]:                  [  0.000000,  -0.000000,   0.935025]
    |<r_e - r_h>| [Ang]:            0.079412
    Hole size [Ang]:                1.855394
      Cartesian components [Ang]: [  1.093760,   0.908938,   1.191642]
    Electron size [Ang]:            4.245922
      Cartesian components [Ang]: [  3.520401,   1.613799,   1.740771]

  Transition density matrix analysis:
  -----------------------------------
  
  CT numbers (Mulliken)
    omega =     0.9117
    <Phe> =    -0.0001
  
  Exciton analysis of the transition density matrix
    Trans. dipole moment [D]:             0.057955
      Cartesian components [D]:         [ -0.000000,  -0.057955,  -0.000000]
    <r_h> [Ang]:                        [  0.000000,   0.000000,   1.022532]
    <r_e> [Ang]:                        [  0.000000,  -0.000000,   1.093139]
    |<r_e - r_h>| [Ang]:                  0.070607
    Hole size [Ang]:                      1.305404
      Cartesian components [Ang]:       [  0.767255,   0.893057,   0.563779]
    Electron size [Ang]:                  5.152261
      Cartesian components [Ang]:       [  4.344134,   1.961764,   1.955958]
    RMS electron-hole separation [Ang]:   5.312591
      Cartesian components [Ang]:       [  4.408214,   2.155417,   2.036039]
    Covariance(r_h, r_e) [Ang^2]:         0.015614
    Correlation coefficient:              0.002322
    Center-of-mass size [Ang]:            2.658999
      Cartesian components [Ang]:       [  2.207261,   1.077765,   1.018181]

  Decomposition into state-averaged NTOs
    H- 1 -> L+ 1:  0.6737 ( 90.8%)
                   omega =  91.2%
  ----------------------------------------------------------------------------


--------------------------------------------------------------------------------
  Time of ADC calculation:  CPU 226.56 s  wall 61.82 s
================================================================================
 
 --------------------------------------------------------------
             Orbital Energies (a.u.) and Symmetries
 --------------------------------------------------------------
 
 Alpha MOs, Restricted
 -- Occupied --                  
-20.213 -11.049 -11.047  -0.930  -0.854  -0.598  -0.473  -0.384
  1 A1    2 A1    1 B1    3 A1    4 A1    2 B1    5 A1    6 A1                 
 -0.328  -0.271  -0.194  -0.130  -0.129
  3 B1    7 A1    1 B2    4 B1    2 B2                                         
 -- Virtual --                   
  0.132   0.143   0.153   0.158   0.159   0.169   0.239   0.259
  5 B1    8 A1    3 B2    9 A1    1 A2    6 B1   10 A1    7 B1                 
  0.285   0.308   0.323   0.333   0.339   0.372   0.426   0.431
  2 A2   11 A1    8 B1   12 A1    4 B2   13 A1    9 B1    3 A2                 
  0.450   0.477   0.495   0.526   0.545   0.577   0.656   0.671
  5 B2   10 B1   14 A1   15 A1   11 B1   16 A1   12 B1   17 A1                 
  0.682   0.874   0.975   1.051   1.060   1.080   1.111   1.122
 13 B1   18 A1   19 A1    6 B2   20 A1   21 A1    4 A2   14 B1                 
  1.177   1.204   1.215   1.226   1.291   1.316   1.334   1.335
 15 B1    7 B2   22 A1   16 B1    5 A2   23 A1   17 B1   24 A1                 
  1.370   1.468   1.483   1.514   1.561   1.642   1.695   1.719
  8 B2    9 B2    6 A2   18 B1   19 B1   25 A1   20 B1   10 B2                 
  1.855   1.926   1.977   2.039   2.125   2.132   2.135   2.199
 26 A1   21 B1   27 A1    7 A2   11 B2   22 B1   28 A1   29 A1                 
  2.212   2.296   2.358   2.393   2.439   2.486   2.556   2.604
 12 B2   30 A1    8 A2   13 B2   23 B1   24 B1   31 A1    9 A2                 
  2.748   2.755   2.845   3.007   3.037   3.091   3.467   3.562
 25 B1   32 A1   26 B1   33 A1   34 A1   35 A1   27 B1   28 B1                 
  3.921   3.945   3.970   4.087   4.539
 14 B2   10 A2   36 A1   29 B1   37 A1                                         
 
 Beta MOs, Restricted
 -- Occupied --                  
-20.213 -11.049 -11.047  -0.930  -0.854  -0.598  -0.473  -0.384
  1 A1    2 A1    1 B1    3 A1    4 A1    2 B1    5 A1    6 A1                 
 -0.328  -0.271  -0.194  -0.130  -0.129
  3 B1    7 A1    1 B2    4 B1    2 B2                                         
 -- Virtual --                   
  0.132   0.143   0.153   0.158   0.159   0.169   0.239   0.259
  5 B1    8 A1    3 B2    9 A1    1 A2    6 B1   10 A1    7 B1                 
  0.285   0.308   0.323   0.333   0.339   0.372   0.426   0.431
  2 A2   11 A1    8 B1   12 A1    4 B2   13 A1    9 B1    3 A2                 
  0.450   0.477   0.495   0.526   0.545   0.577   0.656   0.671
  5 B2   10 B1   14 A1   15 A1   11 B1   16 A1   12 B1   17 A1                 
  0.682   0.874   0.975   1.051   1.060   1.080   1.111   1.122
 13 B1   18 A1   19 A1    6 B2   20 A1   21 A1    4 A2   14 B1                 
  1.177   1.204   1.215   1.226   1.291   1.316   1.334   1.335
 15 B1    7 B2   22 A1   16 B1    5 A2   23 A1   17 B1   24 A1                 
  1.370   1.468   1.483   1.514   1.561   1.642   1.695   1.719
  8 B2    9 B2    6 A2   18 B1   19 B1   25 A1   20 B1   10 B2                 
  1.855   1.926   1.977   2.039   2.125   2.132   2.135   2.199
 26 A1   21 B1   27 A1    7 A2   11 B2   22 B1   28 A1   29 A1                 
  2.212   2.296   2.358   2.393   2.439   2.486   2.556   2.604
 12 B2   30 A1    8 A2   13 B2   23 B1   24 B1   31 A1    9 A2                 
  2.748   2.755   2.845   3.007   3.037   3.091   3.467   3.562
 25 B1   32 A1   26 B1   33 A1   34 A1   35 A1   27 B1   28 B1                 
  3.921   3.945   3.970   4.087   4.539
 14 B2   10 A2   36 A1   29 B1   37 A1                                         
 --------------------------------------------------------------
 
          Ground-State Mulliken Net Atomic Charges

     Atom                 Charge (a.u.)
  ----------------------------------------
      1 C                    -0.184807
      2 C                    -0.184807
      3 H                     0.175215
      4 H                     0.175215
      5 H                     0.006164
      6 H                     0.006164
      7 O                    -1.064202
      8 H                     0.071059
  ----------------------------------------
  Sum of atomic charges =    -1.000000

 -----------------------------------------------------------------
                    Cartesian Multipole Moments
 -----------------------------------------------------------------
    Charge (ESU x 10^10)
                -4.8032
    Dipole Moment (Debye)
         X      -0.0000      Y      -0.0000      Z       5.2809
       Tot       5.2809
    Quadrupole Moments (Debye-Ang)
        XX     -23.6680     XY       0.0000     YY     -26.4967
        XZ      -0.0000     YZ      -0.0000     ZZ     -32.8615
    Octopole Moments (Debye-Ang^2)
       XXX      -0.0000    XXY      -0.0000    XYY       0.0000
       YYY      -0.0000    XXZ       1.0509    XYZ       0.0000
       YYZ      -0.0468    XZZ       0.0000    YZZ       0.0000
       ZZZ       6.2732
    Hexadecapole Moments (Debye-Ang^3)
      XXXX     -87.9221   XXXY       0.0000   XXYY     -21.7181
      XYYY       0.0000   YYYY     -39.6005   XXXZ      -0.0000
      XXYZ      -0.0000   XYYZ       0.0000   YYYZ      -0.0000
      XXZZ     -70.5957   XYZZ       0.0000   YYZZ     -65.2893
      XZZZ       0.0000   YZZZ      -0.0000   ZZZZ    -292.3576
 -----------------------------------------------------------------
 Total job time:  170.82s(wall), 275.59s(cpu) 
 Thu Mar  3 17:57:11 2022

        *************************************************************
        *                                                           *
        *  Thank you very much for using Q-Chem.  Have a nice day.  *
        *                                                           *
        *************************************************************


