/src/tsommerfeld/qchem/exe/qcprog.exe .input0.733333.19766.qcin.1 /src/jdavis/qchem.scratch/qchem19766/

                  Welcome to Q-Chem
     A Quantum Leap Into The Future Of Chemistry


 Q-Chem 5.4 (devel), Q-Chem, Inc., Pleasanton, CA (2021)

 E. Epifanovsky,  A. T. B. Gilbert,  Xintian Feng,  Joonho Lee,  Yuezhi Mao,  
 N. Mardirossian,  P. Pokhilko,  A. White,  M. Wormit,  M. P. Coons,  
 A. L. Dempwolff,  Zhengting Gan,  D. Hait,  P. R. Horn,  L. D. Jacobson,  
 I. Kaliman,  J. Kussmann,  A. W. Lange,  Ka Un Lao,  D. S. Levine,  Jie Liu,  
 S. C. McKenzie,  A. F. Morrison,  K. Nanda,  F. Plasser,  D. R. Rehn,  
 M. L. Vidal,  Zhi-Qiang You,  Ying Zhu,  B. Alam,  B. Albrecht,  
 A. Aldossary,  E. Alguire,  J. H. Andersen,  D. Barton,  K. Begam,  A. Behn,  
 Y. A. Bernard,  E. J. Berquist,  H. Burton,  A. Carreras,  K. Carter-Fenk,  
 R. Chakraborty,  A. D. Chien,  K. D. Closser,  V. Cofer-Shabica,  
 S. Dasgupta,  Jia Deng,  M. de Wergifosse,  M. Diedenhofen,  Hainam Do,  
 S. Ehlert,  Po-Tung Fang,  S. Fatehi,  Qingguo Feng,  T. Friedhoff,  
 J. Gayvert,  Qinghui Ge,  G. Gidofalvi,  M. Goldey,  J. Gomes,  
 C. Gonzalez-Espinoza,  S. Gulania,  A. Gunina,  M. W. D. Hanson-Heine,  
 P. H. P. Harbach,  A. W. Hauser,  M. F. Herbst,  M. Hernandez Vera,  
 M. Hodecker,  Z. C. Holden,  S. Houck,  Xunkun Huang,  Kerwin Hui,  
 B. C. Huynh,  M. Ivanov,  Hyunjun Ji,  Hanjie Jiang,  B. Kaduk,  S. Kaehler,  
 K. Khistyaev,  Jaehoon Kim,  P. Klunzinger,  Z. Koczor-Benda,  
 Joong Hoon Koh,  D. Kosenkov,  L. Koulias,  T. Kowalczyk,  C. M. Krauter,  
 K. Kue,  A. Kunitsa,  T. Kus,  A. Landau,  K. V. Lawler,  D. Lefrancois,  
 S. Lehtola,  Rain Li,  Yi-Pei Li,  Jiashu Liang,  M. Liebenthal,  
 Hung-Hsuan Lin,  You-Sheng Lin,  Fenglai Liu,  Kuan-Yu Liu,  
 M. Loipersberger,  A. Luenser,  A. Manjanath,  P. Manohar,  E. Mansoor,  
 S. F. Manzer,  Shan-Ping Mao,  A. V. Marenich,  T. Markovich,  S. Mason,  
 S. A. Maurer,  P. F. McLaughlin,  M. F. S. J. Menger,  J.-M. Mewes,  
 S. A. Mewes,  P. Morgante,  J. W. Mullinax,  K. J. Oosterbaan,  G. Paran,  
 Alexander C. Paul,  Suranjan K. Paul,  F. Pavosevic,  Zheng Pei,  S. Prager,  
 E. I. Proynov,  E. Ramos,  B. Rana,  A. E. Rask,  A. Rettig,  R. M. Richard,  
 F. Rob,  E. Rossomme,  T. Scheele,  M. Scheurer,  M. Schneider,  
 N. Sergueev,  S. M. Sharada,  W. Skomorowski,  D. W. Small,  C. J. Stein,  
 Yu-Chuan Su,  E. J. Sundstrom,  Zhen Tao,  J. Thirman,  T. Tsuchimochi,  
 N. M. Tubman,  S. P. Veccham,  O. Vydrov,  J. Wenzel,  J. Witte,  A. Yamada,  
 Kun Yao,  S. Yeganeh,  S. R. Yost,  A. Zech,  Igor Ying Zhang,  Xing Zhang,  
 Yu Zhang,  D. Zuev,  A. Aspuru-Guzik,  A. T. Bell,  N. A. Besley,  
 K. B. Bravaya,  B. R. Brooks,  D. Casanova,  Jeng-Da Chai,  S. Coriani,  
 C. J. Cramer,  A. E. DePrince, III,  R. A. DiStasio Jr.,  A. Dreuw,  
 B. D. Dunietz,  T. R. Furlani,  W. A. Goddard III,  S. Grimme,  
 S. Hammes-Schiffer,  T. Head-Gordon,  W. J. Hehre,  Chao-Ping Hsu,  
 T.-C. Jagau,  Yousung Jung,  A. Klamt,  Jing Kong,  D. S. Lambrecht,  
 WanZhen Liang,  N. J. Mayhall,  C. W. McCurdy,  J. B. Neaton,  
 C. Ochsenfeld,  J. A. Parkhill,  R. Peverati,  V. A. Rassolov,  Yihan Shao,  
 L. V. Slipchenko,  T. Stauch,  R. P. Steele,  J. E. Subotnik,  
 A. J. W. Thom,  A. Tkatchenko,  D. G. Truhlar,  T. Van Voorhis,  
 T. A. Wesolowski,  K. B. Whaley,  H. L. Woodcock III,  P. M. Zimmerman,  
 S. Faraji,  P. M. W. Gill,  M. Head-Gordon,  J. M. Herbert,  A. I. Krylov

 Additional authors for Version 5.4.1: 
 S. Kotaru,  Shaozhi Li,  Xiangyuan Li,  F. Matz,  A. Molle,  Haisheng Ren,  
 Yingli Su,  Hung-Yi Tsai,  C. Utku,  Fang Wang

 Contributors to earlier versions of Q-Chem not listed above: 
 R. D. Adamson,  B. Austin,  R. Baer,  J. Baker,  G. J. O. Beran,  
 K. Brandhorst,  S. T. Brown,  E. F. C. Byrd,  A. K. Chakraborty,  
 G. K. L. Chan,  Chun-Min Chang,  Yunqing Chen,  C.-L. Cheng,  
 Siu Hung Chien,  D. M. Chipman,  D. L. Crittenden,  H. Dachsel,  
 R. J. Doerksen,  A. D. Dutoi,  R. G. Edgar,  J. Fosso-Tande,  
 L. Fusti-Molnar,  D. Ghosh,  A. Ghysels,  A. Golubeva-Zadorozhnaya,  
 J. Gonthier,  M. S. Gordon,  S. R. Gwaltney,  G. Hawkins,  J. E. Herr,  
 A. Heyden,  S. Hirata,  E. G. Hohenstein,  G. Kedziora,  F. J. Keil,  
 C. Kelley,  Jihan Kim,  R. A. King,  R. Z. Khaliullin,  P. P. Korambath,  
 W. Kurlancheek,  A. Laurent,  A. M. Lee,  M. S. Lee,  S. V. Levchenko,  
 Ching Yeh Lin,  D. Liotard,  E. Livshits,  R. C. Lochan,  I. Lotan,  
 L. A. Martinez-Martinez,  P. E. Maslen,  N. Nair,  D. P. O'Neill,  
 D. Neuhauser,  E. Neuscamman,  C. M. Oana,  R. Olivares-Amaya,  R. Olson,  
 T. M. Perrine,  B. Peters,  P. A. Pieniazek,  A. Prociuk,  Y. M. Rhee,  
 J. Ritchie,  M. A. Rohrdanz,  E. Rosta,  N. J. Russ,  H. F. Schaefer III,  
 M. W. Schmidt,  N. E. Schultz,  S. Sharma,  N. Shenvi,  C. D. Sherrill,  
 A. C. Simmonett,  A. Sodt,  T. Stein,  D. Stuck,  K. S. Thanthiriwatte,  
 V. Vanovschi,  L. Vogt,  Tao Wang,  A. Warshel,  M. A. Watson,  
 C. F. Williams,  Q. Wu,  X. Xu,  Jun Yang,  W. Zhang,  Yan Zhao

 Please cite Q-Chem as follows:
 Y. Shao et al., Mol. Phys. 113, 184-215 (2015)
 DOI: 10.1080/00268976.2014.952696

 Q-Chem 5.4.1 for Intel X86 EM64T Linux

 Parts of Q-Chem use Armadillo 9.900.5 (Nocturnal Misbehaviour).
 http://arma.sourceforge.net/

 Q-Chem begins on Mon Mar 28 20:29:36 2022  

 Host: node01
0

     Scratch files written to /src/jdavis/qchem.scratch/qchem19766//
 Processing $rem in /src/tsommerfeld/qchem/config/preferences:
 Processing $rem in /home/jdavis/.qchemrc:

 Checking the input file for inconsistencies... 	...done.

--------------------------------------------------------------
User input:
--------------------------------------------------------------
$molecule
-1 1
C        -0.6645000000    0.0000000000   -0.1764707059
C         0.6645000000    0.0000000000   -0.1764707059
H        -1.1590800000    0.0000000000    0.7858782941
H         1.1590800000    0.0000000000    0.7858782941
H        -1.1590800000    0.0000000000   -1.1388187059
H         1.1590800000    0.0000000000   -1.1388187059
H         0.0000000000    0.0000000000  -10.1764707059
$end

$rem
   METHOD adc(3)
   BASIS gen
   PURECART 11
   EE_STATES [0,10,0,0]
   scf_convergence 8
   ADC_DAVIDSON_MAXITER 120
   ADC_DAVIDSON_MAXSUBSPACE 200
   adc_nguess_singles 100
   THRESH 14
   S2THRESH 14
   adc_davidson_conv 5
   adc_davidson_thresh 14
   THREADS 10
   MEM_TOTAL 95000
   STATE_ANALYSIS TRUE
$end
$basis
C 1
S   9   1.00
      6.665000D+03           6.920000D-04
      1.000000D+03           5.329000D-03
      2.280000D+02           2.707700D-02
      6.471000D+01           1.017180D-01
      2.106000D+01           2.747400D-01
      7.495000D+00           4.485640D-01
      2.797000D+00           2.850740D-01
      5.215000D-01           1.520400D-02
      1.596000D-01          -3.191000D-03
S   9   1.00
      6.665000D+03          -1.460000D-04
      1.000000D+03          -1.154000D-03
      2.280000D+02          -5.725000D-03
      6.471000D+01          -2.331200D-02
      2.106000D+01          -6.395500D-02
      7.495000D+00          -1.499810D-01
      2.797000D+00          -1.272620D-01
      5.215000D-01           5.445290D-01
      1.596000D-01           5.804960D-01
S   1   1.00
      1.596000D-01           1.000000D+00
S   1   1.00
      0.0469000              1.0000000
P   4   1.00
      9.439000D+00           3.810900D-02
      2.002000D+00           2.094800D-01
      5.456000D-01           5.085570D-01
      1.517000D-01           4.688420D-01
P   1   1.00
      1.517000D-01           1.000000D+00
P   1   1.00
      0.0741644      1.0000000
P   1   1.00
      0.0370822      1.0000000
D   1   1.00
      5.500000D-01           1.0000000
****
C 2
S   9   1.00
      6.665000D+03           6.920000D-04
      1.000000D+03           5.329000D-03
      2.280000D+02           2.707700D-02
      6.471000D+01           1.017180D-01
      2.106000D+01           2.747400D-01
      7.495000D+00           4.485640D-01
      2.797000D+00           2.850740D-01
      5.215000D-01           1.520400D-02
      1.596000D-01          -3.191000D-03
S   9   1.00
      6.665000D+03          -1.460000D-04
      1.000000D+03          -1.154000D-03
      2.280000D+02          -5.725000D-03
      6.471000D+01          -2.331200D-02
      2.106000D+01          -6.395500D-02
      7.495000D+00          -1.499810D-01
      2.797000D+00          -1.272620D-01
      5.215000D-01           5.445290D-01
      1.596000D-01           5.804960D-01
S   1   1.00
      1.596000D-01           1.000000D+00
S   1   1.00
      0.0469000              1.0000000
P   4   1.00
      9.439000D+00           3.810900D-02
      2.002000D+00           2.094800D-01
      5.456000D-01           5.085570D-01
      1.517000D-01           4.688420D-01
P   1   1.00
      1.517000D-01           1.000000D+00
P   1   1.00
      0.0741644      1.0000000
P   1   1.00
      0.0370822      1.0000000
D   1   1.00
      5.500000D-01           1.0000000
****
H 3
cc-pVDZ
****
H 4
cc-pVDZ
****
H 5
cc-pVDZ
****
H 6
cc-pVDZ
****
H 7
aug-cc-pVDZ
****
$end
--------------------------------------------------------------
 ----------------------------------------------------------------
             Standard Nuclear Orientation (Angstroms)
    I     Atom           X                Y                Z
 ----------------------------------------------------------------
    1      C      -0.6645000000     0.0000000000    -0.5882351765
    2      C       0.6645000000    -0.0000000000    -0.5882351765
    3      H      -1.1590800000     0.0000000000    -1.5505841765
    4      H       1.1590800000    -0.0000000000    -1.5505841765
    5      H      -1.1590800000     0.0000000000     0.3741128235
    6      H       1.1590800000    -0.0000000000     0.3741128235
    7      H       0.0000000000     0.0000000000     9.4117648235
 ----------------------------------------------------------------
 Molecular Point Group                 C2v   NOp =  4
 Largest Abelian Subgroup              C2v   NOp =  4
 Nuclear Repulsion Energy =          34.43499495 hartrees
 There are        9 alpha and        9 beta electrons
 Requested basis set is non-standard
 There are 33 shells and 67 basis functions
 Total memory of 95000 MB is distributed as follows: 
   MEM_STATIC is set to 192 MB
   QALLOC/CCMAN JOB total memory use is  94808 MB
 Warning: actual memory use might exceed 95000 MB

 Total QAlloc Memory Limit  95000 MB
 Mega-Array Size       188 MB
 MEM_STATIC part       192 MB

                       Distance Matrix (Angstroms)
             C (  1)   C (  2)   H (  3)   H (  4)   H (  5)   H (  6)
   C (  2)  1.329000
   H (  3)  1.082000  2.061931
   H (  4)  2.061931  1.082000  2.318160
   H (  5)  1.082000  2.061931  1.924697  3.013026
   H (  6)  2.061931  1.082000  3.013026  1.924697  2.318160
   H (  7) 10.022054 10.022054 11.023455 11.023455  9.111675  9.111675

 
 A cutoff of  1.0D-14 yielded    505 shell pairs
 There are      2121 function pairs (      2258 Cartesian)
 Smallest overlap matrix eigenvalue = 2.54E-04

 Scale SEOQF with 1.000000e-01/1.000000e-01/1.000000e-02

 Standard Electronic Orientation quadrupole field applied
 Nucleus-field energy     =    -0.0000000007 hartrees
 ================ Generating on-the-fly SAD Guess ================
Attempting to make child job directory: /src/jdavis/qchem.scratch/qchem19766//Frg1/
Attempting to make child job directory: /src/jdavis/qchem.scratch/qchem19766//Frg2/
Creating input file /src/jdavis/qchem.scratch/qchem19766/Frg1.input
using default PutDataFrgm: nothing
calling putenv with: QCSCRATCH=/src/jdavis/qchem.scratch/qchem19766/ 
Spawning Job For Fragment 0
Done Job For Fragment 0
calling putenv with: QCSCRATCH=/src/jdavis/qchem.scratch 
calling putenv with: QCTHREADS=1 
Creating input file /src/jdavis/qchem.scratch/qchem19766/Frg2.input
using default PutDataFrgm: nothing
calling putenv with: QCSCRATCH=/src/jdavis/qchem.scratch/qchem19766/ 
Spawning Job For Fragment 1
Done Job For Fragment 1
calling putenv with: QCSCRATCH=/src/jdavis/qchem.scratch 
calling putenv with: QCTHREADS=1 
 Time for running child jobs:  CPU 1.81 s  wall 54.49 s
 ============= Method Specific SAD Guess Constructed =============
 Guess from on-the-fly superposition of atomic densities
 Warning: Energy on first SCF cycle will be non-variational
 A restricted Hartree-Fock SCF calculation will be
 performed using Pulay DIIS extrapolation
 SCF converges when DIIS error is below 1.0E-08
 using 10 threads for integral computing
 -------------------------------------------------------
 OpenMP Integral computing Module                
 Release: version 1.0, May 2013, Q-Chem Inc. Pittsburgh 
 -------------------------------------------------------
 ---------------------------------------
  Cycle       Energy         DIIS Error
 ---------------------------------------
    1     -78.8009395655      7.36E-02
    2     -78.4468192556      6.48E-03
    3     -78.4847871356      1.48E-03
    4     -78.4867187846      4.76E-04
    5     -78.4868915939      7.28E-05
    6     -78.4868993842      1.23E-05
    7     -78.4868997021      3.40E-06
    8     -78.4868997264      3.02E-07
    9     -78.4868997265      6.46E-08
   10     -78.4868997265      1.01E-08
   11     -78.4868997265      1.17E-09 Convergence criterion met
 ---------------------------------------
 SCF time:  CPU 10.12 s  wall 1.02 s
 SCF   energy in the final basis set = -78.48689973
 Total energy in the final basis set = -78.48689973
================================================================================
|                                                                              |
|                                 A D C  M A N                                 |
|                                                                              |
 ------------------------------------------------------------------------------ 
|                                                                              |
| Components:                                                                  |
|                                                                              |
| - libvmm - 1.3-trunk                                                         |
|   Authors:                                                                   |
|   Evgeny Epifanovsky, Ilya Kaliman                                           |
|                                                                              |
| - libtensor - 2.5-trunk                                                      |
|   Authors:                                                                   |
|   Evgeny Epifanovsky, Michael Wormit, Dmitry Zuev, Sam Manzer,               |
|   Ilya Kaliman                                                               |
|                                                                              |
| - libwfa - 1.1-trunk                                                         |
|   Authors:                                                                   |
|   Felix Plasser, Stefanie Mewes (Baeppler), Benjamin Thomitzni,              |
|   Michael Wormit, Feng Chen, Anna I. Krylov, Pavel Pokhilko                  |
|                                                                              |
| - libadc - 1.1-trunk                                                         |
|   Authors:                                                                   |
|   Michael Wormit, Adrian L. Dempwolff, Philipp H. P. Harbach,                |
|   Caroline Krauter, Dirk Rehn, Matthias Schneider, Jan Wenzel                |
|                                                                              |
| - adcman - 2.6-trunk                                                         |
|   Authors:                                                                   |
|   Michael Wormit, Adrian L. Dempwolff, Philipp H. P. Harbach,                |
|   Caroline Krauter, Daniel Lefrancois, Jan-Michael Mewes, Dirk Rehn,         |
|   Matthias Schneider, Jan Wenzel, Andreas Dreuw                              |
|                                                                              |
| Authors of earlier versions of ADCMAN:                                       |
| Andreas Dreuw, Jan Hendrik Starcke, Dirk Rehn, Michael Wormit                |
|                                                                              |
================================================================================

 
 Alpha MOs, Restricted
 -- Occupied --                  
-11.184 -11.182  -0.989  -0.729  -0.607  -0.514  -0.462  -0.324
  1 A1    1 B1    2 A1    2 B1    3 A1    4 A1    3 B1    1 B2                 
  0.022
  5 A1                                                                         
 -- Virtual --                   
  0.115   0.130   0.138   0.138   0.144   0.160   0.185   0.227
  4 B1    6 A1    7 A1    2 B2    1 A2    5 B1    8 A1    2 A2                 
  0.258   0.315   0.355   0.361   0.375   0.385   0.387   0.396
  6 B1    9 A1   10 A1    7 B1   11 A1    3 B2    8 B1   12 A1                 
  0.423   0.466   0.607   0.664   0.882   0.907   0.981   0.987
  9 B1    3 A2   10 B1   11 B1   13 A1   14 A1   15 A1   12 B1                 
  1.058   1.062   1.084   1.100   1.135   1.167   1.177   1.178
 16 A1   17 A1   13 B1   18 A1    4 B2    5 B2   14 B1    4 A2                 
  1.326   1.337   1.341   1.478   1.672   1.706   1.779   1.925
 15 B1    5 A2    6 B2   16 B1   19 A1   17 B1   20 A1    6 A2                 
  1.967   1.967   1.967   1.996   2.009   2.070   2.114   2.144
 21 A1   18 B1    7 B2    8 B2   19 B1    9 B2   22 A1   23 A1                 
  2.233   2.380   2.465   2.521   2.630   2.632   2.878   2.885
  7 A2   20 B1    8 A2   24 A1   21 B1   22 B1   25 A1   26 A1                 
  3.310   3.393
 23 B1   24 B1                                                                 
 
 Beta MOs, Restricted
 -- Occupied --                  
-11.184 -11.182  -0.989  -0.729  -0.607  -0.514  -0.462  -0.324
  1 A1    1 B1    2 A1    2 B1    3 A1    4 A1    3 B1    1 B2                 
  0.022
  5 A1                                                                         
 -- Virtual --                   
  0.115   0.130   0.138   0.138   0.144   0.160   0.185   0.227
  4 B1    6 A1    7 A1    2 B2    1 A2    5 B1    8 A1    2 A2                 
  0.258   0.315   0.355   0.361   0.375   0.385   0.387   0.396
  6 B1    9 A1   10 A1    7 B1   11 A1    3 B2    8 B1   12 A1                 
  0.423   0.466   0.607   0.664   0.882   0.907   0.981   0.987
  9 B1    3 A2   10 B1   11 B1   13 A1   14 A1   15 A1   12 B1                 
  1.058   1.062   1.084   1.100   1.135   1.167   1.177   1.178
 16 A1   17 A1   13 B1   18 A1    4 B2    5 B2   14 B1    4 A2                 
  1.326   1.337   1.341   1.478   1.672   1.706   1.779   1.925
 15 B1    5 A2    6 B2   16 B1   19 A1   17 B1   20 A1    6 A2                 
  1.967   1.967   1.967   1.996   2.009   2.070   2.114   2.144
 21 A1   18 B1    7 B2    8 B2   19 B1    9 B2   22 A1   23 A1                 
  2.233   2.380   2.465   2.521   2.630   2.632   2.878   2.885
  7 A2   20 B1    8 A2   24 A1   21 B1   22 B1   25 A1   26 A1                 
  3.310   3.393
 23 B1   24 B1                                                                 

--------------------------------------------------------------------------------
                                   HF Summary                                   
--------------------------------------------------------------------------------
  Energy:                                                  -78.4868997265 a.u.
  Dip. moment [a.u.]:                  [   0.000000,   -0.000000,  -17.726560]
  Total dipole [Debye]:                                              45.056430
  <r^2> [a.u.]:                        [  50.666897,   14.941825,  677.605268]
  Total <r^2> [a.u.]:                                               743.213989
--------------------------------------------------------------------------------

--------------------------------------------------------------------------------
                                 MP(2) Summary                                  
--------------------------------------------------------------------------------
  MP energy contribution:                                   -0.2989705344 a.u.
  Total energy:                                            -78.7858702610 a.u.
  Dip. moment [a.u.]:                  [   0.000000,    0.000000,  -17.725864]
  Total dipole [Debye]:                                              45.054662
  <r^2> [a.u.]:                        [  50.732620,   14.749851,  677.594545]
  Total <r^2> [a.u.]:                                               743.077017

  Density matrix analysis:
  ------------------------
  NOs
    Occupation of frontier NOs:
       0.0447   1.9370
    Number of electrons: 18.000000
    Number of unpaired electrons: n_u =  0.43227, n_u,nl =  0.04679
    NO participation ratio (PR_NO): 15.328421
  
  
  Mulliken Population Analysis
  Atom      Charge (e)              h+              e-           Del q
  --------------------------------------------------------------------
   1 C       -0.204816        0.087618       -0.102552       -0.014934
   2 C       -0.204816        0.087618       -0.102552       -0.014934
   3 H        0.091534        0.018108       -0.010628        0.007480
   4 H        0.091534        0.018108       -0.010628        0.007480
   5 H        0.113276        0.017789       -0.010335        0.007454
   6 H        0.113276        0.017789       -0.010335        0.007454
   7 H       -0.999989        0.021954       -0.021953        0.000001
  --------------------------------------------------------------------
  Sum:       -1.000000        0.268984       -0.268984       -0.000000
  
  Multipole moment analysis of the density matrix
    Molecular charge:                      -1.000000
    Number of electrons:                   18.000000
      Center of electronic charge [Ang]: [ -0.000000,  -0.000000,   0.521118]
    Total nuclear charge:                  17.000000
      Center of nuclear charge [Ang]:    [ -0.000000,   0.000000,  -0.000000]
    Dipole moment [D]:                     45.054648
      Cartesian components [D]:          [  0.000000,   0.000000, -45.054648]
    RMS size of the density [Ang]:         3.359850
      Cartesian components [Ang]:        [  0.888400,   0.479026,   3.204664]
  
  Exciton analysis of the difference density matrix
    <r_h> [Ang]:                  [  0.000000,  -0.000000,   0.225411]
    <r_e> [Ang]:                  [  0.000000,  -0.000000,   0.224042]
    |<r_e - r_h>| [Ang]:            0.001369
    Hole size [Ang]:                3.084827
      Cartesian components [Ang]: [  0.953742,   0.754202,   2.835086]
    Electron size [Ang]:            3.061728
      Cartesian components [Ang]: [  0.988963,   0.607425,   2.833225]
--------------------------------------------------------------------------------

--------------------------------------------------------------------------------
                                 MP(3) Summary                                  
--------------------------------------------------------------------------------
  MP energy contribution:                                   -0.0281739181 a.u.
  Total energy:                                            -78.8140441791 a.u.
--------------------------------------------------------------------------------
Less singles guess vectors found than requested: 85 (found), 100 (requested).
Adjusting number of doubles guess vectors to 15.
  Starting Davidson for singlet states of irrep A2 ... 
--------------------------------------------------------------------------------
   It NVec Conv  Avg. Norm  Max. Norm  Conv. states           Remark
--------------------------------------------------------------------------------
       100    0  1.031e-01  4.278e-01  0.0932 n n n n n n n n Guess.
    1  110    0  2.967e-02  1.626e-01  0.0524 n n n n n n n n 
    2  120    0  2.266e-02  1.641e-01  0.0507 n n n n n n n n 
    3  130    0  3.271e-02  2.434e-01  0.0506 n n n n n n n n 
    4  140    0  1.827e-02  1.022e-01  0.0506 n n n n n n n n 
    5  150    0  1.225e-02  7.811e-02  0.0506 n n n n n n n n 
    6  160    0  8.062e-03  5.634e-02  0.0506 n n n n n n n n 
    7  170    1  2.528e-03  1.582e-02  0.0506 y n n n n n n n 
    8  180    2  8.293e-04  6.299e-03  0.0506 y y n n n n n n 
    9  190    2  3.594e-04  3.089e-03  0.0506 y y n n n n n n 
   10  200    3  1.349e-04  1.095e-03  0.0506 y y n n y n n n 
   11   20    4  5.129e-05  4.028e-04  0.0506 y y y n y n n n Subspace collapsed.
   12   30    4  3.741e-05  3.207e-04  0.0506 y y y n y n n n 
   13   40    5  2.287e-05  2.083e-04  0.0506 y y y y y n n n 
   14   50    6  1.382e-05  1.319e-04  0.0506 y y y y y n n y 
   15   60    8  7.531e-06  7.344e-05  0.0506 y y y y y y y y 
   16   70    9  5.375e-06  5.326e-05  0.0506 y y y y y y y y 
   17   80    9  3.162e-06  3.149e-05  0.0506 y y y y y y y y 
   18   90    9  1.642e-06  1.638e-05  0.0506 y y y y y y y y 
   19  100   10  7.380e-07  7.361e-06  0.0506 y y y y y y y y Converged.
--------------------------------------------------------------------------------
  Davidson Summary: 
 ------------------------------------------------------------
  State  0: excitation energy =   0.0506 a.u.   (converged)
  State  1: excitation energy =   0.1137 a.u.   (converged)
  State  2: excitation energy =   0.2085 a.u.   (converged)
  State  3: excitation energy =   0.2820 a.u.   (converged)
  State  4: excitation energy =   0.2912 a.u.   (converged)
  State  5: excitation energy =   0.2929 a.u.   (converged)
  State  6: excitation energy =   0.2991 a.u.   (converged)
  State  7: excitation energy =   0.3027 a.u.   (converged)
  State  8: excitation energy =   0.3256 a.u.   (converged)
  State  9: excitation energy =   0.3311 a.u.   (converged)
 ------------------------------------------------------------


--------------------------------------------------------------------------------
                   State-averaged natural transition orbitals
--------------------------------------------------------------------------------
--------------------------------------------------------------------------------

--------------------------------------------------------------------------------
                             Excited State Summary
--------------------------------------------------------------------------------
--------------------------------------------------------------------------------

  Excited state 1 (singlet, A2)                                    [converged]
  ----------------------------------------------------------------------------
  Term symbol:  1 (1) A2                                    R^2 =  2.43655e-13

  Total energy:                                            -78.7634123235 a.u.
  Excitation energy:                                               1.377763 eV

  Osc. strength:                                                      0.000000
  Trans. dip. moment [a.u.]:           [   0.000000,    0.000000,    0.000000]
  <i|r^2|0> [a.u.]:                    [   0.000000,    0.000000,   -0.000000]

  Dip. moment [a.u.]:                  [   0.000000,    0.000000,    1.114092]
  Total dipole [Debye]:                                               2.831740
  <r^2> [a.u.]:                        [  66.064609,   29.271392,  366.677262]
  Total <r^2> [a.u.]:                                               462.013263

  V1^2 = 0.9304, V2^2 = 0.0696

  Important amplitudes:
      occ i      occ j       vir a       vir b          v   
    ---------------------------------------------------------
     5 (A1) A               1 (A2) A                  0.6636
     5 (A1) A               2 (A2) A                  0.1544
    ---------------------------------------------------------

  Density matrix analysis:
  ------------------------
  NOs
    Occupation of frontier NOs:
       0.9855   1.0015
    Number of electrons: 18.000000
    Number of unpaired electrons: n_u =  2.43035, n_u,nl =  2.05087
    NO participation ratio (PR_NO):  2.980568
  
  
  Mulliken Population Analysis
  Atom      Charge (e)              h+              e-           Del q
  --------------------------------------------------------------------
   1 C       -0.641919        0.122098       -0.559201       -0.437103
   2 C       -0.641919        0.122098       -0.559201       -0.437103
   3 H        0.070471        0.005616       -0.026679       -0.021063
   4 H        0.070471        0.005616       -0.026679       -0.021063
   5 H        0.071447        0.005064       -0.046892       -0.041829
   6 H        0.071447        0.005064       -0.046892       -0.041829
   7 H        0.000001        1.057047       -0.057058        0.999989
  --------------------------------------------------------------------
  Sum:       -1.000000        1.322603       -1.322603        0.000000
  
  Multipole moment analysis of the density matrix
    Molecular charge:                      -1.000000
    Number of electrons:                   18.000000
      Center of electronic charge [Ang]: [ -0.000000,  -0.000000,  -0.032753]
    Total nuclear charge:                  17.000000
      Center of nuclear charge [Ang]:    [ -0.000000,   0.000000,  -0.000000]
    Dipole moment [D]:                     2.831739
      Cartesian components [D]:          [  0.000000,   0.000000,   2.831739]
    RMS size of the density [Ang]:         2.680771
      Cartesian components [Ang]:        [  1.013793,   0.674818,   2.388174]
  
  Exciton analysis of the difference density matrix
    <r_h> [Ang]:                  [  0.000000,   0.000000,   7.411073]
    <r_e> [Ang]:                  [ -0.000000,  -0.000000,  -0.126847]
    |<r_e - r_h>| [Ang]:            7.537919
    Hole size [Ang]:                4.232252
      Cartesian components [Ang]: [  0.844937,   0.818732,   4.065429]
    Electron size [Ang]:            3.648502
      Cartesian components [Ang]: [  1.989997,   1.935174,   2.367821]

  Transition density matrix analysis:
  -----------------------------------
  
  CT numbers (Mulliken)
    omega =     0.9181
    <Phe> =     0.0000
  
  Exciton analysis of the transition density matrix
    Trans. dipole moment [D]:             0.000000
      Cartesian components [D]:         [  0.000000,   0.000000,   0.000000]
    <r_h> [Ang]:                        [ -0.000000,   0.000000,   9.411672]
    <r_e> [Ang]:                        [ -0.000000,  -0.000000,  -0.588152]
    |<r_e - r_h>| [Ang]:                  9.999824
    Hole size [Ang]:                      1.114279
      Cartesian components [Ang]:       [  0.643185,   0.643183,   0.643619]
    Electron size [Ang]:                  3.258763
      Cartesian components [Ang]:       [  2.169080,   2.104400,   1.219069]
    RMS electron-hole separation [Ang]:  10.576273
      Cartesian components [Ang]:       [  2.262419,   2.200490,  10.094397]
    Covariance(r_h, r_e) [Ang^2]:         0.000040
    Correlation coefficient:              0.000011
    Center-of-mass size [Ang]:            1.722007
      Cartesian components [Ang]:       [  1.131222,   1.100251,   0.689270]

  Decomposition into state-averaged NTOs
    H- 0 -> L+ 0: -0.5330 ( 56.8%)
    H- 0 -> L+ 2: -0.4182 ( 35.0%)
                   omega =  91.8%
  ----------------------------------------------------------------------------


  Excited state 2 (singlet, A2)                                    [converged]
  ----------------------------------------------------------------------------
  Term symbol:  2 (1) A2                                    R^2 =  2.31933e-12

  Total energy:                                            -78.7003578387 a.u.
  Excitation energy:                                               3.093563 eV

  Osc. strength:                                                      0.000000
  Trans. dip. moment [a.u.]:           [   0.000000,    0.000000,   -0.000000]
  <i|r^2|0> [a.u.]:                    [   0.000000,    0.000000,    0.000000]

  Dip. moment [a.u.]:                  [   0.000000,    0.000000,    1.115996]
  Total dipole [Debye]:                                               2.836580
  <r^2> [a.u.]:                        [  67.540267,   31.242760,  367.577106]
  Total <r^2> [a.u.]:                                               466.360132

  V1^2 = 0.8941, V2^2 = 0.1059

  Important amplitudes:
      occ i      occ j       vir a       vir b          v   
    ---------------------------------------------------------
     5 (A1) A               2 (A2) A                 -0.6399
     5 (A1) A               1 (A2) A                  0.1815
    ---------------------------------------------------------

  Density matrix analysis:
  ------------------------
  NOs
    Occupation of frontier NOs:
       0.9660   0.9998
    Number of electrons: 18.000000
    Number of unpaired electrons: n_u =  2.49156, n_u,nl =  2.07574
    NO participation ratio (PR_NO):  3.177804
  
  
  Mulliken Population Analysis
  Atom      Charge (e)              h+              e-           Del q
  --------------------------------------------------------------------
   1 C       -0.605204        0.164019       -0.564407       -0.400388
   2 C       -0.605204        0.164019       -0.564407       -0.400388
   3 H        0.051767        0.005892       -0.045659       -0.039768
   4 H        0.051767        0.005892       -0.045659       -0.039768
   5 H        0.053437        0.005349       -0.065188       -0.059839
   6 H        0.053437        0.005349       -0.065188       -0.059839
   7 H        0.000001        1.051983       -0.051993        0.999989
  --------------------------------------------------------------------
  Sum:       -1.000000        1.402502       -1.402502        0.000000
  
  Multipole moment analysis of the density matrix
    Molecular charge:                      -1.000000
    Number of electrons:                   18.000000
      Center of electronic charge [Ang]: [ -0.000000,  -0.000000,  -0.032809]
    Total nuclear charge:                  17.000000
      Center of nuclear charge [Ang]:    [ -0.000000,   0.000000,  -0.000000]
    Dipole moment [D]:                     2.836579
      Cartesian components [D]:          [  0.000000,   0.000000,   2.836579]
    RMS size of the density [Ang]:         2.693354
      Cartesian components [Ang]:        [  1.025053,   0.697171,   2.391103]
  
  Exciton analysis of the difference density matrix
    <r_h> [Ang]:                  [  0.000000,   0.000000,   6.919525]
    <r_e> [Ang]:                  [ -0.000000,  -0.000000,  -0.189688]
    |<r_e - r_h>| [Ang]:            7.109213
    Hole size [Ang]:                4.534945
      Cartesian components [Ang]: [  0.840667,   0.802092,   4.383566]
    Electron size [Ang]:            3.627572
      Cartesian components [Ang]: [  2.015588,   1.984032,   2.271630]

  Transition density matrix analysis:
  -----------------------------------
  
  CT numbers (Mulliken)
    omega =     0.8804
    <Phe> =     0.0000
  
  Exciton analysis of the transition density matrix
    Trans. dipole moment [D]:             0.000000
      Cartesian components [D]:         [  0.000000,   0.000000,  -0.000000]
    <r_h> [Ang]:                        [ -0.000000,   0.000000,   9.411673]
    <r_e> [Ang]:                        [ -0.000000,  -0.000000,  -0.588125]
    |<r_e - r_h>| [Ang]:                  9.999798
    Hole size [Ang]:                      1.114103
      Cartesian components [Ang]:       [  0.643084,   0.643082,   0.643517]
    Electron size [Ang]:                  3.422866
      Cartesian components [Ang]:       [  2.269207,   2.216980,   1.285188]
    RMS electron-hole separation [Ang]:  10.627941
      Cartesian components [Ang]:       [  2.358563,   2.308362,  10.102563]
    Covariance(r_h, r_e) [Ang^2]:         0.000028
    Correlation coefficient:              0.000007
    Center-of-mass size [Ang]:            1.799812
      Cartesian components [Ang]:       [  1.179289,   1.154186,   0.718648]

  Decomposition into state-averaged NTOs
    H- 0 -> L+ 2:  0.4996 ( 49.9%)
    H- 0 -> L+ 0: -0.4357 ( 38.0%)
                   omega =  88.0%
  ----------------------------------------------------------------------------


  Excited state 3 (singlet, A2)                                    [converged]
  ----------------------------------------------------------------------------
  Term symbol:  3 (1) A2                                    R^2 =  1.42178e-09

  Total energy:                                            -78.6055785224 a.u.
  Excitation energy:                                               5.672639 eV

  Osc. strength:                                                      0.000000
  Trans. dip. moment [a.u.]:           [   0.000000,   -0.000000,    0.000000]
  <i|r^2|0> [a.u.]:                    [  -0.000000,   -0.000000,   -0.000000]

  Dip. moment [a.u.]:                  [  -0.000000,   -0.000000,    1.165440]
  Total dipole [Debye]:                                               2.962252
  <r^2> [a.u.]:                        [  62.702783,   44.241751,  371.575297]
  Total <r^2> [a.u.]:                                               478.519831

  V1^2 = 0.0471, V2^2 = 0.9529

  Important amplitudes:
      occ i      occ j       vir a       vir b          v   
    ---------------------------------------------------------
     5 (A1) A   1 (B2) B    2 (A2) A    2 (B2) B      0.2137
     5 (A1) A   1 (B2) B    1 (A2) A    2 (B2) B      0.1604
    ---------------------------------------------------------

  Density matrix analysis:
  ------------------------
  NOs
    Occupation of frontier NOs:
       0.9875   1.0085
    Number of electrons: 18.000000
    Number of unpaired electrons: n_u =  3.94975, n_u,nl =  3.86925
    NO participation ratio (PR_NO):  4.805360
  
  
  Mulliken Population Analysis
  Atom      Charge (e)              h+              e-           Del q
  --------------------------------------------------------------------
   1 C       -0.676937        0.497765       -0.969886       -0.472121
   2 C       -0.676937        0.497765       -0.969886       -0.472121
   3 H        0.078267        0.002629       -0.015896       -0.013267
   4 H        0.078267        0.002629       -0.015896       -0.013267
   5 H        0.098667        0.002499       -0.017108       -0.014609
   6 H        0.098667        0.002499       -0.017108       -0.014609
   7 H        0.000006        1.002035       -0.002040        0.999994
  --------------------------------------------------------------------
  Sum:       -1.000000        2.007820       -2.007820        0.000000
  
  Multipole moment analysis of the density matrix
    Molecular charge:                      -1.000000
    Number of electrons:                   18.000000
      Center of electronic charge [Ang]: [  0.000000,   0.000000,  -0.034262]
    Total nuclear charge:                  17.000000
      Center of nuclear charge [Ang]:    [ -0.000000,   0.000000,  -0.000000]
    Dipole moment [D]:                     2.962252
      Cartesian components [D]:          [ -0.000000,  -0.000000,   2.962252]
    RMS size of the density [Ang]:         2.728228
      Cartesian components [Ang]:        [  0.987662,   0.829623,   2.404054]
  
  Exciton analysis of the difference density matrix
    <r_h> [Ang]:                  [  0.000000,   0.000000,   4.402283]
    <r_e> [Ang]:                  [  0.000000,   0.000000,  -0.576673]
    |<r_e - r_h>| [Ang]:            4.978955
    Hole size [Ang]:                5.156313
      Cartesian components [Ang]: [  0.732982,   0.818083,   5.037960]
    Electron size [Ang]:            2.955943
      Cartesian components [Ang]: [  1.485506,   2.186884,   1.322274]

  Transition density matrix analysis:
  -----------------------------------
  
  CT numbers (Mulliken)
    omega =     0.0464
    <Phe> =     0.0000
  
  Exciton analysis of the transition density matrix
    Trans. dipole moment [D]:             0.000000
      Cartesian components [D]:         [  0.000000,  -0.000000,   0.000000]
    <r_h> [Ang]:                        [ -0.000000,   0.000000,   9.411685]
    <r_e> [Ang]:                        [  0.000000,  -0.000000,  -0.588133]
    |<r_e - r_h>| [Ang]:                  9.999818
    Hole size [Ang]:                      1.115562
      Cartesian components [Ang]:       [  0.643928,   0.643926,   0.644356]
    Electron size [Ang]:                  2.920368
      Cartesian components [Ang]:       [  1.944137,   1.882259,   1.098172]
    RMS electron-hole separation [Ang]:  10.477085
      Cartesian components [Ang]:       [  2.047990,   1.989351,  10.080552]
    Covariance(r_h, r_e) [Ang^2]:         0.000034
    Correlation coefficient:              0.000011
    Center-of-mass size [Ang]:            1.563097
      Cartesian components [Ang]:       [  1.024007,   0.994681,   0.636626]

  Decomposition into state-averaged NTOs
    H- 0 -> L+ 2: -0.1378 (  3.8%)
                   omega =   4.6%
  ----------------------------------------------------------------------------


  Excited state 4 (singlet, A2)                                    [converged]
  ----------------------------------------------------------------------------
  Term symbol:  4 (1) A2                                    R^2 =  1.29486e-08

  Total energy:                                            -78.5320457385 a.u.
  Excitation energy:                                               7.673568 eV

  Osc. strength:                                                      0.000000
  Trans. dip. moment [a.u.]:           [  -0.000000,    0.000000,    0.000000]
  <i|r^2|0> [a.u.]:                    [  -0.000000,    0.000000,   -0.000000]

  Dip. moment [a.u.]:                  [   0.000000,    0.000000,    0.996931]
  Total dipole [Debye]:                                               2.533946
  <r^2> [a.u.]:                        [ 107.265732,   28.714921,  377.449248]
  Total <r^2> [a.u.]:                                               513.429900

  V1^2 = 0.0010, V2^2 = 0.9990

  Important amplitudes:
      occ i      occ j       vir a       vir b          v   
    ---------------------------------------------------------
     5 (A1) A   1 (B2) A    7 (A1) A    4 (B1) A     -0.2051
     5 (A1) A   1 (B2) A    6 (A1) A    4 (B1) A      0.1199
    ---------------------------------------------------------

  Density matrix analysis:
  ------------------------
  NOs
    Occupation of frontier NOs:
       0.9471   0.9676
    Number of electrons: 18.000000
    Number of unpaired electrons: n_u =  4.28648, n_u,nl =  4.02443
    NO participation ratio (PR_NO):  4.958647
  
  
  Mulliken Population Analysis
  Atom      Charge (e)              h+              e-           Del q
  --------------------------------------------------------------------
   1 C       -0.721134        0.493741       -1.010059       -0.516318
   2 C       -0.721134        0.493741       -1.010059       -0.516318
   3 H        0.101132        0.002951        0.006647        0.009598
   4 H        0.101132        0.002951        0.006647        0.009598
   5 H        0.119999        0.002861        0.003863        0.006723
   6 H        0.119999        0.002861        0.003863        0.006723
   7 H        0.000006        1.000030       -0.000035        0.999995
  --------------------------------------------------------------------
  Sum:       -1.000000        1.999134       -1.999134        0.000000
  
  Multipole moment analysis of the density matrix
    Molecular charge:                      -1.000000
    Number of electrons:                   18.000000
      Center of electronic charge [Ang]: [ -0.000000,  -0.000000,  -0.029309]
    Total nuclear charge:                  17.000000
      Center of nuclear charge [Ang]:    [ -0.000000,   0.000000,  -0.000000]
    Dipole moment [D]:                     2.533945
      Cartesian components [D]:          [  0.000000,   0.000000,   2.533945]
    RMS size of the density [Ang]:         2.826065
      Cartesian components [Ang]:        [  1.291800,   0.668373,   2.423050]
  
  Exciton analysis of the difference density matrix
    <r_h> [Ang]:                  [  0.000000,  -0.000000,   4.413665]
    <r_e> [Ang]:                  [ -0.000000,  -0.000000,  -0.542320]
    |<r_e - r_h>| [Ang]:            4.955985
    Hole size [Ang]:                5.138786
      Cartesian components [Ang]: [  0.697302,   0.761802,   5.033940]
    Electron size [Ang]:            3.664102
      Cartesian components [Ang]: [  2.899155,   1.592639,   1.576084]

  Transition density matrix analysis:
  -----------------------------------
  
  CT numbers (Mulliken)
    omega =     0.0009
    <Phe> =    -0.0000
  
  Exciton analysis of the transition density matrix
    Trans. dipole moment [D]:             0.000000
      Cartesian components [D]:         [ -0.000000,   0.000000,   0.000000]
    <r_h> [Ang]:                        [ -0.000000,   0.000000,   9.409288]
    <r_e> [Ang]:                        [ -0.000000,  -0.000000,  -0.588488]
    |<r_e - r_h>| [Ang]:                  9.997776
    Hole size [Ang]:                      1.125392
      Cartesian components [Ang]:       [  0.643449,   0.643480,   0.662129]
    Electron size [Ang]:                  3.998522
      Cartesian components [Ang]:       [  2.622577,   2.613481,   1.509961]
    RMS electron-hole separation [Ang]:  10.826101
      Cartesian components [Ang]:       [  2.700370,   2.691663,  10.132493]
    Covariance(r_h, r_e) [Ang^2]:         0.002878
    Correlation coefficient:              0.000640
    Center-of-mass size [Ang]:            2.077284
      Cartesian components [Ang]:       [  1.350174,   1.345701,   0.825366]

  Decomposition into state-averaged NTOs
                   omega =   0.1%
  ----------------------------------------------------------------------------


  Excited state 5 (singlet, A2)                                    [converged]
  ----------------------------------------------------------------------------
  Term symbol:  5 (1) A2                                    R^2 =  2.01462e-09

  Total energy:                                            -78.5227988045 a.u.
  Excitation energy:                                               7.925190 eV

  Osc. strength:                                                      0.000000
  Trans. dip. moment [a.u.]:           [  -0.000000,   -0.000000,    0.000000]
  <i|r^2|0> [a.u.]:                    [   0.000000,    0.000000,   -0.000000]

  Dip. moment [a.u.]:                  [   0.000000,   -0.000000,  -16.967681]
  Total dipole [Debye]:                                              43.127552
  <r^2> [a.u.]:                        [  79.179940,   19.756693,  686.086094]
  Total <r^2> [a.u.]:                                               785.022726

  V1^2 = 0.9354, V2^2 = 0.0646

  Important amplitudes:
      occ i      occ j       vir a       vir b          v   
    ---------------------------------------------------------
     1 (B2) A               4 (B1) A                 -0.6504
     1 (B2) A               6 (B1) A                  0.1722
    ---------------------------------------------------------

  Density matrix analysis:
  ------------------------
  NOs
    Occupation of frontier NOs:
       0.9769   0.9791
    Number of electrons: 18.000000
    Number of unpaired electrons: n_u =  2.33825, n_u,nl =  2.03122
    NO participation ratio (PR_NO):  2.845314
  
  
  Mulliken Population Analysis
  Atom      Charge (e)              h+              e-           Del q
  --------------------------------------------------------------------
   1 C       -0.326023        0.502902       -0.624109       -0.121207
   2 C       -0.326023        0.502902       -0.624109       -0.121207
   3 H        0.143311        0.106987       -0.055210        0.051777
   4 H        0.143311        0.106987       -0.055210        0.051777
   5 H        0.182267        0.092555       -0.023564        0.068991
   6 H        0.182267        0.092555       -0.023564        0.068991
   7 H       -0.999111        0.011842       -0.010965        0.000877
  --------------------------------------------------------------------
  Sum:       -1.000000        1.416730       -1.416730       -0.000000
  
  Multipole moment analysis of the density matrix
    Molecular charge:                      -1.000000
    Number of electrons:                   18.000000
      Center of electronic charge [Ang]: [ -0.000000,   0.000000,   0.498828]
    Total nuclear charge:                  17.000000
      Center of nuclear charge [Ang]:    [ -0.000000,   0.000000,  -0.000000]
    Dipole moment [D]:                     43.127539
      Cartesian components [D]:          [  0.000000,  -0.000000, -43.127539]
    RMS size of the density [Ang]:         3.458884
      Cartesian components [Ang]:        [  1.109871,   0.554398,   3.228732]
  
  Exciton analysis of the difference density matrix
    <r_h> [Ang]:                  [ -0.000000,  -0.000000,  -0.523732]
    <r_e> [Ang]:                  [ -0.000000,   0.000000,  -0.806929]
    |<r_e - r_h>| [Ang]:            0.283197
    Hole size [Ang]:                1.838076
      Cartesian components [Ang]: [  1.058338,   0.859680,   1.232637]
    Electron size [Ang]:            3.360447
      Cartesian components [Ang]: [  2.596715,   1.314798,   1.679577]

  Transition density matrix analysis:
  -----------------------------------
  
  CT numbers (Mulliken)
    omega =     0.9052
    <Phe> =    -0.0035
  
  Exciton analysis of the transition density matrix
    Trans. dipole moment [D]:             0.000000
      Cartesian components [D]:         [ -0.000000,  -0.000000,   0.000000]
    <r_h> [Ang]:                        [ -0.000000,  -0.000000,  -0.589323]
    <r_e> [Ang]:                        [ -0.000000,   0.000000,  -1.010897]
    |<r_e - r_h>| [Ang]:                  0.421575
    Hole size [Ang]:                      1.255418
      Cartesian components [Ang]:       [  0.757297,   0.861841,   0.509711]
    Electron size [Ang]:                  3.741383
      Cartesian components [Ang]:       [  3.029253,   1.522160,   1.582594]
    RMS electron-hole separation [Ang]:   3.955430
      Cartesian components [Ang]:       [  3.110345,   1.741074,   1.714597]
    Covariance(r_h, r_e) [Ang^2]:         0.053158
    Correlation coefficient:              0.011317
    Center-of-mass size [Ang]:            1.979920
      Cartesian components [Ang]:       [  1.567282,   0.878655,   0.831670]

  Decomposition into state-averaged NTOs
    H- 1 -> L+ 1:  0.6718 ( 90.3%)
                   omega =  90.5%
  ----------------------------------------------------------------------------


  Excited state 6 (singlet, A2)                                    [converged]
  ----------------------------------------------------------------------------
  Term symbol:  6 (1) A2                                    R^2 =  5.81443e-08

  Total energy:                                            -78.5211088673 a.u.
  Excitation energy:                                               7.971175 eV

  Osc. strength:                                                      0.000000
  Trans. dip. moment [a.u.]:           [   0.000000,    0.000000,   -0.000000]
  <i|r^2|0> [a.u.]:                    [  -0.000000,   -0.000000,    0.000000]

  Dip. moment [a.u.]:                  [   0.000000,    0.000000,    1.093598]
  Total dipole [Debye]:                                               2.779650
  <r^2> [a.u.]:                        [  94.560959,   27.515145,  394.528341]
  Total <r^2> [a.u.]:                                               516.604445

  V1^2 = 0.0006, V2^2 = 0.9994

  Important amplitudes:
      occ i      occ j       vir a       vir b          v   
    ---------------------------------------------------------
     5 (A1) A   1 (B2) B    6 (A1) A    4 (B1) B      0.1639
     5 (A1) A   1 (B2) B    4 (B1) A    6 (A1) B      0.1605
    ---------------------------------------------------------

  Density matrix analysis:
  ------------------------
  NOs
    Occupation of frontier NOs:
       0.7495   0.9395
    Number of electrons: 18.000000
    Number of unpaired electrons: n_u =  4.28653, n_u,nl =  4.17100
    NO participation ratio (PR_NO):  5.884593
  
  
  Mulliken Population Analysis
  Atom      Charge (e)              h+              e-           Del q
  --------------------------------------------------------------------
   1 C       -0.587052        0.494024       -0.876260       -0.382236
   2 C       -0.587052        0.494024       -0.876260       -0.382236
   3 H        0.032960        0.003072       -0.061647       -0.058575
   4 H        0.032960        0.003072       -0.061647       -0.058575
   5 H        0.054454        0.002975       -0.061797       -0.058822
   6 H        0.054454        0.002975       -0.061797       -0.058822
   7 H       -0.000722        0.999353       -0.000087        0.999266
  --------------------------------------------------------------------
  Sum:       -1.000000        1.999495       -1.999495        0.000000
  
  Multipole moment analysis of the density matrix
    Molecular charge:                      -1.000000
    Number of electrons:                   18.000000
      Center of electronic charge [Ang]: [ -0.000000,  -0.000000,  -0.032150]
    Total nuclear charge:                  17.000000
      Center of nuclear charge [Ang]:    [ -0.000000,   0.000000,  -0.000000]
    Dipole moment [D]:                     2.779649
      Cartesian components [D]:          [  0.000000,   0.000000,   2.779649]
    RMS size of the density [Ang]:         2.834758
      Cartesian components [Ang]:        [  1.212888,   0.654261,   2.477236]
  
  Exciton analysis of the difference density matrix
    <r_h> [Ang]:                  [  0.000000,   0.000000,   4.409390]
    <r_e> [Ang]:                  [ -0.000000,   0.000000,  -0.571284]
    |<r_e - r_h>| [Ang]:            4.980674
    Hole size [Ang]:                5.138732
      Cartesian components [Ang]: [  0.697263,   0.761465,   5.033941]
    Electron size [Ang]:            3.715578
      Cartesian components [Ang]: [  2.573775,   1.538702,   2.193991]

  Transition density matrix analysis:
  -----------------------------------
  
  CT numbers (Mulliken)
    omega =     0.0006
    <Phe> =    -0.0036
  
  Exciton analysis of the transition density matrix
    Trans. dipole moment [D]:             0.000000
      Cartesian components [D]:         [  0.000000,   0.000000,  -0.000000]
    <r_h> [Ang]:                        [  0.000000,  -0.000000,  -0.571538]
    <r_e> [Ang]:                        [ -0.000000,   0.000000,  -1.042192]
    |<r_e - r_h>| [Ang]:                  0.470654
    Hole size [Ang]:                      1.323998
      Cartesian components [Ang]:       [  0.757123,   0.861267,   0.661780]
    Electron size [Ang]:                  3.723581
      Cartesian components [Ang]:       [  3.011981,   1.519842,   1.575787]
    RMS electron-hole separation [Ang]:   3.965165
      Cartesian components [Ang]:       [  3.093918,   1.738734,   1.768334]
    Covariance(r_h, r_e) [Ang^2]:         0.058502
    Correlation coefficient:              0.011867
    Center-of-mass size [Ang]:            1.983370
      Cartesian components [Ang]:       [  1.558701,   0.877526,   0.856829]

  Decomposition into state-averaged NTOs
                   omega =   0.1%
  ----------------------------------------------------------------------------


  Excited state 7 (singlet, A2)                                    [converged]
  ----------------------------------------------------------------------------
  Term symbol:  7 (1) A2                                    R^2 =  1.67771e-07

  Total energy:                                            -78.5149875109 a.u.
  Excitation energy:                                               8.137746 eV

  Osc. strength:                                                      0.000000
  Trans. dip. moment [a.u.]:           [   0.000000,    0.000000,   -0.000000]
  <i|r^2|0> [a.u.]:                    [  -0.000000,   -0.000000,   -0.000000]

  Dip. moment [a.u.]:                  [   0.000000,   -0.000000,    1.185090]
  Total dipole [Debye]:                                               3.012198
  <r^2> [a.u.]:                        [  97.131119,   27.964290,  395.615557]
  Total <r^2> [a.u.]:                                               520.710966

  V1^2 = 0.0001, V2^2 = 0.9999

  Important amplitudes:
      occ i      occ j       vir a       vir b          v   
    ---------------------------------------------------------
     5 (A1) A   1 (B2) A    6 (A1) A    4 (B1) A      0.2345
     5 (A1) A   1 (B2) A    7 (A1) A    4 (B1) A      0.1205
    ---------------------------------------------------------

  Density matrix analysis:
  ------------------------
  NOs
    Occupation of frontier NOs:
       0.9426   0.9445
    Number of electrons: 18.000000
    Number of unpaired electrons: n_u =  4.28588, n_u,nl =  4.03552
    NO participation ratio (PR_NO):  5.018497
  
  
  Mulliken Population Analysis
  Atom      Charge (e)              h+              e-           Del q
  --------------------------------------------------------------------
   1 C       -0.572692        0.494067       -0.861943       -0.367876
   2 C       -0.572692        0.494067       -0.861943       -0.367876
   3 H        0.027453        0.003031       -0.067112       -0.064082
   4 H        0.027453        0.003031       -0.067112       -0.064082
   5 H        0.045314        0.002935       -0.070896       -0.067961
   6 H        0.045314        0.002935       -0.070896       -0.067961
   7 H       -0.000150        0.999897       -0.000059        0.999838
  --------------------------------------------------------------------
  Sum:       -1.000000        1.999961       -1.999961        0.000000
  
  Multipole moment analysis of the density matrix
    Molecular charge:                      -1.000000
    Number of electrons:                   18.000000
      Center of electronic charge [Ang]: [ -0.000000,   0.000000,  -0.034840]
    Total nuclear charge:                  17.000000
      Center of nuclear charge [Ang]:    [ -0.000000,   0.000000,  -0.000000]
    Dipole moment [D]:                     3.012197
      Cartesian components [D]:          [  0.000000,  -0.000000,   3.012197]
    RMS size of the density [Ang]:         2.845973
      Cartesian components [Ang]:        [  1.229261,   0.659579,   2.480611]
  
  Exciton analysis of the difference density matrix
    <r_h> [Ang]:                  [ -0.000000,   0.000000,   4.410914]
    <r_e> [Ang]:                  [ -0.000000,   0.000000,  -0.592806]
    |<r_e - r_h>| [Ang]:            5.003720
    Hole size [Ang]:                5.138731
      Cartesian components [Ang]: [  0.697186,   0.761447,   5.033954]
    Electron size [Ang]:            3.791607
      Cartesian components [Ang]: [  2.642470,   1.558861,   2.227911]

  Transition density matrix analysis:
  -----------------------------------
  
  CT numbers (Mulliken)
    omega =     0.0001
    <Phe> =    -0.0037
  
  Exciton analysis of the transition density matrix
    Trans. dipole moment [D]:             0.000000
      Cartesian components [D]:         [  0.000000,   0.000000,  -0.000000]
    <r_h> [Ang]:                        [  0.000000,  -0.000000,  -0.505147]
    <r_e> [Ang]:                        [ -0.000000,   0.000000,  -1.155485]
    |<r_e - r_h>| [Ang]:                  0.650337
    Hole size [Ang]:                      1.551511
      Cartesian components [Ang]:       [  0.756303,   0.858430,   1.047993]
    Electron size [Ang]:                  3.652855
      Cartesian components [Ang]:       [  2.947532,   1.508055,   1.543107]
    RMS electron-hole separation [Ang]:   3.998259
      Cartesian components [Ang]:       [  3.031596,   1.726856,   1.952811]
    Covariance(r_h, r_e) [Ang^2]:         0.093700
    Correlation coefficient:              0.016533
    Center-of-mass size [Ang]:            1.996117
      Cartesian components [Ang]:       [  1.527195,   0.871814,   0.944511]

  Decomposition into state-averaged NTOs
                   omega =   0.0%
  ----------------------------------------------------------------------------


  Excited state 8 (singlet, A2)                                    [converged]
  ----------------------------------------------------------------------------
  Term symbol:  8 (1) A2                                    R^2 =  9.72079e-08

  Total energy:                                            -78.5113911016 a.u.
  Excitation energy:                                               8.235609 eV

  Osc. strength:                                                      0.000000
  Trans. dip. moment [a.u.]:           [   0.000000,    0.000000,    0.000000]
  <i|r^2|0> [a.u.]:                    [  -0.000000,   -0.000000,   -0.000000]

  Dip. moment [a.u.]:                  [   0.000000,    0.000000,    1.196120]
  Total dipole [Debye]:                                               3.040234
  <r^2> [a.u.]:                        [  95.217722,   31.590192,  380.632194]
  Total <r^2> [a.u.]:                                               507.440108

  V1^2 = 0.0001, V2^2 = 0.9999

  Important amplitudes:
      occ i      occ j       vir a       vir b          v   
    ---------------------------------------------------------
     5 (A1) A   1 (B2) B    8 (A1) A    4 (B1) B      0.2018
     5 (A1) A   1 (B2) B    4 (B1) A    8 (A1) B      0.1875
    ---------------------------------------------------------

  Density matrix analysis:
  ------------------------
  NOs
    Occupation of frontier NOs:
       0.9017   0.9402
    Number of electrons: 18.000000
    Number of unpaired electrons: n_u =  4.28767, n_u,nl =  4.00867
    NO participation ratio (PR_NO):  5.446798
  
  
  Mulliken Population Analysis
  Atom      Charge (e)              h+              e-           Del q
  --------------------------------------------------------------------
   1 C       -0.719203        0.494046       -1.008434       -0.514387
   2 C       -0.719203        0.494046       -1.008434       -0.514387
   3 H        0.099465        0.003000        0.004930        0.007931
   4 H        0.099465        0.003000        0.004930        0.007931
   5 H        0.119735        0.002916        0.003544        0.006459
   6 H        0.119735        0.002916        0.003544        0.006459
   7 H        0.000005        0.999999       -0.000005        0.999994
  --------------------------------------------------------------------
  Sum:       -1.000000        1.999924       -1.999924       -0.000000
  
  Multipole moment analysis of the density matrix
    Molecular charge:                      -1.000000
    Number of electrons:                   18.000000
      Center of electronic charge [Ang]: [ -0.000000,  -0.000000,  -0.035164]
    Total nuclear charge:                  17.000000
      Center of nuclear charge [Ang]:    [ -0.000000,   0.000000,  -0.000000]
    Dipole moment [D]:                     3.040233
      Cartesian components [D]:          [  0.000000,   0.000000,   3.040233]
    RMS size of the density [Ang]:         2.809463
      Cartesian components [Ang]:        [  1.217093,   0.701037,   2.433169]
  
  Exciton analysis of the difference density matrix
    <r_h> [Ang]:                  [ -0.000000,   0.000000,   4.411533]
    <r_e> [Ang]:                  [ -0.000000,  -0.000000,  -0.595198]
    |<r_e - r_h>| [Ang]:            5.006732
    Hole size [Ang]:                5.138682
      Cartesian components [Ang]: [  0.697096,   0.761425,   5.033919]
    Electron size [Ang]:            3.538309
      Cartesian components [Ang]: [  2.591279,   1.713985,   1.693269]

  Transition density matrix analysis:
  -----------------------------------
  
  CT numbers (Mulliken)
    omega =     0.0001
    <Phe> =    -0.0000
  
  Exciton analysis of the transition density matrix
    Trans. dipole moment [D]:             0.000000
      Cartesian components [D]:         [  0.000000,   0.000000,   0.000000]
    <r_h> [Ang]:                        [ -0.000000,   0.000000,   9.350201]
    <r_e> [Ang]:                        [ -0.000000,   0.000000,  -0.581779]
    |<r_e - r_h>| [Ang]:                  9.931980
    Hole size [Ang]:                      1.364188
      Cartesian components [Ang]:       [  0.645621,   0.646425,   1.013073]
    Electron size [Ang]:                  4.567582
      Cartesian components [Ang]:       [  2.995925,   2.983736,   1.727586]
    RMS electron-hole separation [Ang]:  11.022519
      Cartesian components [Ang]:       [  3.064463,   3.053554,  10.138086]
    Covariance(r_h, r_e) [Ang^2]:        -0.063936
    Correlation coefficient:             -0.010261
    Center-of-mass size [Ang]:            2.376759
      Cartesian components [Ang]:       [  1.532470,   1.526180,   0.985544]

  Decomposition into state-averaged NTOs
                   omega =   0.0%
  ----------------------------------------------------------------------------


  Excited state 9 (singlet, A2)                                    [converged]
  ----------------------------------------------------------------------------
  Term symbol:  9 (1) A2                                    R^2 =  4.88161e-07

  Total energy:                                            -78.4884839307 a.u.
  Excitation energy:                                               8.858945 eV

  Osc. strength:                                                      0.000000
  Trans. dip. moment [a.u.]:           [   0.000000,   -0.000000,   -0.000000]
  <i|r^2|0> [a.u.]:                    [   0.000000,    0.000000,    0.000000]

  Dip. moment [a.u.]:                  [   0.000000,    0.000000,    1.148670]
  Total dipole [Debye]:                                               2.919628
  <r^2> [a.u.]:                        [  80.786664,   41.656396,  375.261093]
  Total <r^2> [a.u.]:                                               497.704152

  V1^2 = 0.1460, V2^2 = 0.8540

  Important amplitudes:
      occ i      occ j       vir a       vir b          v   
    ---------------------------------------------------------
     5 (A1) A               3 (A2) A                  0.2650
     5 (A1) A   1 (B2) A    1 (A2) A    2 (B2) A     -0.1857
    ---------------------------------------------------------

  Density matrix analysis:
  ------------------------
  NOs
    Occupation of frontier NOs:
       0.5582   0.9869
    Number of electrons: 18.000000
    Number of unpaired electrons: n_u =  4.10397, n_u,nl =  3.71490
    NO participation ratio (PR_NO):  6.727418
  
  
  Mulliken Population Analysis
  Atom      Charge (e)              h+              e-           Del q
  --------------------------------------------------------------------
   1 C       -0.680195        0.424027       -0.899406       -0.475379
   2 C       -0.680195        0.424027       -0.899406       -0.475379
   3 H        0.080888        0.002680       -0.013326       -0.010646
   4 H        0.080888        0.002680       -0.013326       -0.010646
   5 H        0.099304        0.001435       -0.015407       -0.013972
   6 H        0.099304        0.001435       -0.015407       -0.013972
   7 H        0.000005        1.004780       -0.004786        0.999994
  --------------------------------------------------------------------
  Sum:       -1.000000        1.861064       -1.861064        0.000000
  
  Multipole moment analysis of the density matrix
    Molecular charge:                      -1.000000
    Number of electrons:                   18.000000
      Center of electronic charge [Ang]: [ -0.000000,  -0.000000,  -0.033769]
    Total nuclear charge:                  17.000000
      Center of nuclear charge [Ang]:    [ -0.000000,   0.000000,  -0.000000]
    Dipole moment [D]:                     2.919627
      Cartesian components [D]:          [  0.000000,   0.000000,   2.919627]
    RMS size of the density [Ang]:         2.782393
      Cartesian components [Ang]:        [  1.121075,   0.805018,   2.415957]
  
  Exciton analysis of the difference density matrix
    <r_h> [Ang]:                  [  0.000000,   0.000000,   4.809935]
    <r_e> [Ang]:                  [ -0.000000,   0.000000,  -0.556872]
    |<r_e - r_h>| [Ang]:            5.366807
    Hole size [Ang]:                5.124025
      Cartesian components [Ang]: [  0.704221,   0.747233,   5.020094]
    Electron size [Ang]:            3.487193
      Cartesian components [Ang]: [  2.240104,   2.146369,   1.592341]

  Transition density matrix analysis:
  -----------------------------------
  
  CT numbers (Mulliken)
    omega =     0.1447
    <Phe> =     0.0000
  
  Exciton analysis of the transition density matrix
    Trans. dipole moment [D]:             0.000000
      Cartesian components [D]:         [  0.000000,  -0.000000,  -0.000000]
    <r_h> [Ang]:                        [ -0.000000,   0.000000,   9.411642]
    <r_e> [Ang]:                        [ -0.000000,  -0.000000,  -0.588201]
    |<r_e - r_h>| [Ang]:                  9.999843
    Hole size [Ang]:                      1.113917
      Cartesian components [Ang]:       [  0.642895,   0.642894,   0.643571]
    Electron size [Ang]:                  3.226461
      Cartesian components [Ang]:       [  2.121690,   2.104909,   1.215663]
    RMS electron-hole separation [Ang]:  10.566349
      Cartesian components [Ang]:       [  2.216951,   2.200895,  10.094004]
    Covariance(r_h, r_e) [Ang^2]:        -0.000010
    Correlation coefficient:             -0.000003
    Center-of-mass size [Ang]:            1.706666
      Cartesian components [Ang]:       [  1.108478,   1.100451,   0.687744]

  Decomposition into state-averaged NTOs
    H- 0 -> L+ 3:  0.2661 ( 14.2%)
                   omega =  14.5%
  ----------------------------------------------------------------------------


  Excited state 10 (singlet, A2)                                    [converged]
  ----------------------------------------------------------------------------
  Term symbol:  10 (1) A2                                   R^2 =  7.36090e-06

  Total energy:                                            -78.4829015646 a.u.
  Excitation energy:                                               9.010849 eV

  Osc. strength:                                                      0.000000
  Trans. dip. moment [a.u.]:           [   0.000000,    0.000000,    0.000000]
  <i|r^2|0> [a.u.]:                    [   0.000000,   -0.000000,   -0.000000]

  Dip. moment [a.u.]:                  [   0.000000,   -0.000000,    1.122435]
  Total dipole [Debye]:                                               2.852945
  <r^2> [a.u.]:                        [  92.479292,   31.363070,  389.953311]
  Total <r^2> [a.u.]:                                               513.795673

  V1^2 = 0.0428, V2^2 = 0.9572

  Important amplitudes:
      occ i      occ j       vir a       vir b          v   
    ---------------------------------------------------------
     5 (A1) A   1 (B2) A    8 (A1) A    4 (B1) A      0.1537
     5 (A1) A               3 (A2) A                 -0.1442
    ---------------------------------------------------------

  Density matrix analysis:
  ------------------------
  NOs
    Occupation of frontier NOs:
       0.4041   0.9881
    Number of electrons: 18.000000
    Number of unpaired electrons: n_u =  4.30653, n_u,nl =  3.83431
    NO participation ratio (PR_NO):  6.991641
  
  
  Mulliken Population Analysis
  Atom      Charge (e)              h+              e-           Del q
  --------------------------------------------------------------------
   1 C       -0.582179        0.472633       -0.849997       -0.377364
   2 C       -0.582179        0.472633       -0.849997       -0.377364
   3 H        0.030590        0.003216       -0.064160       -0.060945
   4 H        0.030590        0.003216       -0.064160       -0.060945
   5 H        0.051593        0.002796       -0.064479       -0.061683
   6 H        0.051593        0.002796       -0.064479       -0.061683
   7 H       -0.000006        1.001241       -0.001259        0.999982
  --------------------------------------------------------------------
  Sum:       -1.000000        1.958531       -1.958531        0.000000
  
  Multipole moment analysis of the density matrix
    Molecular charge:                      -1.000000
    Number of electrons:                   18.000000
      Center of electronic charge [Ang]: [ -0.000000,   0.000000,  -0.032998]
    Total nuclear charge:                  17.000000
      Center of nuclear charge [Ang]:    [ -0.000000,   0.000000,  -0.000000]
    Dipole moment [D]:                     2.852944
      Cartesian components [D]:          [  0.000000,  -0.000000,   2.852944]
    RMS size of the density [Ang]:         2.827031
      Cartesian components [Ang]:        [  1.199464,   0.698512,   2.462817]
  
  Exciton analysis of the difference density matrix
    <r_h> [Ang]:                  [  0.000000,   0.000000,   4.523418]
    <r_e> [Ang]:                  [ -0.000000,   0.000000,  -0.569220]
    |<r_e - r_h>| [Ang]:            5.092638
    Hole size [Ang]:                5.137672
      Cartesian components [Ang]: [  0.699318,   0.756763,   5.033283]
    Electron size [Ang]:            3.708179
      Cartesian components [Ang]: [  2.541247,   1.716983,   2.084376]

  Transition density matrix analysis:
  -----------------------------------
  
  CT numbers (Mulliken)
    omega =     0.0424
    <Phe> =    -0.0000
  
  Exciton analysis of the transition density matrix
    Trans. dipole moment [D]:             0.000000
      Cartesian components [D]:         [  0.000000,   0.000000,   0.000000]
    <r_h> [Ang]:                        [ -0.000000,   0.000000,   9.406256]
    <r_e> [Ang]:                        [ -0.000000,  -0.000000,  -0.587972]
    |<r_e - r_h>| [Ang]:                  9.994228
    Hole size [Ang]:                      1.137911
      Cartesian components [Ang]:       [  0.642967,   0.643039,   0.684059]
    Electron size [Ang]:                  3.127316
      Cartesian components [Ang]:       [  2.058138,   2.038393,   1.178611]
    RMS electron-hole separation [Ang]:  10.533942
      Cartesian components [Ang]:       [  2.156220,   2.137406,  10.086930]
    Covariance(r_h, r_e) [Ang^2]:        -0.002202
    Correlation coefficient:             -0.000619
    Center-of-mass size [Ang]:            1.663621
      Cartesian components [Ang]:       [  1.078123,   1.068712,   0.680545]

  Decomposition into state-averaged NTOs
    H- 0 -> L+ 3: -0.1448 (  4.2%)
                   omega =   4.2%
  ----------------------------------------------------------------------------


--------------------------------------------------------------------------------
  Time of ADC calculation:  CPU 517.88 s  wall 122.64 s
================================================================================
 
 --------------------------------------------------------------
             Orbital Energies (a.u.) and Symmetries
 --------------------------------------------------------------
 
 Alpha MOs, Restricted
 -- Occupied --                  
-11.184 -11.182  -0.989  -0.729  -0.607  -0.514  -0.462  -0.324
  1 A1    1 B1    2 A1    2 B1    3 A1    4 A1    3 B1    1 B2                 
  0.022
  5 A1                                                                         
 -- Virtual --                   
  0.115   0.130   0.138   0.138   0.144   0.160   0.185   0.227
  4 B1    6 A1    7 A1    2 B2    1 A2    5 B1    8 A1    2 A2                 
  0.258   0.315   0.355   0.361   0.375   0.385   0.387   0.396
  6 B1    9 A1   10 A1    7 B1   11 A1    3 B2    8 B1   12 A1                 
  0.423   0.466   0.607   0.664   0.882   0.907   0.981   0.987
  9 B1    3 A2   10 B1   11 B1   13 A1   14 A1   15 A1   12 B1                 
  1.058   1.062   1.084   1.100   1.135   1.167   1.177   1.178
 16 A1   17 A1   13 B1   18 A1    4 B2    5 B2   14 B1    4 A2                 
  1.326   1.337   1.341   1.478   1.672   1.706   1.779   1.925
 15 B1    5 A2    6 B2   16 B1   19 A1   17 B1   20 A1    6 A2                 
  1.967   1.967   1.967   1.996   2.009   2.070   2.114   2.144
 21 A1   18 B1    7 B2    8 B2   19 B1    9 B2   22 A1   23 A1                 
  2.233   2.380   2.465   2.521   2.630   2.632   2.878   2.885
  7 A2   20 B1    8 A2   24 A1   21 B1   22 B1   25 A1   26 A1                 
  3.310   3.393
 23 B1   24 B1                                                                 
 
 Beta MOs, Restricted
 -- Occupied --                  
-11.184 -11.182  -0.989  -0.729  -0.607  -0.514  -0.462  -0.324
  1 A1    1 B1    2 A1    2 B1    3 A1    4 A1    3 B1    1 B2                 
  0.022
  5 A1                                                                         
 -- Virtual --                   
  0.115   0.130   0.138   0.138   0.144   0.160   0.185   0.227
  4 B1    6 A1    7 A1    2 B2    1 A2    5 B1    8 A1    2 A2                 
  0.258   0.315   0.355   0.361   0.375   0.385   0.387   0.396
  6 B1    9 A1   10 A1    7 B1   11 A1    3 B2    8 B1   12 A1                 
  0.423   0.466   0.607   0.664   0.882   0.907   0.981   0.987
  9 B1    3 A2   10 B1   11 B1   13 A1   14 A1   15 A1   12 B1                 
  1.058   1.062   1.084   1.100   1.135   1.167   1.177   1.178
 16 A1   17 A1   13 B1   18 A1    4 B2    5 B2   14 B1    4 A2                 
  1.326   1.337   1.341   1.478   1.672   1.706   1.779   1.925
 15 B1    5 A2    6 B2   16 B1   19 A1   17 B1   20 A1    6 A2                 
  1.967   1.967   1.967   1.996   2.009   2.070   2.114   2.144
 21 A1   18 B1    7 B2    8 B2   19 B1    9 B2   22 A1   23 A1                 
  2.233   2.380   2.465   2.521   2.630   2.632   2.878   2.885
  7 A2   20 B1    8 A2   24 A1   21 B1   22 B1   25 A1   26 A1                 
  3.310   3.393
 23 B1   24 B1                                                                 
 --------------------------------------------------------------
 
          Ground-State Mulliken Net Atomic Charges

     Atom                 Charge (a.u.)
  ----------------------------------------
      1 C                    -0.189882
      2 C                    -0.189882
      3 H                     0.084054
      4 H                     0.084054
      5 H                     0.105822
      6 H                     0.105822
      7 H                    -0.999989
  ----------------------------------------
  Sum of atomic charges =    -1.000000

 -----------------------------------------------------------------
                    Cartesian Multipole Moments
 -----------------------------------------------------------------
    Charge (ESU x 10^10)
                -4.8032
    Dipole Moment (Debye)
         X       0.0000      Y      -0.0000      Z     -45.0564
       Tot      45.0564
    Quadrupole Moments (Debye-Ang)
        XX     -16.8861     XY      -0.0000     YY     -20.0973
        XZ      -0.0000     YZ      -0.0000     ZZ    -441.5427
    Octopole Moments (Debye-Ang^2)
       XXX       0.0000    XXY      -0.0000    XYY       0.0000
       YYY      -0.0000    XXZ     -29.3511    XYZ       0.0000
       YYZ     -27.6606    XZZ       0.0000    YZZ      -0.0000
       ZZZ   -4094.4092
    Hexadecapole Moments (Debye-Ang^3)
      XXXX     -74.1007   XXXY       0.0000   XXYY     -17.5977
      XYYY      -0.0000   YYYY     -27.6413   XXXZ      -0.0000
      XXYZ      -0.0000   XYYZ      -0.0000   YYYZ      -0.0000
      XXZZ    -370.1863   XYZZ      -0.0000   YYZZ    -366.8740
      XZZZ       0.0000   YZZZ      -0.0000   ZZZZ  -39848.1757
 -----------------------------------------------------------------
 Total job time:  205.37s(wall), 562.17s(cpu) 
 Mon Mar 28 20:33:02 2022

        *************************************************************
        *                                                           *
        *  Thank you very much for using Q-Chem.  Have a nice day.  *
        *                                                           *
        *************************************************************


