/src/tsommerfeld/qchem/exe/qcprog.exe .input1.305556.6788.qcin.1 /src/jdavis/qchem.scratch/qchem6788/

                  Welcome to Q-Chem
     A Quantum Leap Into The Future Of Chemistry


 Q-Chem 5.4 (devel), Q-Chem, Inc., Pleasanton, CA (2021)

 E. Epifanovsky,  A. T. B. Gilbert,  Xintian Feng,  Joonho Lee,  Yuezhi Mao,  
 N. Mardirossian,  P. Pokhilko,  A. White,  M. Wormit,  M. P. Coons,  
 A. L. Dempwolff,  Zhengting Gan,  D. Hait,  P. R. Horn,  L. D. Jacobson,  
 I. Kaliman,  J. Kussmann,  A. W. Lange,  Ka Un Lao,  D. S. Levine,  Jie Liu,  
 S. C. McKenzie,  A. F. Morrison,  K. Nanda,  F. Plasser,  D. R. Rehn,  
 M. L. Vidal,  Zhi-Qiang You,  Ying Zhu,  B. Alam,  B. Albrecht,  
 A. Aldossary,  E. Alguire,  J. H. Andersen,  D. Barton,  K. Begam,  A. Behn,  
 Y. A. Bernard,  E. J. Berquist,  H. Burton,  A. Carreras,  K. Carter-Fenk,  
 R. Chakraborty,  A. D. Chien,  K. D. Closser,  V. Cofer-Shabica,  
 S. Dasgupta,  Jia Deng,  M. de Wergifosse,  M. Diedenhofen,  Hainam Do,  
 S. Ehlert,  Po-Tung Fang,  S. Fatehi,  Qingguo Feng,  T. Friedhoff,  
 J. Gayvert,  Qinghui Ge,  G. Gidofalvi,  M. Goldey,  J. Gomes,  
 C. Gonzalez-Espinoza,  S. Gulania,  A. Gunina,  M. W. D. Hanson-Heine,  
 P. H. P. Harbach,  A. W. Hauser,  M. F. Herbst,  M. Hernandez Vera,  
 M. Hodecker,  Z. C. Holden,  S. Houck,  Xunkun Huang,  Kerwin Hui,  
 B. C. Huynh,  M. Ivanov,  Hyunjun Ji,  Hanjie Jiang,  B. Kaduk,  S. Kaehler,  
 K. Khistyaev,  Jaehoon Kim,  P. Klunzinger,  Z. Koczor-Benda,  
 Joong Hoon Koh,  D. Kosenkov,  L. Koulias,  T. Kowalczyk,  C. M. Krauter,  
 K. Kue,  A. Kunitsa,  T. Kus,  A. Landau,  K. V. Lawler,  D. Lefrancois,  
 S. Lehtola,  Rain Li,  Yi-Pei Li,  Jiashu Liang,  M. Liebenthal,  
 Hung-Hsuan Lin,  You-Sheng Lin,  Fenglai Liu,  Kuan-Yu Liu,  
 M. Loipersberger,  A. Luenser,  A. Manjanath,  P. Manohar,  E. Mansoor,  
 S. F. Manzer,  Shan-Ping Mao,  A. V. Marenich,  T. Markovich,  S. Mason,  
 S. A. Maurer,  P. F. McLaughlin,  M. F. S. J. Menger,  J.-M. Mewes,  
 S. A. Mewes,  P. Morgante,  J. W. Mullinax,  K. J. Oosterbaan,  G. Paran,  
 Alexander C. Paul,  Suranjan K. Paul,  F. Pavosevic,  Zheng Pei,  S. Prager,  
 E. I. Proynov,  E. Ramos,  B. Rana,  A. E. Rask,  A. Rettig,  R. M. Richard,  
 F. Rob,  E. Rossomme,  T. Scheele,  M. Scheurer,  M. Schneider,  
 N. Sergueev,  S. M. Sharada,  W. Skomorowski,  D. W. Small,  C. J. Stein,  
 Yu-Chuan Su,  E. J. Sundstrom,  Zhen Tao,  J. Thirman,  T. Tsuchimochi,  
 N. M. Tubman,  S. P. Veccham,  O. Vydrov,  J. Wenzel,  J. Witte,  A. Yamada,  
 Kun Yao,  S. Yeganeh,  S. R. Yost,  A. Zech,  Igor Ying Zhang,  Xing Zhang,  
 Yu Zhang,  D. Zuev,  A. Aspuru-Guzik,  A. T. Bell,  N. A. Besley,  
 K. B. Bravaya,  B. R. Brooks,  D. Casanova,  Jeng-Da Chai,  S. Coriani,  
 C. J. Cramer,  A. E. DePrince, III,  R. A. DiStasio Jr.,  A. Dreuw,  
 B. D. Dunietz,  T. R. Furlani,  W. A. Goddard III,  S. Grimme,  
 S. Hammes-Schiffer,  T. Head-Gordon,  W. J. Hehre,  Chao-Ping Hsu,  
 T.-C. Jagau,  Yousung Jung,  A. Klamt,  Jing Kong,  D. S. Lambrecht,  
 WanZhen Liang,  N. J. Mayhall,  C. W. McCurdy,  J. B. Neaton,  
 C. Ochsenfeld,  J. A. Parkhill,  R. Peverati,  V. A. Rassolov,  Yihan Shao,  
 L. V. Slipchenko,  T. Stauch,  R. P. Steele,  J. E. Subotnik,  
 A. J. W. Thom,  A. Tkatchenko,  D. G. Truhlar,  T. Van Voorhis,  
 T. A. Wesolowski,  K. B. Whaley,  H. L. Woodcock III,  P. M. Zimmerman,  
 S. Faraji,  P. M. W. Gill,  M. Head-Gordon,  J. M. Herbert,  A. I. Krylov

 Additional authors for Version 5.4.1: 
 S. Kotaru,  Shaozhi Li,  Xiangyuan Li,  F. Matz,  A. Molle,  Haisheng Ren,  
 Yingli Su,  Hung-Yi Tsai,  C. Utku,  Fang Wang

 Contributors to earlier versions of Q-Chem not listed above: 
 R. D. Adamson,  B. Austin,  R. Baer,  J. Baker,  G. J. O. Beran,  
 K. Brandhorst,  S. T. Brown,  E. F. C. Byrd,  A. K. Chakraborty,  
 G. K. L. Chan,  Chun-Min Chang,  Yunqing Chen,  C.-L. Cheng,  
 Siu Hung Chien,  D. M. Chipman,  D. L. Crittenden,  H. Dachsel,  
 R. J. Doerksen,  A. D. Dutoi,  R. G. Edgar,  J. Fosso-Tande,  
 L. Fusti-Molnar,  D. Ghosh,  A. Ghysels,  A. Golubeva-Zadorozhnaya,  
 J. Gonthier,  M. S. Gordon,  S. R. Gwaltney,  G. Hawkins,  J. E. Herr,  
 A. Heyden,  S. Hirata,  E. G. Hohenstein,  G. Kedziora,  F. J. Keil,  
 C. Kelley,  Jihan Kim,  R. A. King,  R. Z. Khaliullin,  P. P. Korambath,  
 W. Kurlancheek,  A. Laurent,  A. M. Lee,  M. S. Lee,  S. V. Levchenko,  
 Ching Yeh Lin,  D. Liotard,  E. Livshits,  R. C. Lochan,  I. Lotan,  
 L. A. Martinez-Martinez,  P. E. Maslen,  N. Nair,  D. P. O'Neill,  
 D. Neuhauser,  E. Neuscamman,  C. M. Oana,  R. Olivares-Amaya,  R. Olson,  
 T. M. Perrine,  B. Peters,  P. A. Pieniazek,  A. Prociuk,  Y. M. Rhee,  
 J. Ritchie,  M. A. Rohrdanz,  E. Rosta,  N. J. Russ,  H. F. Schaefer III,  
 M. W. Schmidt,  N. E. Schultz,  S. Sharma,  N. Shenvi,  C. D. Sherrill,  
 A. C. Simmonett,  A. Sodt,  T. Stein,  D. Stuck,  K. S. Thanthiriwatte,  
 V. Vanovschi,  L. Vogt,  Tao Wang,  A. Warshel,  M. A. Watson,  
 C. F. Williams,  Q. Wu,  X. Xu,  Jun Yang,  W. Zhang,  Yan Zhao

 Please cite Q-Chem as follows:
 Y. Shao et al., Mol. Phys. 113, 184-215 (2015)
 DOI: 10.1080/00268976.2014.952696

 Q-Chem 5.4.1 for Intel X86 EM64T Linux

 Parts of Q-Chem use Armadillo 9.900.5 (Nocturnal Misbehaviour).
 http://arma.sourceforge.net/

 Q-Chem begins on Fri Mar 25 17:40:29 2022  

 Host: node01
0

     Scratch files written to /src/jdavis/qchem.scratch/qchem6788//
 Processing $rem in /src/tsommerfeld/qchem/config/preferences:
 Processing $rem in /home/jdavis/.qchemrc:

 Checking the input file for inconsistencies... 	...done.

--------------------------------------------------------------
User input:
--------------------------------------------------------------
$molecule
-1 1
C         0.0000000000    0.0000000000    0.8417902907
C         0.0000000000    0.0000000000   -0.4872097093
H         0.9623488518    0.0000000000    1.3363703127
H         0.9623489048    0.0000000000   -0.9817896873
H        -0.9623488518    0.0000000000    1.3363703127
H        -0.9623489048    0.0000000000   -0.9817896873
H         0.0000000000    0.0000000000   -10.4872097093
$end

$rem
   METHOD adc(2)
   BASIS gen
   PURECART 11
   EE_STATES [0,0,0,10]
   scf_convergence 8
   ADC_DAVIDSON_MAXITER 120
   ADC_DAVIDSON_MAXSUBSPACE 200
   adc_nguess_singles 100
   THRESH 14
   S2THRESH 14
   adc_davidson_conv 5
   adc_davidson_thresh 14
   THREADS 10
   MEM_TOTAL 95000
   STATE_ANALYSIS TRUE
$end
$basis
C 1
S   9   1.00
      6.665000D+03           6.920000D-04
      1.000000D+03           5.329000D-03
      2.280000D+02           2.707700D-02
      6.471000D+01           1.017180D-01
      2.106000D+01           2.747400D-01
      7.495000D+00           4.485640D-01
      2.797000D+00           2.850740D-01
      5.215000D-01           1.520400D-02
      1.596000D-01          -3.191000D-03
S   9   1.00
      6.665000D+03          -1.460000D-04
      1.000000D+03          -1.154000D-03
      2.280000D+02          -5.725000D-03
      6.471000D+01          -2.331200D-02
      2.106000D+01          -6.395500D-02
      7.495000D+00          -1.499810D-01
      2.797000D+00          -1.272620D-01
      5.215000D-01           5.445290D-01
      1.596000D-01           5.804960D-01
S   1   1.00
      1.596000D-01           1.000000D+00
S   1   1.00
      0.0469000              1.0000000
P   4   1.00
      9.439000D+00           3.810900D-02
      2.002000D+00           2.094800D-01
      5.456000D-01           5.085570D-01
      1.517000D-01           4.688420D-01
P   1   1.00
      1.517000D-01           1.000000D+00
P   1   1.00
      0.0792211      1.0000000
P   1   1.00
      0.0396106      1.0000000
D   1   1.00
      5.500000D-01           1.0000000
****
C 2
S   9   1.00
      6.665000D+03           6.920000D-04
      1.000000D+03           5.329000D-03
      2.280000D+02           2.707700D-02
      6.471000D+01           1.017180D-01
      2.106000D+01           2.747400D-01
      7.495000D+00           4.485640D-01
      2.797000D+00           2.850740D-01
      5.215000D-01           1.520400D-02
      1.596000D-01          -3.191000D-03
S   9   1.00
      6.665000D+03          -1.460000D-04
      1.000000D+03          -1.154000D-03
      2.280000D+02          -5.725000D-03
      6.471000D+01          -2.331200D-02
      2.106000D+01          -6.395500D-02
      7.495000D+00          -1.499810D-01
      2.797000D+00          -1.272620D-01
      5.215000D-01           5.445290D-01
      1.596000D-01           5.804960D-01
S   1   1.00
      1.596000D-01           1.000000D+00
S   1   1.00
      0.0469000              1.0000000
P   4   1.00
      9.439000D+00           3.810900D-02
      2.002000D+00           2.094800D-01
      5.456000D-01           5.085570D-01
      1.517000D-01           4.688420D-01
P   1   1.00
      1.517000D-01           1.000000D+00
P   1   1.00
      0.0792211      1.0000000
P   1   1.00
      0.0396106      1.0000000
D   1   1.00
      5.500000D-01           1.0000000
****
H 3
cc-pVDZ
****
H 4
cc-pVDZ
****
H 5
cc-pVDZ
****
H 6
cc-pVDZ
****
H 7
aug-cc-pVDZ
****
$end
--------------------------------------------------------------
 ----------------------------------------------------------------
             Standard Nuclear Orientation (Angstroms)
    I     Atom           X                Y                Z
 ----------------------------------------------------------------
    1      C       0.0000000000     0.0000000000     1.2918235242
    2      C       0.0000000000     0.0000000000    -0.0371764758
    3      H       0.9623488518     0.0000000000     1.7864035462
    4      H       0.9623489048     0.0000000000    -0.5317564538
    5      H      -0.9623488518     0.0000000000     1.7864035462
    6      H      -0.9623489048     0.0000000000    -0.5317564538
    7      H       0.0000000000     0.0000000000   -10.0371764758
 ----------------------------------------------------------------
 Molecular Point Group                 C2v   NOp =  4
 Largest Abelian Subgroup              C2v   NOp =  4
 Nuclear Repulsion Energy =          34.38697142 hartrees
 There are        9 alpha and        9 beta electrons
 Requested basis set is non-standard
 There are 33 shells and 67 basis functions
 Total memory of 95000 MB is distributed as follows: 
   MEM_STATIC is set to 192 MB
   QALLOC/CCMAN JOB total memory use is  94808 MB
 Warning: actual memory use might exceed 95000 MB

 Total QAlloc Memory Limit  95000 MB
 Mega-Array Size       188 MB
 MEM_STATIC part       192 MB

                       Distance Matrix (Angstroms)
             C (  1)   C (  2)   H (  3)   H (  4)   H (  5)   H (  6)
   C (  2)  1.329000
   H (  3)  1.082000  2.061931
   H (  4)  2.061931  1.082000  2.318160
   H (  5)  1.082000  2.061931  1.924698  3.013026
   H (  6)  2.061931  1.082000  3.013026  1.924698  2.318160
   H (  7) 11.329000 10.000000 11.862679  9.554011 11.862679  9.554011

 
 A cutoff of  1.0D-14 yielded    493 shell pairs
 There are      2095 function pairs (      2232 Cartesian)
 Smallest overlap matrix eigenvalue = 2.41E-04

 Scale SEOQF with 1.000000e-01/1.000000e-01/1.000000e-02

 Standard Electronic Orientation quadrupole field applied
 Nucleus-field energy     =    -0.0000000011 hartrees
 ================ Generating on-the-fly SAD Guess ================
Attempting to make child job directory: /src/jdavis/qchem.scratch/qchem6788//Frg1/
Attempting to make child job directory: /src/jdavis/qchem.scratch/qchem6788//Frg2/
Creating input file /src/jdavis/qchem.scratch/qchem6788/Frg1.input
using default PutDataFrgm: nothing
calling putenv with: QCSCRATCH=/src/jdavis/qchem.scratch/qchem6788/ 
Spawning Job For Fragment 0
Done Job For Fragment 0
calling putenv with: QCSCRATCH=/src/jdavis/qchem.scratch 
calling putenv with: QCTHREADS=1 
Creating input file /src/jdavis/qchem.scratch/qchem6788/Frg2.input
using default PutDataFrgm: nothing
calling putenv with: QCSCRATCH=/src/jdavis/qchem.scratch/qchem6788/ 
Spawning Job For Fragment 1
Done Job For Fragment 1
calling putenv with: QCSCRATCH=/src/jdavis/qchem.scratch 
calling putenv with: QCTHREADS=1 
 Time for running child jobs:  CPU 1.76 s  wall 54.34 s
 ============= Method Specific SAD Guess Constructed =============
 Guess from on-the-fly superposition of atomic densities
 Warning: Energy on first SCF cycle will be non-variational
 A restricted Hartree-Fock SCF calculation will be
 performed using Pulay DIIS extrapolation
 SCF converges when DIIS error is below 1.0E-08
 using 10 threads for integral computing
 -------------------------------------------------------
 OpenMP Integral computing Module                
 Release: version 1.0, May 2013, Q-Chem Inc. Pittsburgh 
 -------------------------------------------------------
 ---------------------------------------
  Cycle       Energy         DIIS Error
 ---------------------------------------
    1     -78.8012775572      7.36E-02
    2     -78.4467387998      6.48E-03
    3     -78.4846783573      1.48E-03
    4     -78.4866158928      4.80E-04
    5     -78.4867917373      7.71E-05
    6     -78.4868000359      1.81E-05
    7     -78.4868005026      8.83E-06
    8     -78.4868005982      1.72E-06
    9     -78.4868006048      5.59E-07
   10     -78.4868006054      1.15E-07
   11     -78.4868006054      1.19E-08
   12     -78.4868006054      1.53E-09 Convergence criterion met
 ---------------------------------------
 SCF time:  CPU 11.62 s  wall 1.17 s
 SCF   energy in the final basis set = -78.48680061
 Total energy in the final basis set = -78.48680061
================================================================================
|                                                                              |
|                                 A D C  M A N                                 |
|                                                                              |
 ------------------------------------------------------------------------------ 
|                                                                              |
| Components:                                                                  |
|                                                                              |
| - libvmm - 1.3-trunk                                                         |
|   Authors:                                                                   |
|   Evgeny Epifanovsky, Ilya Kaliman                                           |
|                                                                              |
| - libtensor - 2.5-trunk                                                      |
|   Authors:                                                                   |
|   Evgeny Epifanovsky, Michael Wormit, Dmitry Zuev, Sam Manzer,               |
|   Ilya Kaliman                                                               |
|                                                                              |
| - libwfa - 1.1-trunk                                                         |
|   Authors:                                                                   |
|   Felix Plasser, Stefanie Mewes (Baeppler), Benjamin Thomitzni,              |
|   Michael Wormit, Feng Chen, Anna I. Krylov, Pavel Pokhilko                  |
|                                                                              |
| - libadc - 1.1-trunk                                                         |
|   Authors:                                                                   |
|   Michael Wormit, Adrian L. Dempwolff, Philipp H. P. Harbach,                |
|   Caroline Krauter, Dirk Rehn, Matthias Schneider, Jan Wenzel                |
|                                                                              |
| - adcman - 2.6-trunk                                                         |
|   Authors:                                                                   |
|   Michael Wormit, Adrian L. Dempwolff, Philipp H. P. Harbach,                |
|   Caroline Krauter, Daniel Lefrancois, Jan-Michael Mewes, Dirk Rehn,         |
|   Matthias Schneider, Jan Wenzel, Andreas Dreuw                              |
|                                                                              |
| Authors of earlier versions of ADCMAN:                                       |
| Andreas Dreuw, Jan Hendrik Starcke, Dirk Rehn, Michael Wormit                |
|                                                                              |
================================================================================

 
 Alpha MOs, Restricted
 -- Occupied --                  
-11.187 -11.185  -0.992  -0.732  -0.610  -0.517  -0.465  -0.327
  1 A1    2 A1    3 A1    4 A1    1 B1    5 A1    2 B1    1 B2                 
  0.022
  6 A1                                                                         
 -- Virtual --                   
  0.115   0.129   0.138   0.148   0.150   0.164   0.187   0.232
  7 A1    3 B1    2 B2    8 A1    3 B2    4 B1    9 A1    4 B2                 
  0.264   0.312   0.362   0.366   0.394   0.397   0.401   0.410
 10 A1   11 A1    5 B1   12 A1   13 A1    6 B1    5 B2    7 B1                 
  0.420   0.486   0.602   0.666   0.883   0.902   0.985   1.001
 14 A1    6 B2    8 B1   15 A1   16 A1    9 B1   17 A1   18 A1                 
  1.058   1.074   1.090   1.104   1.162   1.164   1.186   1.206
 19 A1   10 B1   11 B1   20 A1    7 B2    1 A2   21 A1    8 B2                 
  1.333   1.334   1.340   1.496   1.671   1.724   1.780   1.924
 22 A1    2 A2    9 B2   12 B1   23 A1   13 B1   14 B1   10 B2                 
  1.967   1.967   1.967   1.994   2.011   2.067   2.120   2.145
 24 A1   15 B1   11 B2   12 B2   25 A1    3 A2   26 A1   16 B1                 
  2.231   2.380   2.462   2.522   2.622   2.629   2.885   2.890
 13 B2   27 A1    4 A2   28 A1   17 B1   29 A1   18 B1   30 A1                 
  3.313   3.392
 31 A1   19 B1                                                                 
 
 Beta MOs, Restricted
 -- Occupied --                  
-11.187 -11.185  -0.992  -0.732  -0.610  -0.517  -0.465  -0.327
  1 A1    2 A1    3 A1    4 A1    1 B1    5 A1    2 B1    1 B2                 
  0.022
  6 A1                                                                         
 -- Virtual --                   
  0.115   0.129   0.138   0.148   0.150   0.164   0.187   0.232
  7 A1    3 B1    2 B2    8 A1    3 B2    4 B1    9 A1    4 B2                 
  0.264   0.312   0.362   0.366   0.394   0.397   0.401   0.410
 10 A1   11 A1    5 B1   12 A1   13 A1    6 B1    5 B2    7 B1                 
  0.420   0.486   0.602   0.666   0.883   0.902   0.985   1.001
 14 A1    6 B2    8 B1   15 A1   16 A1    9 B1   17 A1   18 A1                 
  1.058   1.074   1.090   1.104   1.162   1.164   1.186   1.206
 19 A1   10 B1   11 B1   20 A1    7 B2    1 A2   21 A1    8 B2                 
  1.333   1.334   1.340   1.496   1.671   1.724   1.780   1.924
 22 A1    2 A2    9 B2   12 B1   23 A1   13 B1   14 B1   10 B2                 
  1.967   1.967   1.967   1.994   2.011   2.067   2.120   2.145
 24 A1   15 B1   11 B2   12 B2   25 A1    3 A2   26 A1   16 B1                 
  2.231   2.380   2.462   2.522   2.622   2.629   2.885   2.890
 13 B2   27 A1    4 A2   28 A1   17 B1   29 A1   18 B1   30 A1                 
  3.313   3.392
 31 A1   19 B1                                                                 

--------------------------------------------------------------------------------
                                   HF Summary                                   
--------------------------------------------------------------------------------
  Energy:                                                  -78.4868006054 a.u.
  Dip. moment [a.u.]:                  [   0.000000,   -0.000000,   18.881072]
  Total dipole [Debye]:                                              47.990908
  <r^2> [a.u.]:                        [  25.064064,   14.947451,  792.851288]
  Total <r^2> [a.u.]:                                               832.862803
--------------------------------------------------------------------------------

--------------------------------------------------------------------------------
                                 MP(2) Summary                                  
--------------------------------------------------------------------------------
  MP energy contribution:                                   -0.2991788553 a.u.
  Total energy:                                            -78.7859794607 a.u.
  Dip. moment [a.u.]:                  [  -0.000000,   -0.000000,   18.886854]
  Total dipole [Debye]:                                              48.005603
  <r^2> [a.u.]:                        [  25.051898,   14.755200,  792.901148]
  Total <r^2> [a.u.]:                                               832.708246

  Density matrix analysis:
  ------------------------
  NOs
    Occupation of frontier NOs:
       0.0447   1.9371
    Number of electrons: 18.000000
    Number of unpaired electrons: n_u =  0.43230, n_u,nl =  0.04678
    NO participation ratio (PR_NO): 15.334004
  
  
  Mulliken Population Analysis
  Atom      Charge (e)              h+              e-           Del q
  --------------------------------------------------------------------
   1 C       -0.217057        0.090167       -0.101566       -0.011399
   2 C       -0.212402        0.084842       -0.103548       -0.018706
   3 H        0.100743        0.018147       -0.010586        0.007561
   4 H        0.113978        0.017904       -0.010413        0.007491
   5 H        0.100743        0.018147       -0.010586        0.007561
   6 H        0.113978        0.017904       -0.010413        0.007491
   7 H       -0.999982        0.021954       -0.021953        0.000001
  --------------------------------------------------------------------
  Sum:       -1.000000        0.269065       -0.269065        0.000000
  
  Multipole moment analysis of the density matrix
    Molecular charge:                      -1.000000
    Number of electrons:                   18.000000
      Center of electronic charge [Ang]: [  0.000000,   0.000000,  -0.555250]
    Total nuclear charge:                  17.000000
      Center of nuclear charge [Ang]:    [ -0.000000,   0.000000,  -0.000000]
    Dipole moment [D]:                     48.005589
      Cartesian components [D]:          [ -0.000000,  -0.000000,  48.005589]
    RMS size of the density [Ang]:         3.556158
      Cartesian components [Ang]:        [  0.624288,   0.479112,   3.467992]
  
  Exciton analysis of the difference density matrix
    <r_h> [Ang]:                  [ -0.000000,   0.000000,  -0.230566]
    <r_e> [Ang]:                  [  0.000000,   0.000000,  -0.241937]
    |<r_e - r_h>| [Ang]:            0.011371
    Hole size [Ang]:                3.249165
      Cartesian components [Ang]: [  0.732974,   0.754057,   3.074284]
    Electron size [Ang]:            3.223483
      Cartesian components [Ang]: [  0.724286,   0.607056,   3.081840]
--------------------------------------------------------------------------------
  Starting Davidson for singlet states of irrep B2 ... 
--------------------------------------------------------------------------------
   It NVec Conv  Avg. Norm  Max. Norm  Conv. states           Remark
--------------------------------------------------------------------------------
       100    0  1.032e-01  4.618e-01  0.0886 n n n n n n n n Guess.
    1  110    0  5.354e-03  2.960e-02  0.0564 n n n n n n n n 
    2  120    0  3.928e-02  3.680e-01  0.0563 n n n n n n n n 
    3  130    4  3.387e-02  3.111e-01  0.0563 y y y n n y n n 
    4  140    5  3.483e-02  2.506e-01  0.0563 y y y n n y y n 
    5  150    7  4.059e-02  2.548e-01  0.0563 y y y n y y y n 
    6  160    6  3.774e-02  2.755e-01  0.0563 y y y n n y y y 
    7  170    6  3.379e-02  2.159e-01  0.0563 y y y n n y y n 
    8  180    5  3.361e-02  2.452e-01  0.0563 y y y n n n y y 
    9  190    3  3.355e-02  2.310e-01  0.0563 n y n n n n n y 
   10  200    0  5.547e-02  3.906e-01  0.0563 n n n n n n n n 
   11   20    2  4.191e-02  3.250e-01  0.0563 n y n n n n n n Subspace collapsed.
   12   30    2  3.839e-02  3.046e-01  0.0563 n y n n n n n n 
   13   40    4  3.521e-02  2.732e-01  0.0563 y y y n n n n n 
   14   50    4  3.429e-02  2.496e-01  0.0563 y y y n n n n n 
   15   60    4  3.365e-02  2.284e-01  0.0563 y y y n n n n n 
   16   70    4  3.392e-02  2.557e-01  0.0563 y y y n n n n n 
   17   80    5  3.338e-02  2.670e-01  0.0563 y y y n n n n y 
   18   90    5  3.228e-02  2.586e-01  0.0563 y y y n n n n y 
   19  100    6  3.185e-02  2.563e-01  0.0563 y y y n y n n y 
   20  110    6  3.095e-02  2.481e-01  0.0563 y y y n y n n y 
   21  120    6  2.995e-02  2.395e-01  0.0563 y y y n y n n y 
   22  130    6  2.934e-02  2.330e-01  0.0563 y y y n n y n y 
   23  140    7  2.931e-02  2.334e-01  0.0563 y y y n n y y y 
   24  150    6  2.815e-02  2.196e-01  0.0563 y y y n n n y y 
   25  160    6  2.640e-02  1.988e-01  0.0563 y y y n n n y y 
   26  170    5  1.774e-02  1.707e-01  0.0563 y y y n n n y n 
   27  180    5  1.713e-02  1.651e-01  0.0563 y y y n n n y n 
   28  190    3  1.726e-02  1.684e-01  0.0563 y y n n n n n n 
   29  200    0  1.658e-02  1.541e-01  0.0563 n n n n n n n n 
   30   20    5  1.578e-02  1.542e-01  0.0563 y y y n n n y n Subspace collapsed.
   31   30    5  1.546e-02  1.511e-01  0.0563 y y y n n n y n 
   32   40    6  1.504e-02  1.469e-01  0.0563 y y y n n y y n 
   33   50    7  1.476e-02  1.442e-01  0.0563 y y y n n y y y 
   34   60    7  1.457e-02  1.425e-01  0.0563 y y y n n y y y 
   35   70    7  1.436e-02  1.405e-01  0.0563 y y y n n y y y 
   36   80    7  1.396e-02  1.367e-01  0.0563 y y y n n y y y 
   37   90    7  1.383e-02  1.354e-01  0.0563 y y y n n y y y 
   38  100    7  1.350e-02  1.322e-01  0.0563 y y y n n y y y 
   39  110    7  1.327e-02  1.301e-01  0.0563 y y y n n y y y 
   40  120    7  1.275e-02  1.250e-01  0.0563 y y y n n y y y 
   41  130    7  1.268e-02  1.246e-01  0.0563 y y y n n y y y 
   42  140    7  1.266e-02  1.247e-01  0.0563 y y y n n y y y 
   43  150    7  1.249e-02  1.235e-01  0.0563 y y y n n y y y 
   44  160    6  1.220e-02  1.210e-01  0.0563 y y y n n y y n 
   45  170    1  1.239e-02  1.231e-01  0.0563 n y n n n n n n 
   46  180    0  1.083e-02  1.076e-01  0.0563 n n n n n n n n 
   47  190    0  8.438e-03  7.551e-02  0.0563 n n n n n n n n 
   48  200    0  6.333e-02  6.212e-01  0.0562 n n n n n n n n 
   49   20    1  3.628e-03  3.605e-02  0.0563 n y n n n n n n Subspace collapsed.
   50   30    1  3.249e-03  3.248e-02  0.0563 n y n n n n n n 
   51   40    2  2.648e-03  2.648e-02  0.0563 y y n n n n n n 
   52   50    3  2.577e-03  2.577e-02  0.0563 y y n n n n y n 
   53   60    7  2.505e-03  2.505e-02  0.0563 y y y n y y y y 
   54   70    8  2.521e-03  2.521e-02  0.0563 y y y n y y y y 
   55   80    9  2.516e-03  2.516e-02  0.0563 y y y n y y y y 
   56   90    9  2.428e-03  2.428e-02  0.0563 y y y n y y y y 
   57  100    9  2.382e-03  2.382e-02  0.0563 y y y n y y y y 
   58  110    9  1.969e-03  1.969e-02  0.0563 y y y n y y y y 
   59  120    9  1.576e-03  1.576e-02  0.0563 y y y n y y y y 
   60  130    9  1.165e-03  1.165e-02  0.0563 y y y n y y y y 
   61  140    9  8.490e-04  8.490e-03  0.0563 y y y n y y y y 
   62  150    9  5.197e-04  5.197e-03  0.0563 y y y n y y y y 
   63  160    9  8.805e-05  8.805e-04  0.0563 y y y n y y y y 
   64  170    9  9.958e-06  9.958e-05  0.0563 y y y n y y y y 
   65  180   10  8.526e-07  8.443e-06  0.0563 y y y y y y y y Converged.
--------------------------------------------------------------------------------
  Davidson Summary: 
 ------------------------------------------------------------
  State  0: excitation energy =   0.0563 a.u.   (converged)
  State  1: excitation energy =   0.0645 a.u.   (converged)
  State  2: excitation energy =   0.1245 a.u.   (converged)
  State  3: excitation energy =   0.2095 a.u.   (converged)
  State  4: excitation energy =   0.2223 a.u.   (converged)
  State  5: excitation energy =   0.2421 a.u.   (converged)
  State  6: excitation energy =   0.2549 a.u.   (converged)
  State  7: excitation energy =   0.2805 a.u.   (converged)
  State  8: excitation energy =   0.2837 a.u.   (converged)
  State  9: excitation energy =   0.2933 a.u.   (converged)
 ------------------------------------------------------------


--------------------------------------------------------------------------------
                   State-averaged natural transition orbitals
--------------------------------------------------------------------------------
--------------------------------------------------------------------------------

--------------------------------------------------------------------------------
                             Excited State Summary
--------------------------------------------------------------------------------
--------------------------------------------------------------------------------

  Excited state 1 (singlet, B2)                                    [converged]
  ----------------------------------------------------------------------------
  Term symbol:  1 (1) B2                                    R^2 =  3.81621e-08

  Total energy:                                            -78.7297050452 a.u.
  Excitation energy:                                               1.531305 eV

  Osc. strength:                                                      0.000001
  Trans. dip. moment [a.u.]:           [   0.000000,    0.003923,    0.000000]
  <i|r^2|0> [a.u.]:                    [  -0.000000,   -0.000000,    0.000000]

  Dip. moment [a.u.]:                  [  -0.000000,    0.000000,   -1.222018]
  Total dipole [Debye]:                                               3.106062
  <r^2> [a.u.]:                        [  28.436163,   26.132415,  447.190999]
  Total <r^2> [a.u.]:                                               501.759577

  V1^2 = 0.9593, V2^2 = 0.0407

  Important amplitudes:
      occ i      occ j       vir a       vir b          v   
    ---------------------------------------------------------
     6 (A1) A               3 (B2) A                 -0.5683
     6 (A1) A               2 (B2) A                  0.3476
    ---------------------------------------------------------

  Density matrix analysis:
  ------------------------
  NOs
    Occupation of frontier NOs:
       0.9911   1.0014
    Number of electrons: 18.000000
    Number of unpaired electrons: n_u =  2.41276, n_u,nl =  2.04429
    NO participation ratio (PR_NO):  2.923835
  
  
  Mulliken Population Analysis
  Atom      Charge (e)              h+              e-           Del q
  --------------------------------------------------------------------
   1 C       -0.639212        0.113401       -0.535556       -0.422156
   2 C       -0.641996        0.112237       -0.541832       -0.429594
   3 H        0.067257        0.004338       -0.037823       -0.033486
   4 H        0.073337        0.004173       -0.044814       -0.040641
   5 H        0.067257        0.004338       -0.037823       -0.033486
   6 H        0.073337        0.004173       -0.044814       -0.040641
   7 H        0.000020        1.019191       -0.019188        1.000002
  --------------------------------------------------------------------
  Sum:       -1.000000        1.261850       -1.261850       -0.000000
  
  Multipole moment analysis of the density matrix
    Molecular charge:                      -1.000000
    Number of electrons:                   18.000000
      Center of electronic charge [Ang]: [  0.000000,  -0.000000,   0.035926]
    Total nuclear charge:                  17.000000
      Center of nuclear charge [Ang]:    [ -0.000000,   0.000000,  -0.000000]
    Dipole moment [D]:                     3.106061
      Cartesian components [D]:          [ -0.000000,   0.000000,  -3.106061]
    RMS size of the density [Ang]:         2.793681
      Cartesian components [Ang]:        [  0.665121,   0.637609,   2.637370]
  
  Exciton analysis of the difference density matrix
    <r_h> [Ang]:                  [ -0.000000,  -0.000000,  -7.988787]
    <r_e> [Ang]:                  [  0.000000,  -0.000000,   0.444196]
    |<r_e - r_h>| [Ang]:            8.432983
    Hole size [Ang]:                4.385267
      Cartesian components [Ang]: [  0.710591,   0.710977,   4.268505]
    Electron size [Ang]:            3.067598
      Cartesian components [Ang]: [  1.120702,   1.740778,   2.263597]

  Transition density matrix analysis:
  -----------------------------------
  
  CT numbers (Mulliken)
    omega =     0.9446
    <Phe> =     0.0000
  
  Exciton analysis of the transition density matrix
    Trans. dipole moment [D]:             0.004986
      Cartesian components [D]:         [  0.000000,   0.004986,   0.000000]
    <r_h> [Ang]:                        [ -0.000000,  -0.000000, -10.037087]
    <r_e> [Ang]:                        [ -0.000000,  -0.000000,   0.622814]
    |<r_e - r_h>| [Ang]:                 10.659901
    Hole size [Ang]:                      1.110161
      Cartesian components [Ang]:       [  0.640819,   0.640819,   0.641218]
    Electron size [Ang]:                  2.945950
      Cartesian components [Ang]:       [  1.099359,   1.894310,   1.970183]
    RMS electron-hole separation [Ang]:  11.115063
      Cartesian components [Ang]:       [  1.272493,   1.999759,  10.859390]
    Covariance(r_h, r_e) [Ang^2]:        -0.000035
    Correlation coefficient:             -0.000011
    Center-of-mass size [Ang]:            1.574088
      Cartesian components [Ang]:       [  0.636247,   0.999885,   1.035940]

  Decomposition into state-averaged NTOs
    H- 0 -> L+ 0:  0.4888 ( 47.8%)
    H- 0 -> L+ 3:  0.4692 ( 44.0%)
    H- 0 -> L+ 1:  0.1151 (  2.6%)
                   omega =  94.5%
  ----------------------------------------------------------------------------


  Excited state 2 (singlet, B2)                                    [converged]
  ----------------------------------------------------------------------------
  Term symbol:  2 (1) B2                                    R^2 =  4.23834e-08

  Total energy:                                            -78.7214554112 a.u.
  Excitation energy:                                               1.755789 eV

  Osc. strength:                                                      0.000000
  Trans. dip. moment [a.u.]:           [   0.000000,    0.001103,    0.000000]
  <i|r^2|0> [a.u.]:                    [   0.000000,   -0.000000,    0.000000]

  Dip. moment [a.u.]:                  [  -0.000000,   -0.000000,   -1.192909]
  Total dipole [Debye]:                                               3.032073
  <r^2> [a.u.]:                        [  33.285525,   42.437909,  443.328620]
  Total <r^2> [a.u.]:                                               519.052053

  V1^2 = 0.9786, V2^2 = 0.0214

  Important amplitudes:
      occ i      occ j       vir a       vir b          v   
    ---------------------------------------------------------
     6 (A1) A               2 (B2) A                 -0.5913
     6 (A1) A               3 (B2) A                 -0.3718
    ---------------------------------------------------------

  Density matrix analysis:
  ------------------------
  NOs
    Occupation of frontier NOs:
       0.9954   1.0019
    Number of electrons: 18.000000
    Number of unpaired electrons: n_u =  2.41262, n_u,nl =  2.04845
    NO participation ratio (PR_NO):  2.910756
  
  
  Mulliken Population Analysis
  Atom      Charge (e)              h+              e-           Del q
  --------------------------------------------------------------------
   1 C       -0.668613        0.035253       -0.486809       -0.451556
   2 C       -0.683953        0.033089       -0.504640       -0.471551
   3 H        0.085344       -0.001487       -0.013912       -0.015398
   4 H        0.090927       -0.001616       -0.021435       -0.023051
   5 H        0.085344       -0.001487       -0.013912       -0.015398
   6 H        0.090927       -0.001616       -0.021435       -0.023051
   7 H        0.000024        1.020824       -0.020817        1.000007
  --------------------------------------------------------------------
  Sum:       -1.000000        1.082960       -1.082960        0.000000
  
  Multipole moment analysis of the density matrix
    Molecular charge:                      -1.000000
    Number of electrons:                   18.000000
      Center of electronic charge [Ang]: [  0.000000,   0.000000,   0.035070]
    Total nuclear charge:                  17.000000
      Center of nuclear charge [Ang]:    [ -0.000000,   0.000000,  -0.000000]
    Dipole moment [D]:                     3.032072
      Cartesian components [D]:          [ -0.000000,  -0.000000,  -3.032072]
    RMS size of the density [Ang]:         2.841432
      Cartesian components [Ang]:        [  0.719602,   0.812535,   2.625966]
  
  Exciton analysis of the difference density matrix
    <r_h> [Ang]:                  [ -0.000000,  -0.000000,  -9.426105]
    <r_e> [Ang]:                  [  0.000000,   0.000000,   0.385665]
    |<r_e - r_h>| [Ang]:            9.811770
    Hole size [Ang]:                2.765002
      Cartesian components [Ang]: [  0.704470,   0.701625,   2.580054]
    Electron size [Ang]:            3.904315
      Cartesian components [Ang]: [  1.620279,   2.765934,   2.228897]

  Transition density matrix analysis:
  -----------------------------------
  
  CT numbers (Mulliken)
    omega =     0.9720
    <Phe> =     0.0001
  
  Exciton analysis of the transition density matrix
    Trans. dipole moment [D]:             0.001401
      Cartesian components [D]:         [  0.000000,   0.001401,   0.000000]
    <r_h> [Ang]:                        [ -0.000000,  -0.000000, -10.036570]
    <r_e> [Ang]:                        [  0.000000,   0.000000,   0.616555]
    |<r_e - r_h>| [Ang]:                 10.653124
    Hole size [Ang]:                      1.112794
      Cartesian components [Ang]:       [  0.640889,   0.640907,   0.645607]
    Electron size [Ang]:                  3.733760
      Cartesian components [Ang]:       [  1.659710,   2.874848,   1.709261]
    RMS electron-hole separation [Ang]:  11.343695
      Cartesian components [Ang]:       [  1.779150,   2.945419,  10.809188]
    Covariance(r_h, r_e) [Ang^2]:        -0.005539
    Correlation coefficient:             -0.001333
    Center-of-mass size [Ang]:            1.947318
      Cartesian components [Ang]:       [  0.889575,   1.472713,   0.912042]

  Decomposition into state-averaged NTOs
    H- 0 -> L+ 1: -0.6784 ( 92.0%)
    H- 0 -> L+ 0:  0.1605 (  5.1%)
                   omega =  97.2%
  ----------------------------------------------------------------------------


  Excited state 3 (singlet, B2)                                    [converged]
  ----------------------------------------------------------------------------
  Term symbol:  3 (1) B2                                    R^2 =  5.59204e-08

  Total energy:                                            -78.6614525031 a.u.
  Excitation energy:                                               3.388551 eV

  Osc. strength:                                                      0.000003
  Trans. dip. moment [a.u.]:           [   0.000000,    0.005978,    0.000000]
  <i|r^2|0> [a.u.]:                    [   0.000000,   -0.000000,    0.000000]

  Dip. moment [a.u.]:                  [  -0.000000,   -0.000000,   -1.221592]
  Total dipole [Debye]:                                               3.104979
  <r^2> [a.u.]:                        [  30.124560,   31.168276,  452.095018]
  Total <r^2> [a.u.]:                                               513.387854

  V1^2 = 0.9562, V2^2 = 0.0438

  Important amplitudes:
      occ i      occ j       vir a       vir b          v   
    ---------------------------------------------------------
     6 (A1) A               4 (B2) A                  0.6561
     6 (A1) A               3 (B2) A                 -0.1590
    ---------------------------------------------------------

  Density matrix analysis:
  ------------------------
  NOs
    Occupation of frontier NOs:
       0.9871   1.0013
    Number of electrons: 18.000000
    Number of unpaired electrons: n_u =  2.42550, n_u,nl =  2.04836
    NO participation ratio (PR_NO):  2.964489
  
  
  Mulliken Population Analysis
  Atom      Charge (e)              h+              e-           Del q
  --------------------------------------------------------------------
   1 C       -0.625170        0.105991       -0.514104       -0.408113
   2 C       -0.624393        0.112895       -0.524886       -0.411991
   3 H        0.059234        0.002409       -0.043917       -0.041509
   4 H        0.065537        0.002153       -0.050595       -0.048441
   5 H        0.059234        0.002409       -0.043917       -0.041509
   6 H        0.065537        0.002153       -0.050595       -0.048441
   7 H        0.000021        1.018897       -0.018893        1.000004
  --------------------------------------------------------------------
  Sum:       -1.000000        1.246907       -1.246907        0.000000
  
  Multipole moment analysis of the density matrix
    Molecular charge:                      -1.000000
    Number of electrons:                   18.000000
      Center of electronic charge [Ang]: [  0.000000,   0.000000,   0.035913]
    Total nuclear charge:                  17.000000
      Center of nuclear charge [Ang]:    [ -0.000000,   0.000000,  -0.000000]
    Dipole moment [D]:                     3.104978
      Cartesian components [D]:          [ -0.000000,  -0.000000,  -3.104978]
    RMS size of the density [Ang]:         2.825873
      Cartesian components [Ang]:        [  0.684582,   0.696340,   2.651795]
  
  Exciton analysis of the difference density matrix
    <r_h> [Ang]:                  [ -0.000000,   0.000000,  -8.093115]
    <r_e> [Ang]:                  [  0.000000,   0.000000,   0.440745]
    |<r_e - r_h>| [Ang]:            8.533860
    Hole size [Ang]:                4.287468
      Cartesian components [Ang]: [  0.692649,   0.673699,   4.177170]
    Electron size [Ang]:            3.460368
      Cartesian components [Ang]: [  1.272389,   2.034673,   2.493046]

  Transition density matrix analysis:
  -----------------------------------
  
  CT numbers (Mulliken)
    omega =     0.9427
    <Phe> =     0.0000
  
  Exciton analysis of the transition density matrix
    Trans. dipole moment [D]:             0.007597
      Cartesian components [D]:         [  0.000000,   0.007597,   0.000000]
    <r_h> [Ang]:                        [ -0.000000,  -0.000000, -10.037087]
    <r_e> [Ang]:                        [ -0.000000,   0.000000,   0.627210]
    |<r_e - r_h>| [Ang]:                 10.664297
    Hole size [Ang]:                      1.110137
      Cartesian components [Ang]:       [  0.640804,   0.640804,   0.641205]
    Electron size [Ang]:                  3.483110
      Cartesian components [Ang]:       [  1.307928,   2.258107,   2.307018]
    RMS electron-hole separation [Ang]:  11.273497
      Cartesian components [Ang]:       [  1.456470,   2.347266,  10.929811]
    Covariance(r_h, r_e) [Ang^2]:        -0.000018
    Correlation coefficient:             -0.000005
    Center-of-mass size [Ang]:            1.827869
      Cartesian components [Ang]:       [  0.728235,   1.173637,   1.197228]

  Decomposition into state-averaged NTOs
    H- 0 -> L+ 3: -0.4853 ( 47.1%)
    H- 0 -> L+ 0:  0.4727 ( 44.7%)
    H- 0 -> L+ 1:  0.1113 (  2.5%)
                   omega =  94.3%
  ----------------------------------------------------------------------------


  Excited state 4 (singlet, B2)                                    [converged]
  ----------------------------------------------------------------------------
  Term symbol:  4 (1) B2                                    R^2 =  8.44287e-06

  Total energy:                                            -78.5764875581 a.u.
  Excitation energy:                                               5.700565 eV

  Osc. strength:                                                      0.000000
  Trans. dip. moment [a.u.]:           [   0.000000,   -0.000006,    0.000000]
  <i|r^2|0> [a.u.]:                    [   0.000000,    0.000000,    0.000000]

  Dip. moment [a.u.]:                  [   0.000000,   -0.000000,  -29.159255]
  Total dipole [Debye]:                                              74.115447
  <r^2> [a.u.]:                        [  40.731858,   48.379604,  147.793974]
  Total <r^2> [a.u.]:                                               236.905435

  V1^2 = 0.0000, V2^2 = 1.0000

  Important amplitudes:
      occ i      occ j       vir a       vir b          v   
    ---------------------------------------------------------
     6 (A1) A   6 (A1) B    7 (A1) A    2 (B2) B     -0.3535
     6 (A1) A               2 (B2) A                 -0.0035
    ---------------------------------------------------------

  Density matrix analysis:
  ------------------------
  NOs
    Occupation of frontier NOs:
       1.0009   1.0034
    Number of electrons: 18.000000
    Number of unpaired electrons: n_u =  2.40079, n_u,nl =  2.04838
    NO participation ratio (PR_NO):  2.876126
  
  
  Mulliken Population Analysis
  Atom      Charge (e)              h+              e-           Del q
  --------------------------------------------------------------------
   1 C       -1.310283        0.000038       -1.093265       -1.093226
   2 C       -1.070163       -0.000022       -0.857739       -0.857761
   3 H        0.087063       -0.000000       -0.013680       -0.013680
   4 H        0.103167        0.000000       -0.010812       -0.010811
   5 H        0.087063       -0.000000       -0.013680       -0.013680
   6 H        0.103167        0.000000       -0.010812       -0.010811
   7 H        0.999987        1.999970       -0.000000        1.999970
  --------------------------------------------------------------------
  Sum:       -1.000000        1.999987       -1.999987       -0.000000
  
  Multipole moment analysis of the density matrix
    Molecular charge:                      -1.000000
    Number of electrons:                   18.000000
      Center of electronic charge [Ang]: [ -0.000000,   0.000000,   0.857245]
    Total nuclear charge:                  17.000000
      Center of nuclear charge [Ang]:    [ -0.000000,   0.000000,  -0.000000]
    Dipole moment [D]:                     74.115425
      Cartesian components [D]:          [  0.000000,  -0.000000, -74.115425]
    RMS size of the density [Ang]:         1.717761
      Cartesian components [Ang]:        [  0.796035,   0.867553,   1.250753]
  
  Exciton analysis of the difference density matrix
    <r_h> [Ang]:                  [  0.000000,  -0.000000, -10.037099]
    <r_e> [Ang]:                  [ -0.000000,   0.000000,   2.675438]
    |<r_e - r_h>| [Ang]:           12.712537
    Hole size [Ang]:                1.111503
      Cartesian components [Ang]: [  0.641569,   0.641570,   0.642041]
    Electron size [Ang]:            3.376297
      Cartesian components [Ang]: [  1.614634,   2.262640,   1.916454]

  Transition density matrix analysis:
  -----------------------------------
  
  CT numbers (Mulliken)
    omega =     0.0000
    <Phe> =     0.0001
  
  Exciton analysis of the transition density matrix
    Trans. dipole moment [D]:             0.000008
      Cartesian components [D]:         [  0.000000,  -0.000008,   0.000000]
    <r_h> [Ang]:                        [ -0.000000,  -0.000000, -10.037076]
    <r_e> [Ang]:                        [ -0.000000,   0.000000,   2.166428]
    |<r_e - r_h>| [Ang]:                 12.203504
    Hole size [Ang]:                      1.080264
      Cartesian components [Ang]:       [  0.622178,   0.622197,   0.626687]
    Electron size [Ang]:                  3.483129
      Cartesian components [Ang]:       [  1.597451,   2.766859,   1.387382]
    RMS electron-hole separation [Ang]:  12.737240
      Cartesian components [Ang]:       [  1.714338,   2.835955,  12.298606]
    Covariance(r_h, r_e) [Ang^2]:        -0.006313
    Correlation coefficient:             -0.001678
    Center-of-mass size [Ang]:            1.822535
      Cartesian components [Ang]:       [  0.857169,   1.417977,   0.759102]

  Decomposition into state-averaged NTOs
                   omega =   0.0%
  ----------------------------------------------------------------------------


  Excited state 5 (singlet, B2)                                    [converged]
  ----------------------------------------------------------------------------
  Term symbol:  5 (1) B2                                    R^2 =  3.08163e-07

  Total energy:                                            -78.5636854919 a.u.
  Excitation energy:                                               6.048927 eV

  Osc. strength:                                                      0.000000
  Trans. dip. moment [a.u.]:           [   0.000000,    0.000005,    0.000000]
  <i|r^2|0> [a.u.]:                    [   0.000000,   -0.000000,    0.000000]

  Dip. moment [a.u.]:                  [   0.000000,    0.000000,  -24.108338]
  Total dipole [Debye]:                                              61.277294
  <r^2> [a.u.]:                        [  38.798165,   42.539259,  139.010080]
  Total <r^2> [a.u.]:                                               220.347504

  V1^2 = 0.0000, V2^2 = 1.0000

  Important amplitudes:
      occ i      occ j       vir a       vir b          v   
    ---------------------------------------------------------
     6 (A1) A   6 (A1) B    7 (A1) A    3 (B2) B     -0.3535
     6 (A1) A               3 (B2) A                 -0.0031
    ---------------------------------------------------------

  Density matrix analysis:
  ------------------------
  NOs
    Occupation of frontier NOs:
       1.0009   1.0077
    Number of electrons: 18.000000
    Number of unpaired electrons: n_u =  2.39223, n_u,nl =  2.04685
    NO participation ratio (PR_NO):  2.868517
  
  
  Mulliken Population Analysis
  Atom      Charge (e)              h+              e-           Del q
  --------------------------------------------------------------------
   1 C        0.238831        0.000034        0.455853        0.455887
   2 C       -2.616282       -0.000019       -2.403861       -2.403880
   3 H        0.085907       -0.000000       -0.014835       -0.014835
   4 H        0.102823        0.000000       -0.011155       -0.011155
   5 H        0.085907       -0.000000       -0.014835       -0.014835
   6 H        0.102823        0.000000       -0.011155       -0.011155
   7 H        0.999991        1.999973       -0.000000        1.999973
  --------------------------------------------------------------------
  Sum:       -1.000000        1.999988       -1.999988       -0.000000
  
  Multipole moment analysis of the density matrix
    Molecular charge:                      -1.000000
    Number of electrons:                   18.000000
      Center of electronic charge [Ang]: [ -0.000000,  -0.000000,   0.708755]
    Total nuclear charge:                  17.000000
      Center of nuclear charge [Ang]:    [ -0.000000,   0.000000,  -0.000000]
    Dipole moment [D]:                     61.277276
      Cartesian components [D]:          [  0.000000,   0.000000, -61.277276]
    RMS size of the density [Ang]:         1.710451
      Cartesian components [Ang]:        [  0.776910,   0.813504,   1.288513]
  
  Exciton analysis of the difference density matrix
    <r_h> [Ang]:                  [  0.000000,  -0.000000, -10.037109]
    <r_e> [Ang]:                  [ -0.000000,  -0.000000,   1.338995]
    |<r_e - r_h>| [Ang]:           11.376104
    Hole size [Ang]:                1.111444
      Cartesian components [Ang]: [  0.641569,   0.641569,   0.641940]
    Electron size [Ang]:            3.800819
      Cartesian components [Ang]: [  1.528494,   2.074078,   2.794304]

  Transition density matrix analysis:
  -----------------------------------
  
  CT numbers (Mulliken)
    omega =     0.0000
    <Phe> =     0.0000
  
  Exciton analysis of the transition density matrix
    Trans. dipole moment [D]:             0.000006
      Cartesian components [D]:         [  0.000000,   0.000006,   0.000000]
    <r_h> [Ang]:                        [ -0.000000,  -0.000000, -10.037544]
    <r_e> [Ang]:                        [  0.000000,  -0.000000,  -0.748580]
    |<r_e - r_h>| [Ang]:                  9.288964
    Hole size [Ang]:                      1.074456
      Cartesian components [Ang]:       [  0.620082,   0.620086,   0.620844]
    Electron size [Ang]:                  3.581784
      Cartesian components [Ang]:       [  1.508152,   2.611130,   1.933043]
    RMS electron-hole separation [Ang]:  10.013500
      Cartesian components [Ang]:       [  1.630652,   2.683768,   9.508340]
    Covariance(r_h, r_e) [Ang^2]:        -0.000842
    Correlation coefficient:             -0.000219
    Center-of-mass size [Ang]:            1.869622
      Cartesian components [Ang]:       [  0.815326,   1.341864,   1.014954]

  Decomposition into state-averaged NTOs
                   omega =   0.0%
  ----------------------------------------------------------------------------


  Excited state 6 (singlet, B2)                                    [converged]
  ----------------------------------------------------------------------------
  Term symbol:  6 (1) B2                                    R^2 =  2.88802e-08

  Total energy:                                            -78.5439088023 a.u.
  Excitation energy:                                               6.587078 eV

  Osc. strength:                                                      0.000000
  Trans. dip. moment [a.u.]:           [   0.000000,    0.000003,   -0.000000]
  <i|r^2|0> [a.u.]:                    [  -0.000000,   -0.000000,   -0.000000]

  Dip. moment [a.u.]:                  [   0.000000,   -0.000000,  -19.480933]
  Total dipole [Debye]:                                              49.515603
  <r^2> [a.u.]:                        [  39.119452,   48.213383,  116.761424]
  Total <r^2> [a.u.]:                                               204.094258

  V1^2 = 0.0000, V2^2 = 1.0000

  Important amplitudes:
      occ i      occ j       vir a       vir b          v   
    ---------------------------------------------------------
     6 (A1) A   6 (A1) B    8 (A1) A    2 (B2) B      0.3535
     6 (A1) A               2 (B2) A                  0.0036
    ---------------------------------------------------------

  Density matrix analysis:
  ------------------------
  NOs
    Occupation of frontier NOs:
       1.0018   1.0034
    Number of electrons: 18.000000
    Number of unpaired electrons: n_u =  2.39892, n_u,nl =  2.04830
    NO participation ratio (PR_NO):  2.874311
  
  
  Mulliken Population Analysis
  Atom      Charge (e)              h+              e-           Del q
  --------------------------------------------------------------------
   1 C       -2.891938       -0.000049       -2.674832       -2.674881
   2 C        0.342022        0.000062        0.554363        0.554425
   3 H        0.132846        0.000000        0.032103        0.032103
   4 H        0.142117       -0.000000        0.028139        0.028139
   5 H        0.132846        0.000000        0.032103        0.032103
   6 H        0.142117       -0.000000        0.028139        0.028139
   7 H        0.999990        1.999973       -0.000000        1.999973
  --------------------------------------------------------------------
  Sum:       -1.000000        1.999985       -1.999985        0.000000
  
  Multipole moment analysis of the density matrix
    Molecular charge:                      -1.000000
    Number of electrons:                   18.000000
      Center of electronic charge [Ang]: [ -0.000000,   0.000000,   0.572715]
    Total nuclear charge:                  17.000000
      Center of nuclear charge [Ang]:    [ -0.000000,   0.000000,  -0.000000]
    Dipole moment [D]:                     49.515588
      Cartesian components [D]:          [  0.000000,  -0.000000, -49.515588]
    RMS size of the density [Ang]:         1.687341
      Cartesian components [Ang]:        [  0.780120,   0.866061,   1.220029]
  
  Exciton analysis of the difference density matrix
    <r_h> [Ang]:                  [  0.000000,  -0.000000, -10.037110]
    <r_e> [Ang]:                  [ -0.000000,   0.000000,   0.114645]
    |<r_e - r_h>| [Ang]:           10.151755
    Hole size [Ang]:                1.111494
      Cartesian components [Ang]: [  0.641566,   0.641567,   0.642030]
    Electron size [Ang]:            3.735007
      Cartesian components [Ang]: [  1.543140,   2.257491,   2.544156]

  Transition density matrix analysis:
  -----------------------------------
  
  CT numbers (Mulliken)
    omega =     0.0000
    <Phe> =     0.0000
  
  Exciton analysis of the transition density matrix
    Trans. dipole moment [D]:             0.000003
      Cartesian components [D]:         [  0.000000,   0.000003,  -0.000000]
    <r_h> [Ang]:                        [ -0.000000,  -0.000000, -10.037950]
    <r_e> [Ang]:                        [ -0.000000,   0.000000,   2.025220]
    |<r_e - r_h>| [Ang]:                 12.063171
    Hole size [Ang]:                      1.065664
      Cartesian components [Ang]:       [  0.615069,   0.615072,   0.615644]
    Electron size [Ang]:                  3.424312
      Cartesian components [Ang]:       [  1.567268,   2.714328,   1.379133]
    RMS electron-hole separation [Ang]:  12.585038
      Cartesian components [Ang]:       [  1.683638,   2.783139,  12.157412]
    Covariance(r_h, r_e) [Ang^2]:        -0.000767
    Correlation coefficient:             -0.000210
    Center-of-mass size [Ang]:            1.793043
      Cartesian components [Ang]:       [  0.841819,   1.391575,   0.754894]

  Decomposition into state-averaged NTOs
                   omega =   0.0%
  ----------------------------------------------------------------------------


  Excited state 7 (singlet, B2)                                    [converged]
  ----------------------------------------------------------------------------
  Term symbol:  7 (1) B2                                    R^2 =  1.16728e-08

  Total energy:                                            -78.5311054207 a.u.
  Excitation energy:                                               6.935475 eV

  Osc. strength:                                                      0.000000
  Trans. dip. moment [a.u.]:           [   0.000000,    0.000004,    0.000000]
  <i|r^2|0> [a.u.]:                    [   0.000000,   -0.000000,    0.000000]

  Dip. moment [a.u.]:                  [   0.000000,    0.000000,  -14.429774]
  Total dipole [Debye]:                                              36.676833
  <r^2> [a.u.]:                        [  37.185829,   42.373287,  107.978303]
  Total <r^2> [a.u.]:                                               187.537418

  V1^2 = 0.0000, V2^2 = 1.0000

  Important amplitudes:
      occ i      occ j       vir a       vir b          v   
    ---------------------------------------------------------
     6 (A1) A   6 (A1) B    8 (A1) A    3 (B2) B     -0.3535
     6 (A1) A               3 (B2) A                 -0.0038
    ---------------------------------------------------------

  Density matrix analysis:
  ------------------------
  NOs
    Occupation of frontier NOs:
       1.0018   1.0077
    Number of electrons: 18.000000
    Number of unpaired electrons: n_u =  2.39038, n_u,nl =  2.04677
    NO participation ratio (PR_NO):  2.866706
  
  
  Mulliken Population Analysis
  Atom      Charge (e)              h+              e-           Del q
  --------------------------------------------------------------------
   1 C       -1.342830       -0.000053       -1.125721       -1.125774
   2 C       -1.204086        0.000066       -0.991750       -0.991684
   3 H        0.131691        0.000000        0.030948        0.030948
   4 H        0.141773       -0.000000        0.027796        0.027795
   5 H        0.131691        0.000000        0.030948        0.030948
   6 H        0.141773       -0.000000        0.027796        0.027795
   7 H        0.999988        1.999971       -0.000000        1.999970
  --------------------------------------------------------------------
  Sum:       -1.000000        1.999984       -1.999984        0.000000
  
  Multipole moment analysis of the density matrix
    Molecular charge:                      -1.000000
    Number of electrons:                   18.000000
      Center of electronic charge [Ang]: [ -0.000000,  -0.000000,   0.424217]
    Total nuclear charge:                  17.000000
      Center of nuclear charge [Ang]:    [ -0.000000,   0.000000,  -0.000000]
    Dipole moment [D]:                     36.676822
      Cartesian components [D]:          [  0.000000,   0.000000, -36.676822]
    RMS size of the density [Ang]:         1.654565
      Cartesian components [Ang]:        [  0.760595,   0.811916,   1.224693]
  
  Exciton analysis of the difference density matrix
    <r_h> [Ang]:                  [ -0.000000,  -0.000000, -10.037101]
    <r_e> [Ang]:                  [ -0.000000,  -0.000000,  -1.221831]
    |<r_e - r_h>| [Ang]:            8.815270
    Hole size [Ang]:                1.111538
      Cartesian components [Ang]: [  0.641566,   0.641568,   0.642106]
    Electron size [Ang]:            3.186254
      Cartesian components [Ang]: [  1.452771,   2.068469,   1.939872]

  Transition density matrix analysis:
  -----------------------------------
  
  CT numbers (Mulliken)
    omega =     0.0000
    <Phe> =     0.0001
  
  Exciton analysis of the transition density matrix
    Trans. dipole moment [D]:             0.000005
      Cartesian components [D]:         [  0.000000,   0.000005,   0.000000]
    <r_h> [Ang]:                        [ -0.000000,  -0.000000, -10.036400]
    <r_e> [Ang]:                        [  0.000000,  -0.000000,  -0.765316]
    |<r_e - r_h>| [Ang]:                  9.271084
    Hole size [Ang]:                      1.076301
      Cartesian components [Ang]:       [  0.616958,   0.617014,   0.630143]
    Electron size [Ang]:                  3.578795
      Cartesian components [Ang]:       [  1.513844,   2.621064,   1.909469]
    RMS electron-hole separation [Ang]:   9.997388
      Cartesian components [Ang]:       [  1.634736,   2.692733,   9.488129]
    Covariance(r_h, r_e) [Ang^2]:        -0.014283
    Correlation coefficient:             -0.003708
    Center-of-mass size [Ang]:            1.866657
      Cartesian components [Ang]:       [  0.817368,   1.346343,   1.001837]

  Decomposition into state-averaged NTOs
                   omega =   0.0%
  ----------------------------------------------------------------------------


  Excited state 8 (singlet, B2)                                    [converged]
  ----------------------------------------------------------------------------
  Term symbol:  8 (1) B2                                    R^2 =  1.04816e-06

  Total energy:                                            -78.5054704727 a.u.
  Excitation energy:                                               7.633038 eV

  Osc. strength:                                                      0.000000
  Trans. dip. moment [a.u.]:           [   0.000000,   -0.000001,   -0.000000]
  <i|r^2|0> [a.u.]:                    [  -0.000000,   -0.000000,   -0.000000]

  Dip. moment [a.u.]:                  [   0.000000,   -0.000000,  -23.988228]
  Total dipole [Debye]:                                              60.972006
  <r^2> [a.u.]:                        [  41.647672,   51.859557,  108.862499]
  Total <r^2> [a.u.]:                                               202.369728

  V1^2 = 0.0000, V2^2 = 1.0000

  Important amplitudes:
      occ i      occ j       vir a       vir b          v   
    ---------------------------------------------------------
     6 (A1) A   6 (A1) B    9 (A1) A    2 (B2) B      0.3536
     6 (A1) A               2 (B2) A                  0.0013
    ---------------------------------------------------------

  Density matrix analysis:
  ------------------------
  NOs
    Occupation of frontier NOs:
       1.0020   1.0034
    Number of electrons: 18.000000
    Number of unpaired electrons: n_u =  2.39871, n_u,nl =  2.04831
    NO participation ratio (PR_NO):  2.874160
  
  
  Mulliken Population Analysis
  Atom      Charge (e)              h+              e-           Del q
  --------------------------------------------------------------------
   1 C       -2.909040        0.000049       -2.692033       -2.691984
   2 C        0.306862       -0.000034        0.519298        0.519264
   3 H        0.150064       -0.000000        0.049321        0.049321
   4 H        0.151026        0.000001        0.037047        0.037048
   5 H        0.150064       -0.000000        0.049321        0.049321
   6 H        0.151026        0.000001        0.037047        0.037048
   7 H        1.000000        1.999982       -0.000000        1.999982
  --------------------------------------------------------------------
  Sum:       -1.000000        1.999998       -1.999998       -0.000000
  
  Multipole moment analysis of the density matrix
    Molecular charge:                      -1.000000
    Number of electrons:                   18.000000
      Center of electronic charge [Ang]: [ -0.000000,   0.000000,   0.705224]
    Total nuclear charge:                  17.000000
      Center of nuclear charge [Ang]:    [ -0.000000,   0.000000,  -0.000000]
    Dipole moment [D]:                     60.971988
      Cartesian components [D]:          [  0.000000,  -0.000000, -60.971988]
    RMS size of the density [Ang]:         1.628175
      Cartesian components [Ang]:        [  0.804934,   0.898213,   1.093732]
  
  Exciton analysis of the difference density matrix
    <r_h> [Ang]:                  [  0.000000,  -0.000000, -10.037105]
    <r_e> [Ang]:                  [ -0.000000,   0.000000,   1.307163]
    |<r_e - r_h>| [Ang]:           11.344269
    Hole size [Ang]:                1.111469
      Cartesian components [Ang]: [  0.641570,   0.641570,   0.641980]
    Electron size [Ang]:            3.466080
      Cartesian components [Ang]: [  1.653862,   2.367859,   1.916166]

  Transition density matrix analysis:
  -----------------------------------
  
  CT numbers (Mulliken)
    omega =     0.0000
    <Phe> =     0.0001
  
  Exciton analysis of the transition density matrix
    Trans. dipole moment [D]:             0.000001
      Cartesian components [D]:         [  0.000000,  -0.000001,  -0.000000]
    <r_h> [Ang]:                        [ -0.000000,  -0.000000, -10.038203]
    <r_e> [Ang]:                        [ -0.000000,   0.000000,   1.839807]
    |<r_e - r_h>| [Ang]:                 11.878010
    Hole size [Ang]:                      1.057434
      Cartesian components [Ang]:       [  0.609703,   0.609713,   0.612111]
    Electron size [Ang]:                  3.244892
      Cartesian components [Ang]:       [  1.468627,   2.543262,   1.379955]
    RMS electron-hole separation [Ang]:  12.358857
      Cartesian components [Ang]:       [  1.590158,   2.615334,  11.973837]
    Covariance(r_h, r_e) [Ang^2]:        -0.003375
    Correlation coefficient:             -0.000984
    Center-of-mass size [Ang]:            1.705926
      Cartesian components [Ang]:       [  0.795079,   1.307659,   0.753698]

  Decomposition into state-averaged NTOs
                   omega =   0.0%
  ----------------------------------------------------------------------------


  Excited state 9 (singlet, B2)                                    [converged]
  ----------------------------------------------------------------------------
  Term symbol:  9 (1) B2                                    R^2 =  1.56110e-07

  Total energy:                                            -78.5022618715 a.u.
  Excitation energy:                                               7.720348 eV

  Osc. strength:                                                      0.120283
  Trans. dip. moment [a.u.]:           [   0.000000,    0.797453,   -0.000000]
  <i|r^2|0> [a.u.]:                    [   0.000000,    0.000000,   -0.000000]

  Dip. moment [a.u.]:                  [   0.000000,    0.000000,   15.971064]
  Total dipole [Debye]:                                              40.594403
  <r^2> [a.u.]:                        [  31.122133,   20.008545,  814.878463]
  Total <r^2> [a.u.]:                                               866.009141

  V1^2 = 0.9513, V2^2 = 0.0487

  Important amplitudes:
      occ i      occ j       vir a       vir b          v   
    ---------------------------------------------------------
     1 (B2) A               7 (A1) A                 -0.4964
     1 (B2) A               8 (A1) A                  0.3235
    ---------------------------------------------------------

  Density matrix analysis:
  ------------------------
  NOs
    Occupation of frontier NOs:
       0.9830   0.9924
    Number of electrons: 18.000000
    Number of unpaired electrons: n_u =  2.31260, n_u,nl =  2.02464
    NO participation ratio (PR_NO):  2.731830
  
  
  Mulliken Population Analysis
  Atom      Charge (e)              h+              e-           Del q
  --------------------------------------------------------------------
   1 C        0.699637        0.618156        0.298537        0.916694
   2 C       -1.464452        0.433433       -1.685483       -1.252050
   3 H        0.179464        0.091658       -0.012936        0.078722
   4 H        0.202933        0.073119        0.015837        0.088956
   5 H        0.179464        0.091658       -0.012936        0.078722
   6 H        0.202933        0.073119        0.015837        0.088956
   7 H       -0.999980        0.000372       -0.000370        0.000002
  --------------------------------------------------------------------
  Sum:       -1.000000        1.381514       -1.381514       -0.000000
  
  Multipole moment analysis of the density matrix
    Molecular charge:                      -1.000000
    Number of electrons:                   18.000000
      Center of electronic charge [Ang]: [ -0.000000,  -0.000000,  -0.469529]
    Total nuclear charge:                  17.000000
      Center of nuclear charge [Ang]:    [ -0.000000,   0.000000,  -0.000000]
    Dipole moment [D]:                     40.594391
      Cartesian components [D]:          [  0.000000,   0.000000,  40.594391]
    RMS size of the density [Ang]:         3.640353
      Cartesian components [Ang]:        [  0.695824,   0.557921,   3.529408]
  
  Exciton analysis of the difference density matrix
    <r_h> [Ang]:                  [  0.000000,   0.000000,   0.712951]
    <r_e> [Ang]:                  [ -0.000000,  -0.000000,   1.829819]
    |<r_e - r_h>| [Ang]:            1.116869
    Hole size [Ang]:                1.553278
      Cartesian components [Ang]: [  0.764238,   0.867316,   1.037484]
    Electron size [Ang]:            2.514501
      Cartesian components [Ang]: [  1.347025,   1.347989,   1.640478]

  Transition density matrix analysis:
  -----------------------------------
  
  CT numbers (Mulliken)
    omega =     0.9201
    <Phe> =    -0.0109
  
  Exciton analysis of the transition density matrix
    Trans. dipole moment [D]:             1.013462
      Cartesian components [D]:         [  0.000000,   1.013462,  -0.000000]
    <r_h> [Ang]:                        [  0.000000,   0.000000,   0.645443]
    <r_e> [Ang]:                        [ -0.000000,  -0.000000,   2.277527]
    |<r_e - r_h>| [Ang]:                  1.632083
    Hole size [Ang]:                      1.254402
      Cartesian components [Ang]:       [  0.509040,   0.861960,   0.755929]
    Electron size [Ang]:                  2.703652
      Cartesian components [Ang]:       [  1.530184,   1.546077,   1.605589]
    RMS electron-hole separation [Ang]:   3.390482
      Cartesian components [Ang]:       [  1.611919,   1.759692,   2.408437]
    Covariance(r_h, r_e) [Ang^2]:         0.025793
    Correlation coefficient:              0.007605
    Center-of-mass size [Ang]:            1.494560
      Cartesian components [Ang]:       [  0.806673,   0.890244,   0.889075]

  Decomposition into state-averaged NTOs
    H- 1 -> L+ 2: -0.6780 ( 91.9%)
                   omega =  92.0%
  ----------------------------------------------------------------------------


  Excited state 10 (singlet, B2)                                    [converged]
  ----------------------------------------------------------------------------
  Term symbol:  10 (1) B2                                   R^2 =  4.34818e-07

  Total energy:                                            -78.4926678920 a.u.
  Excitation energy:                                               7.981414 eV

  Osc. strength:                                                      0.000000
  Trans. dip. moment [a.u.]:           [   0.000000,    0.000002,    0.000000]
  <i|r^2|0> [a.u.]:                    [   0.000000,   -0.000000,    0.000000]

  Dip. moment [a.u.]:                  [   0.000000,    0.000000,  -18.937062]
  Total dipole [Debye]:                                              48.133219
  <r^2> [a.u.]:                        [  39.714052,   46.019429,  100.079472]
  Total <r^2> [a.u.]:                                               185.812953

  V1^2 = 0.0000, V2^2 = 1.0000

  Important amplitudes:
      occ i      occ j       vir a       vir b          v   
    ---------------------------------------------------------
     6 (A1) A   6 (A1) B    9 (A1) A    3 (B2) B     -0.3536
     6 (A1) A               3 (B2) A                 -0.0013
    ---------------------------------------------------------

  Density matrix analysis:
  ------------------------
  NOs
    Occupation of frontier NOs:
       1.0020   1.0077
    Number of electrons: 18.000000
    Number of unpaired electrons: n_u =  2.39016, n_u,nl =  2.04678
    NO participation ratio (PR_NO):  2.866554
  
  
  Mulliken Population Analysis
  Atom      Charge (e)              h+              e-           Del q
  --------------------------------------------------------------------
   1 C       -1.359895        0.000051       -1.142890       -1.142838
   2 C       -1.239281       -0.000036       -1.026843       -1.026879
   3 H        0.148908       -0.000000        0.048165        0.048165
   4 H        0.150681        0.000001        0.036702        0.036703
   5 H        0.148908       -0.000000        0.048165        0.048165
   6 H        0.150681        0.000001        0.036702        0.036703
   7 H        0.999999        1.999982       -0.000000        1.999982
  --------------------------------------------------------------------
  Sum:       -1.000000        1.999998       -1.999998       -0.000000
  
  Multipole moment analysis of the density matrix
    Molecular charge:                      -1.000000
    Number of electrons:                   18.000000
      Center of electronic charge [Ang]: [ -0.000000,  -0.000000,   0.556726]
    Total nuclear charge:                  17.000000
      Center of nuclear charge [Ang]:    [ -0.000000,   0.000000,  -0.000000]
    Dipole moment [D]:                     48.133204
      Cartesian components [D]:          [  0.000000,   0.000000, -48.133204]
    RMS size of the density [Ang]:         1.606479
      Cartesian components [Ang]:        [  0.786026,   0.846127,   1.116695]
  
  Exciton analysis of the difference density matrix
    <r_h> [Ang]:                  [  0.000000,  -0.000000, -10.037104]
    <r_e> [Ang]:                  [ -0.000000,  -0.000000,  -0.029316]
    |<r_e - r_h>| [Ang]:           10.007788
    Hole size [Ang]:                1.111479
      Cartesian components [Ang]: [  0.641570,   0.641571,   0.641997]
    Electron size [Ang]:            3.376879
      Cartesian components [Ang]: [  1.569881,   2.188391,   2.037089]

  Transition density matrix analysis:
  -----------------------------------
  
  CT numbers (Mulliken)
    omega =     0.0000
    <Phe> =     0.0002
  
  Exciton analysis of the transition density matrix
    Trans. dipole moment [D]:             0.000002
      Cartesian components [D]:         [  0.000000,   0.000002,   0.000000]
    <r_h> [Ang]:                        [ -0.000000,  -0.000000, -10.035327]
    <r_e> [Ang]:                        [  0.000000,   0.000000,  -0.426109]
    |<r_e - r_h>| [Ang]:                  9.609217
    Hole size [Ang]:                      1.077664
      Cartesian components [Ang]:       [  0.613570,   0.613681,   0.638973]
    Electron size [Ang]:                  3.446583
      Cartesian components [Ang]:       [  1.408931,   2.439079,   1.986136]
    RMS electron-hole separation [Ang]:  10.268072
      Cartesian components [Ang]:       [  1.536735,   2.515046,   9.835969]
    Covariance(r_h, r_e) [Ang^2]:        -0.027975
    Correlation coefficient:             -0.007532
    Center-of-mass size [Ang]:            1.801690
      Cartesian components [Ang]:       [  0.768368,   1.257574,   1.036438]

  Decomposition into state-averaged NTOs
                   omega =   0.0%
  ----------------------------------------------------------------------------


--------------------------------------------------------------------------------
  Time of ADC calculation:  CPU 1269.95 s  wall 329.19 s
================================================================================
 
 --------------------------------------------------------------
             Orbital Energies (a.u.) and Symmetries
 --------------------------------------------------------------
 
 Alpha MOs, Restricted
 -- Occupied --                  
-11.187 -11.185  -0.992  -0.732  -0.610  -0.517  -0.465  -0.327
  1 A1    2 A1    3 A1    4 A1    1 B1    5 A1    2 B1    1 B2                 
  0.022
  6 A1                                                                         
 -- Virtual --                   
  0.115   0.129   0.138   0.148   0.150   0.164   0.187   0.232
  7 A1    3 B1    2 B2    8 A1    3 B2    4 B1    9 A1    4 B2                 
  0.264   0.312   0.362   0.366   0.394   0.397   0.401   0.410
 10 A1   11 A1    5 B1   12 A1   13 A1    6 B1    5 B2    7 B1                 
  0.420   0.486   0.602   0.666   0.883   0.902   0.985   1.001
 14 A1    6 B2    8 B1   15 A1   16 A1    9 B1   17 A1   18 A1                 
  1.058   1.074   1.090   1.104   1.162   1.164   1.186   1.206
 19 A1   10 B1   11 B1   20 A1    7 B2    1 A2   21 A1    8 B2                 
  1.333   1.334   1.340   1.496   1.671   1.724   1.780   1.924
 22 A1    2 A2    9 B2   12 B1   23 A1   13 B1   14 B1   10 B2                 
  1.967   1.967   1.967   1.994   2.011   2.067   2.120   2.145
 24 A1   15 B1   11 B2   12 B2   25 A1    3 A2   26 A1   16 B1                 
  2.231   2.380   2.462   2.522   2.622   2.629   2.885   2.890
 13 B2   27 A1    4 A2   28 A1   17 B1   29 A1   18 B1   30 A1                 
  3.313   3.392
 31 A1   19 B1                                                                 
 
 Beta MOs, Restricted
 -- Occupied --                  
-11.187 -11.185  -0.992  -0.732  -0.610  -0.517  -0.465  -0.327
  1 A1    2 A1    3 A1    4 A1    1 B1    5 A1    2 B1    1 B2                 
  0.022
  6 A1                                                                         
 -- Virtual --                   
  0.115   0.129   0.138   0.148   0.150   0.164   0.187   0.232
  7 A1    3 B1    2 B2    8 A1    3 B2    4 B1    9 A1    4 B2                 
  0.264   0.312   0.362   0.366   0.394   0.397   0.401   0.410
 10 A1   11 A1    5 B1   12 A1   13 A1    6 B1    5 B2    7 B1                 
  0.420   0.486   0.602   0.666   0.883   0.902   0.985   1.001
 14 A1    6 B2    8 B1   15 A1   16 A1    9 B1   17 A1   18 A1                 
  1.058   1.074   1.090   1.104   1.162   1.164   1.186   1.206
 19 A1   10 B1   11 B1   20 A1    7 B2    1 A2   21 A1    8 B2                 
  1.333   1.334   1.340   1.496   1.671   1.724   1.780   1.924
 22 A1    2 A2    9 B2   12 B1   23 A1   13 B1   14 B1   10 B2                 
  1.967   1.967   1.967   1.994   2.011   2.067   2.120   2.145
 24 A1   15 B1   11 B2   12 B2   25 A1    3 A2   26 A1   16 B1                 
  2.231   2.380   2.462   2.522   2.622   2.629   2.885   2.890
 13 B2   27 A1    4 A2   28 A1   17 B1   29 A1   18 B1   30 A1                 
  3.313   3.392
 31 A1   19 B1                                                                 
 --------------------------------------------------------------
 
          Ground-State Mulliken Net Atomic Charges

     Atom                 Charge (a.u.)
  ----------------------------------------
      1 C                    -0.205658
      2 C                    -0.193696
      3 H                     0.093182
      4 H                     0.106487
      5 H                     0.093182
      6 H                     0.106487
      7 H                    -0.999983
  ----------------------------------------
  Sum of atomic charges =    -1.000000

 -----------------------------------------------------------------
                    Cartesian Multipole Moments
 -----------------------------------------------------------------
    Charge (ESU x 10^10)
                -4.8032
    Dipole Moment (Debye)
         X       0.0000      Y      -0.0000      Z      47.9909
       Tot      47.9909
    Quadrupole Moments (Debye-Ang)
        XX     -15.9187     XY       0.0000     YY     -20.1048
        XZ      -0.0000     YZ      -0.0000     ZZ    -501.0074
    Octopole Moments (Debye-Ang^2)
       XXX       0.0000    XXY       0.0000    XYY       0.0000
       YYY      -0.0000    XXZ      31.9592    XYZ       0.0000
       YYZ      29.3654    XZZ       0.0000    YZZ       0.0000
       ZZZ    4950.7670
    Hexadecapole Moments (Debye-Ang^3)
      XXXX     -32.8056   XXXY       0.0000   XXYY     -10.9965
      XYYY       0.0000   YYYY     -27.6880   XXXZ       0.0000
      XXYZ       0.0000   XYYZ       0.0000   YYYZ       0.0000
      XXZZ    -418.4720   XYZZ       0.0000   YYZZ    -422.5307
      XZZZ      -0.0000   YZZZ      -0.0000   ZZZZ  -51245.2777
 -----------------------------------------------------------------
 Total job time:  411.87s(wall), 1315.57s(cpu) 
 Fri Mar 25 17:47:21 2022

        *************************************************************
        *                                                           *
        *  Thank you very much for using Q-Chem.  Have a nice day.  *
        *                                                           *
        *************************************************************


