/src/tsommerfeld/qchem/exe/qcprog.exe .input1.222222.6548.qcin.1 /src/jdavis/qchem.scratch/qchem6548/

                  Welcome to Q-Chem
     A Quantum Leap Into The Future Of Chemistry


 Q-Chem 5.4 (devel), Q-Chem, Inc., Pleasanton, CA (2021)

 E. Epifanovsky,  A. T. B. Gilbert,  Xintian Feng,  Joonho Lee,  Yuezhi Mao,  
 N. Mardirossian,  P. Pokhilko,  A. White,  M. Wormit,  M. P. Coons,  
 A. L. Dempwolff,  Zhengting Gan,  D. Hait,  P. R. Horn,  L. D. Jacobson,  
 I. Kaliman,  J. Kussmann,  A. W. Lange,  Ka Un Lao,  D. S. Levine,  Jie Liu,  
 S. C. McKenzie,  A. F. Morrison,  K. Nanda,  F. Plasser,  D. R. Rehn,  
 M. L. Vidal,  Zhi-Qiang You,  Ying Zhu,  B. Alam,  B. Albrecht,  
 A. Aldossary,  E. Alguire,  J. H. Andersen,  D. Barton,  K. Begam,  A. Behn,  
 Y. A. Bernard,  E. J. Berquist,  H. Burton,  A. Carreras,  K. Carter-Fenk,  
 R. Chakraborty,  A. D. Chien,  K. D. Closser,  V. Cofer-Shabica,  
 S. Dasgupta,  Jia Deng,  M. de Wergifosse,  M. Diedenhofen,  Hainam Do,  
 S. Ehlert,  Po-Tung Fang,  S. Fatehi,  Qingguo Feng,  T. Friedhoff,  
 J. Gayvert,  Qinghui Ge,  G. Gidofalvi,  M. Goldey,  J. Gomes,  
 C. Gonzalez-Espinoza,  S. Gulania,  A. Gunina,  M. W. D. Hanson-Heine,  
 P. H. P. Harbach,  A. W. Hauser,  M. F. Herbst,  M. Hernandez Vera,  
 M. Hodecker,  Z. C. Holden,  S. Houck,  Xunkun Huang,  Kerwin Hui,  
 B. C. Huynh,  M. Ivanov,  Hyunjun Ji,  Hanjie Jiang,  B. Kaduk,  S. Kaehler,  
 K. Khistyaev,  Jaehoon Kim,  P. Klunzinger,  Z. Koczor-Benda,  
 Joong Hoon Koh,  D. Kosenkov,  L. Koulias,  T. Kowalczyk,  C. M. Krauter,  
 K. Kue,  A. Kunitsa,  T. Kus,  A. Landau,  K. V. Lawler,  D. Lefrancois,  
 S. Lehtola,  Rain Li,  Yi-Pei Li,  Jiashu Liang,  M. Liebenthal,  
 Hung-Hsuan Lin,  You-Sheng Lin,  Fenglai Liu,  Kuan-Yu Liu,  
 M. Loipersberger,  A. Luenser,  A. Manjanath,  P. Manohar,  E. Mansoor,  
 S. F. Manzer,  Shan-Ping Mao,  A. V. Marenich,  T. Markovich,  S. Mason,  
 S. A. Maurer,  P. F. McLaughlin,  M. F. S. J. Menger,  J.-M. Mewes,  
 S. A. Mewes,  P. Morgante,  J. W. Mullinax,  K. J. Oosterbaan,  G. Paran,  
 Alexander C. Paul,  Suranjan K. Paul,  F. Pavosevic,  Zheng Pei,  S. Prager,  
 E. I. Proynov,  E. Ramos,  B. Rana,  A. E. Rask,  A. Rettig,  R. M. Richard,  
 F. Rob,  E. Rossomme,  T. Scheele,  M. Scheurer,  M. Schneider,  
 N. Sergueev,  S. M. Sharada,  W. Skomorowski,  D. W. Small,  C. J. Stein,  
 Yu-Chuan Su,  E. J. Sundstrom,  Zhen Tao,  J. Thirman,  T. Tsuchimochi,  
 N. M. Tubman,  S. P. Veccham,  O. Vydrov,  J. Wenzel,  J. Witte,  A. Yamada,  
 Kun Yao,  S. Yeganeh,  S. R. Yost,  A. Zech,  Igor Ying Zhang,  Xing Zhang,  
 Yu Zhang,  D. Zuev,  A. Aspuru-Guzik,  A. T. Bell,  N. A. Besley,  
 K. B. Bravaya,  B. R. Brooks,  D. Casanova,  Jeng-Da Chai,  S. Coriani,  
 C. J. Cramer,  A. E. DePrince, III,  R. A. DiStasio Jr.,  A. Dreuw,  
 B. D. Dunietz,  T. R. Furlani,  W. A. Goddard III,  S. Grimme,  
 S. Hammes-Schiffer,  T. Head-Gordon,  W. J. Hehre,  Chao-Ping Hsu,  
 T.-C. Jagau,  Yousung Jung,  A. Klamt,  Jing Kong,  D. S. Lambrecht,  
 WanZhen Liang,  N. J. Mayhall,  C. W. McCurdy,  J. B. Neaton,  
 C. Ochsenfeld,  J. A. Parkhill,  R. Peverati,  V. A. Rassolov,  Yihan Shao,  
 L. V. Slipchenko,  T. Stauch,  R. P. Steele,  J. E. Subotnik,  
 A. J. W. Thom,  A. Tkatchenko,  D. G. Truhlar,  T. Van Voorhis,  
 T. A. Wesolowski,  K. B. Whaley,  H. L. Woodcock III,  P. M. Zimmerman,  
 S. Faraji,  P. M. W. Gill,  M. Head-Gordon,  J. M. Herbert,  A. I. Krylov

 Additional authors for Version 5.4.1: 
 S. Kotaru,  Shaozhi Li,  Xiangyuan Li,  F. Matz,  A. Molle,  Haisheng Ren,  
 Yingli Su,  Hung-Yi Tsai,  C. Utku,  Fang Wang

 Contributors to earlier versions of Q-Chem not listed above: 
 R. D. Adamson,  B. Austin,  R. Baer,  J. Baker,  G. J. O. Beran,  
 K. Brandhorst,  S. T. Brown,  E. F. C. Byrd,  A. K. Chakraborty,  
 G. K. L. Chan,  Chun-Min Chang,  Yunqing Chen,  C.-L. Cheng,  
 Siu Hung Chien,  D. M. Chipman,  D. L. Crittenden,  H. Dachsel,  
 R. J. Doerksen,  A. D. Dutoi,  R. G. Edgar,  J. Fosso-Tande,  
 L. Fusti-Molnar,  D. Ghosh,  A. Ghysels,  A. Golubeva-Zadorozhnaya,  
 J. Gonthier,  M. S. Gordon,  S. R. Gwaltney,  G. Hawkins,  J. E. Herr,  
 A. Heyden,  S. Hirata,  E. G. Hohenstein,  G. Kedziora,  F. J. Keil,  
 C. Kelley,  Jihan Kim,  R. A. King,  R. Z. Khaliullin,  P. P. Korambath,  
 W. Kurlancheek,  A. Laurent,  A. M. Lee,  M. S. Lee,  S. V. Levchenko,  
 Ching Yeh Lin,  D. Liotard,  E. Livshits,  R. C. Lochan,  I. Lotan,  
 L. A. Martinez-Martinez,  P. E. Maslen,  N. Nair,  D. P. O'Neill,  
 D. Neuhauser,  E. Neuscamman,  C. M. Oana,  R. Olivares-Amaya,  R. Olson,  
 T. M. Perrine,  B. Peters,  P. A. Pieniazek,  A. Prociuk,  Y. M. Rhee,  
 J. Ritchie,  M. A. Rohrdanz,  E. Rosta,  N. J. Russ,  H. F. Schaefer III,  
 M. W. Schmidt,  N. E. Schultz,  S. Sharma,  N. Shenvi,  C. D. Sherrill,  
 A. C. Simmonett,  A. Sodt,  T. Stein,  D. Stuck,  K. S. Thanthiriwatte,  
 V. Vanovschi,  L. Vogt,  Tao Wang,  A. Warshel,  M. A. Watson,  
 C. F. Williams,  Q. Wu,  X. Xu,  Jun Yang,  W. Zhang,  Yan Zhao

 Please cite Q-Chem as follows:
 Y. Shao et al., Mol. Phys. 113, 184-215 (2015)
 DOI: 10.1080/00268976.2014.952696

 Q-Chem 5.4.1 for Intel X86 EM64T Linux

 Parts of Q-Chem use Armadillo 9.900.5 (Nocturnal Misbehaviour).
 http://arma.sourceforge.net/

 Q-Chem begins on Fri Mar 25 17:18:22 2022  

 Host: node01
0

     Scratch files written to /src/jdavis/qchem.scratch/qchem6548//
 Processing $rem in /src/tsommerfeld/qchem/config/preferences:
 Processing $rem in /home/jdavis/.qchemrc:

 Checking the input file for inconsistencies... 	...done.

--------------------------------------------------------------
User input:
--------------------------------------------------------------
$molecule
-1 1
C         0.0000000000    0.0000000000    0.8417902907
C         0.0000000000    0.0000000000   -0.4872097093
H         0.9623488518    0.0000000000    1.3363703127
H         0.9623489048    0.0000000000   -0.9817896873
H        -0.9623488518    0.0000000000    1.3363703127
H        -0.9623489048    0.0000000000   -0.9817896873
H         0.0000000000    0.0000000000   -10.4872097093
$end

$rem
   METHOD adc(2)
   BASIS gen
   PURECART 11
   EE_STATES [0,0,0,10]
   scf_convergence 8
   ADC_DAVIDSON_MAXITER 120
   ADC_DAVIDSON_MAXSUBSPACE 200
   adc_nguess_singles 100
   THRESH 14
   S2THRESH 14
   adc_davidson_conv 5
   adc_davidson_thresh 14
   THREADS 10
   MEM_TOTAL 95000
   STATE_ANALYSIS TRUE
$end
$basis
C 1
S   9   1.00
      6.665000D+03           6.920000D-04
      1.000000D+03           5.329000D-03
      2.280000D+02           2.707700D-02
      6.471000D+01           1.017180D-01
      2.106000D+01           2.747400D-01
      7.495000D+00           4.485640D-01
      2.797000D+00           2.850740D-01
      5.215000D-01           1.520400D-02
      1.596000D-01          -3.191000D-03
S   9   1.00
      6.665000D+03          -1.460000D-04
      1.000000D+03          -1.154000D-03
      2.280000D+02          -5.725000D-03
      6.471000D+01          -2.331200D-02
      2.106000D+01          -6.395500D-02
      7.495000D+00          -1.499810D-01
      2.797000D+00          -1.272620D-01
      5.215000D-01           5.445290D-01
      1.596000D-01           5.804960D-01
S   1   1.00
      1.596000D-01           1.000000D+00
S   1   1.00
      0.0469000              1.0000000
P   4   1.00
      9.439000D+00           3.810900D-02
      2.002000D+00           2.094800D-01
      5.456000D-01           5.085570D-01
      1.517000D-01           4.688420D-01
P   1   1.00
      1.517000D-01           1.000000D+00
P   1   1.00
      0.0741644      1.0000000
P   1   1.00
      0.0370822      1.0000000
D   1   1.00
      5.500000D-01           1.0000000
****
C 2
S   9   1.00
      6.665000D+03           6.920000D-04
      1.000000D+03           5.329000D-03
      2.280000D+02           2.707700D-02
      6.471000D+01           1.017180D-01
      2.106000D+01           2.747400D-01
      7.495000D+00           4.485640D-01
      2.797000D+00           2.850740D-01
      5.215000D-01           1.520400D-02
      1.596000D-01          -3.191000D-03
S   9   1.00
      6.665000D+03          -1.460000D-04
      1.000000D+03          -1.154000D-03
      2.280000D+02          -5.725000D-03
      6.471000D+01          -2.331200D-02
      2.106000D+01          -6.395500D-02
      7.495000D+00          -1.499810D-01
      2.797000D+00          -1.272620D-01
      5.215000D-01           5.445290D-01
      1.596000D-01           5.804960D-01
S   1   1.00
      1.596000D-01           1.000000D+00
S   1   1.00
      0.0469000              1.0000000
P   4   1.00
      9.439000D+00           3.810900D-02
      2.002000D+00           2.094800D-01
      5.456000D-01           5.085570D-01
      1.517000D-01           4.688420D-01
P   1   1.00
      1.517000D-01           1.000000D+00
P   1   1.00
      0.0741644      1.0000000
P   1   1.00
      0.0370822      1.0000000
D   1   1.00
      5.500000D-01           1.0000000
****
H 3
cc-pVDZ
****
H 4
cc-pVDZ
****
H 5
cc-pVDZ
****
H 6
cc-pVDZ
****
H 7
aug-cc-pVDZ
****
$end
--------------------------------------------------------------
 ----------------------------------------------------------------
             Standard Nuclear Orientation (Angstroms)
    I     Atom           X                Y                Z
 ----------------------------------------------------------------
    1      C       0.0000000000     0.0000000000     1.2918235242
    2      C       0.0000000000     0.0000000000    -0.0371764758
    3      H       0.9623488518     0.0000000000     1.7864035462
    4      H       0.9623489048     0.0000000000    -0.5317564538
    5      H      -0.9623488518     0.0000000000     1.7864035462
    6      H      -0.9623489048     0.0000000000    -0.5317564538
    7      H       0.0000000000     0.0000000000   -10.0371764758
 ----------------------------------------------------------------
 Molecular Point Group                 C2v   NOp =  4
 Largest Abelian Subgroup              C2v   NOp =  4
 Nuclear Repulsion Energy =          34.38697142 hartrees
 There are        9 alpha and        9 beta electrons
 Requested basis set is non-standard
 There are 33 shells and 67 basis functions
 Total memory of 95000 MB is distributed as follows: 
   MEM_STATIC is set to 192 MB
   QALLOC/CCMAN JOB total memory use is  94808 MB
 Warning: actual memory use might exceed 95000 MB

 Total QAlloc Memory Limit  95000 MB
 Mega-Array Size       188 MB
 MEM_STATIC part       192 MB

                       Distance Matrix (Angstroms)
             C (  1)   C (  2)   H (  3)   H (  4)   H (  5)   H (  6)
   C (  2)  1.329000
   H (  3)  1.082000  2.061931
   H (  4)  2.061931  1.082000  2.318160
   H (  5)  1.082000  2.061931  1.924698  3.013026
   H (  6)  2.061931  1.082000  3.013026  1.924698  2.318160
   H (  7) 11.329000 10.000000 11.862679  9.554011 11.862679  9.554011

 
 A cutoff of  1.0D-14 yielded    493 shell pairs
 There are      2095 function pairs (      2232 Cartesian)
 Smallest overlap matrix eigenvalue = 2.54E-04

 Scale SEOQF with 1.000000e-01/1.000000e-01/1.000000e-02

 Standard Electronic Orientation quadrupole field applied
 Nucleus-field energy     =    -0.0000000011 hartrees
 ================ Generating on-the-fly SAD Guess ================
Attempting to make child job directory: /src/jdavis/qchem.scratch/qchem6548//Frg1/
Attempting to make child job directory: /src/jdavis/qchem.scratch/qchem6548//Frg2/
Creating input file /src/jdavis/qchem.scratch/qchem6548/Frg1.input
using default PutDataFrgm: nothing
calling putenv with: QCSCRATCH=/src/jdavis/qchem.scratch/qchem6548/ 
Spawning Job For Fragment 0
Done Job For Fragment 0
calling putenv with: QCSCRATCH=/src/jdavis/qchem.scratch 
calling putenv with: QCTHREADS=1 
Creating input file /src/jdavis/qchem.scratch/qchem6548/Frg2.input
using default PutDataFrgm: nothing
calling putenv with: QCSCRATCH=/src/jdavis/qchem.scratch/qchem6548/ 
Spawning Job For Fragment 1
Done Job For Fragment 1
calling putenv with: QCSCRATCH=/src/jdavis/qchem.scratch 
calling putenv with: QCTHREADS=1 
 Time for running child jobs:  CPU 1.76 s  wall 54.30 s
 ============= Method Specific SAD Guess Constructed =============
 Guess from on-the-fly superposition of atomic densities
 Warning: Energy on first SCF cycle will be non-variational
 A restricted Hartree-Fock SCF calculation will be
 performed using Pulay DIIS extrapolation
 SCF converges when DIIS error is below 1.0E-08
 using 10 threads for integral computing
 -------------------------------------------------------
 OpenMP Integral computing Module                
 Release: version 1.0, May 2013, Q-Chem Inc. Pittsburgh 
 -------------------------------------------------------
 ---------------------------------------
  Cycle       Energy         DIIS Error
 ---------------------------------------
    1     -78.8009386440      7.36E-02
    2     -78.4466793371      6.48E-03
    3     -78.4846243319      1.48E-03
    4     -78.4865619326      4.79E-04
    5     -78.4867376679      7.71E-05
    6     -78.4867459804      1.81E-05
    7     -78.4867464490      8.84E-06
    8     -78.4867465455      1.72E-06
    9     -78.4867465523      5.61E-07
   10     -78.4867465529      1.15E-07
   11     -78.4867465529      1.22E-08
   12     -78.4867465529      1.98E-09 Convergence criterion met
 ---------------------------------------
 SCF time:  CPU 11.68 s  wall 1.17 s
 SCF   energy in the final basis set = -78.48674655
 Total energy in the final basis set = -78.48674655
================================================================================
|                                                                              |
|                                 A D C  M A N                                 |
|                                                                              |
 ------------------------------------------------------------------------------ 
|                                                                              |
| Components:                                                                  |
|                                                                              |
| - libvmm - 1.3-trunk                                                         |
|   Authors:                                                                   |
|   Evgeny Epifanovsky, Ilya Kaliman                                           |
|                                                                              |
| - libtensor - 2.5-trunk                                                      |
|   Authors:                                                                   |
|   Evgeny Epifanovsky, Michael Wormit, Dmitry Zuev, Sam Manzer,               |
|   Ilya Kaliman                                                               |
|                                                                              |
| - libwfa - 1.1-trunk                                                         |
|   Authors:                                                                   |
|   Felix Plasser, Stefanie Mewes (Baeppler), Benjamin Thomitzni,              |
|   Michael Wormit, Feng Chen, Anna I. Krylov, Pavel Pokhilko                  |
|                                                                              |
| - libadc - 1.1-trunk                                                         |
|   Authors:                                                                   |
|   Michael Wormit, Adrian L. Dempwolff, Philipp H. P. Harbach,                |
|   Caroline Krauter, Dirk Rehn, Matthias Schneider, Jan Wenzel                |
|                                                                              |
| - adcman - 2.6-trunk                                                         |
|   Authors:                                                                   |
|   Michael Wormit, Adrian L. Dempwolff, Philipp H. P. Harbach,                |
|   Caroline Krauter, Daniel Lefrancois, Jan-Michael Mewes, Dirk Rehn,         |
|   Matthias Schneider, Jan Wenzel, Andreas Dreuw                              |
|                                                                              |
| Authors of earlier versions of ADCMAN:                                       |
| Andreas Dreuw, Jan Hendrik Starcke, Dirk Rehn, Michael Wormit                |
|                                                                              |
================================================================================

 
 Alpha MOs, Restricted
 -- Occupied --                  
-11.187 -11.185  -0.992  -0.732  -0.611  -0.517  -0.465  -0.327
  1 A1    2 A1    3 A1    4 A1    1 B1    5 A1    2 B1    1 B2                 
  0.022
  6 A1                                                                         
 -- Virtual --                   
  0.111   0.123   0.132   0.146   0.147   0.157   0.181   0.225
  7 A1    3 B1    2 B2    8 A1    3 B2    4 B1    9 A1    4 B2                 
  0.259   0.312   0.349   0.358   0.378   0.382   0.384   0.392
 10 A1   11 A1    5 B1   12 A1   13 A1    5 B2    6 B1    7 B1                 
  0.420   0.465   0.604   0.662   0.879   0.904   0.979   0.984
 14 A1    6 B2    8 B1   15 A1   16 A1    9 B1   17 A1   18 A1                 
  1.058   1.058   1.081   1.097   1.132   1.164   1.175   1.175
 10 B1   19 A1   11 B1   20 A1    7 B2    1 A2   21 A1    8 B2                 
  1.323   1.334   1.338   1.475   1.670   1.703   1.776   1.922
 22 A1    2 A2    9 B2   12 B1   23 A1   13 B1   14 B1   10 B2                 
  1.967   1.967   1.967   1.993   2.006   2.067   2.112   2.141
 24 A1   15 B1   11 B2   12 B2   25 A1    3 A2   26 A1   16 B1                 
  2.230   2.377   2.462   2.518   2.628   2.628   2.875   2.882
 13 B2   27 A1    4 A2   28 A1   17 B1   29 A1   18 B1   30 A1                 
  3.307   3.390
 31 A1   19 B1                                                                 
 
 Beta MOs, Restricted
 -- Occupied --                  
-11.187 -11.185  -0.992  -0.732  -0.611  -0.517  -0.465  -0.327
  1 A1    2 A1    3 A1    4 A1    1 B1    5 A1    2 B1    1 B2                 
  0.022
  6 A1                                                                         
 -- Virtual --                   
  0.111   0.123   0.132   0.146   0.147   0.157   0.181   0.225
  7 A1    3 B1    2 B2    8 A1    3 B2    4 B1    9 A1    4 B2                 
  0.259   0.312   0.349   0.358   0.378   0.382   0.384   0.392
 10 A1   11 A1    5 B1   12 A1   13 A1    5 B2    6 B1    7 B1                 
  0.420   0.465   0.604   0.662   0.879   0.904   0.979   0.984
 14 A1    6 B2    8 B1   15 A1   16 A1    9 B1   17 A1   18 A1                 
  1.058   1.058   1.081   1.097   1.132   1.164   1.175   1.175
 10 B1   19 A1   11 B1   20 A1    7 B2    1 A2   21 A1    8 B2                 
  1.323   1.334   1.338   1.475   1.670   1.703   1.776   1.922
 22 A1    2 A2    9 B2   12 B1   23 A1   13 B1   14 B1   10 B2                 
  1.967   1.967   1.967   1.993   2.006   2.067   2.112   2.141
 24 A1   15 B1   11 B2   12 B2   25 A1    3 A2   26 A1   16 B1                 
  2.230   2.377   2.462   2.518   2.628   2.628   2.875   2.882
 13 B2   27 A1    4 A2   28 A1   17 B1   29 A1   18 B1   30 A1                 
  3.307   3.390
 31 A1   19 B1                                                                 

--------------------------------------------------------------------------------
                                   HF Summary                                   
--------------------------------------------------------------------------------
  Energy:                                                  -78.4867465529 a.u.
  Dip. moment [a.u.]:                  [  -0.000000,   -0.000000,   18.880844]
  Total dipole [Debye]:                                              47.990328
  <r^2> [a.u.]:                        [  25.065716,   14.942996,  792.848065]
  Total <r^2> [a.u.]:                                               832.856777
--------------------------------------------------------------------------------

--------------------------------------------------------------------------------
                                 MP(2) Summary                                  
--------------------------------------------------------------------------------
  MP energy contribution:                                   -0.2989480099 a.u.
  Total energy:                                            -78.7856945628 a.u.
  Dip. moment [a.u.]:                  [   0.000000,    0.000000,   18.886615]
  Total dipole [Debye]:                                              48.004997
  <r^2> [a.u.]:                        [  25.054031,   14.751009,  792.897966]
  Total <r^2> [a.u.]:                                               832.703006

  Density matrix analysis:
  ------------------------
  NOs
    Occupation of frontier NOs:
       0.0447   1.9371
    Number of electrons: 18.000000
    Number of unpaired electrons: n_u =  0.43220, n_u,nl =  0.04676
    NO participation ratio (PR_NO): 15.332304
  
  
  Mulliken Population Analysis
  Atom      Charge (e)              h+              e-           Del q
  --------------------------------------------------------------------
   1 C       -0.206653        0.090266       -0.101585       -0.011319
   2 C       -0.200642        0.085023       -0.103490       -0.018467
   3 H        0.095249        0.018054       -0.010572        0.007482
   4 H        0.108379        0.017811       -0.010401        0.007410
   5 H        0.095249        0.018054       -0.010572        0.007482
   6 H        0.108379        0.017811       -0.010401        0.007410
   7 H       -0.999961        0.021955       -0.021953        0.000002
  --------------------------------------------------------------------
  Sum:       -1.000000        0.268974       -0.268974       -0.000000
  
  Multipole moment analysis of the density matrix
    Molecular charge:                      -1.000000
    Number of electrons:                   18.000000
      Center of electronic charge [Ang]: [ -0.000000,  -0.000000,  -0.555243]
    Total nuclear charge:                  17.000000
      Center of nuclear charge [Ang]:    [ -0.000000,   0.000000,  -0.000000]
    Dipole moment [D]:                     48.004983
      Cartesian components [D]:          [  0.000000,   0.000000,  48.004983]
    RMS size of the density [Ang]:         3.556147
      Cartesian components [Ang]:        [  0.624315,   0.479044,   3.467986]
  
  Exciton analysis of the difference density matrix
    <r_h> [Ang]:                  [  0.000000,  -0.000000,  -0.230887]
    <r_e> [Ang]:                  [ -0.000000,  -0.000000,  -0.242242]
    |<r_e - r_h>| [Ang]:            0.011354
    Hole size [Ang]:                3.250114
      Cartesian components [Ang]: [  0.733650,   0.754204,   3.075089]
    Electron size [Ang]:            3.224558
      Cartesian components [Ang]: [  0.725311,   0.607409,   3.082654]
--------------------------------------------------------------------------------
  Starting Davidson for singlet states of irrep B2 ... 
--------------------------------------------------------------------------------
   It NVec Conv  Avg. Norm  Max. Norm  Conv. states           Remark
--------------------------------------------------------------------------------
       100    0  1.027e-01  4.613e-01  0.0825 n n n n n n n n Guess.
    1  110    0  5.266e-03  2.863e-02  0.0549 n n n n n n n n 
    2  120    0  2.666e-02  2.272e-01  0.0547 n n n n n n n n 
    3  130    5  2.279e-02  1.844e-01  0.0547 y y y n n y n n 
    4  140    5  4.046e-02  2.115e-01  0.0547 y y y n n n y y 
    5  150    6  2.895e-02  1.976e-01  0.0547 y y y n n n y y 
    6  160    5  2.279e-02  1.830e-01  0.0547 y y y n n n n y 
    7  170    5  2.693e-02  1.957e-01  0.0547 y y y n n n n y 
    8  180    4  2.944e-02  1.662e-01  0.0547 y y y n n n n n 
    9  190    1  2.100e-02  1.741e-01  0.0547 n n n n n n n n 
   10  200    1  4.133e-02  2.840e-01  0.0547 n n n n n n n n 
   11   20    1  1.292e-02  1.116e-01  0.0547 n n n n n n n n Subspace collapsed.
   12   30    3  1.061e-02  8.621e-02  0.0547 y y n n n n n n 
   13   40    3  9.933e-03  8.295e-02  0.0547 y y n n n n n n 
   14   50    5  7.969e-03  6.065e-02  0.0547 y y y n n n n y 
   15   60    6  6.926e-03  4.997e-02  0.0547 y y y n n n y y 
   16   70    6  6.110e-03  4.690e-02  0.0547 y y y n n n y y 
   17   80    6  5.587e-03  4.528e-02  0.0547 y y y n n n y y 
   18   90    6  5.032e-03  4.408e-02  0.0547 y y y n n n y y 
   19  100    6  4.881e-03  4.282e-02  0.0547 y y y n n n y y 
   20  110    7  4.689e-03  4.235e-02  0.0547 y y y n n y y y 
   21  120    7  4.400e-03  4.084e-02  0.0547 y y y n n y y y 
   22  130    8  4.193e-03  4.034e-02  0.0547 y y y n n y y y 
   23  140    8  3.626e-03  3.577e-02  0.0547 y y y n n y y y 
   24  150    8  3.210e-03  3.206e-02  0.0547 y y y n n y y y 
   25  160    4  3.111e-03  3.111e-02  0.0547 y y y n n n n n 
   26  170    4  2.624e-03  2.624e-02  0.0547 y y y n n n n n 
   27  180    4  1.048e-03  1.048e-02  0.0547 y y y n n n n n 
   28  190    4  2.240e-04  2.236e-03  0.0547 y y y n n n n n 
   29  200    4  1.971e-05  1.482e-04  0.0547 y y y n n n n n 
   30   20    4  1.228e-05  1.005e-04  0.0547 y y y n n n n n Subspace collapsed.
   31   30    7  8.500e-06  6.974e-05  0.0547 y y y y y y n n 
   32   40    9  1.860e-06  1.620e-05  0.0547 y y y y y y y y 
   33   50    9  1.070e-06  1.003e-05  0.0547 y y y y y y y y 
   34   60   10  7.442e-07  6.917e-06  0.0547 y y y y y y y y Converged.
--------------------------------------------------------------------------------
  Davidson Summary: 
 ------------------------------------------------------------
  State  0: excitation energy =   0.0547 a.u.   (converged)
  State  1: excitation energy =   0.0591 a.u.   (converged)
  State  2: excitation energy =   0.1175 a.u.   (converged)
  State  3: excitation energy =   0.1996 a.u.   (converged)
  State  4: excitation energy =   0.2142 a.u.   (converged)
  State  5: excitation energy =   0.2346 a.u.   (converged)
  State  6: excitation energy =   0.2492 a.u.   (converged)
  State  7: excitation energy =   0.2699 a.u.   (converged)
  State  8: excitation energy =   0.2835 a.u.   (converged)
  State  9: excitation energy =   0.2845 a.u.   (converged)
 ------------------------------------------------------------


--------------------------------------------------------------------------------
                   State-averaged natural transition orbitals
--------------------------------------------------------------------------------
--------------------------------------------------------------------------------

--------------------------------------------------------------------------------
                             Excited State Summary
--------------------------------------------------------------------------------
--------------------------------------------------------------------------------

  Excited state 1 (singlet, B2)                                    [converged]
  ----------------------------------------------------------------------------
  Term symbol:  1 (1) B2                                    R^2 =  1.16977e-08

  Total energy:                                            -78.7309689956 a.u.
  Excitation energy:                                               1.489158 eV

  Osc. strength:                                                      0.000002
  Trans. dip. moment [a.u.]:           [   0.000000,   -0.007108,   -0.000000]
  <i|r^2|0> [a.u.]:                    [   0.000000,    0.000000,   -0.000000]

  Dip. moment [a.u.]:                  [   0.000000,    0.000000,   -1.230598]
  Total dipole [Debye]:                                               3.127868
  <r^2> [a.u.]:                        [  28.852950,   27.548104,  448.578190]
  Total <r^2> [a.u.]:                                               504.979244

  V1^2 = 0.9613, V2^2 = 0.0387

  Important amplitudes:
      occ i      occ j       vir a       vir b          v   
    ---------------------------------------------------------
     6 (A1) A               3 (B2) A                  0.5902
     6 (A1) A               2 (B2) A                 -0.3097
    ---------------------------------------------------------

  Density matrix analysis:
  ------------------------
  NOs
    Occupation of frontier NOs:
       0.9913   1.0014
    Number of electrons: 18.000000
    Number of unpaired electrons: n_u =  2.41286, n_u,nl =  2.04462
    NO participation ratio (PR_NO):  2.923426
  
  
  Mulliken Population Analysis
  Atom      Charge (e)              h+              e-           Del q
  --------------------------------------------------------------------
   1 C       -0.636471        0.105000       -0.534819       -0.429818
   2 C       -0.632822        0.103199       -0.535380       -0.432180
   3 H        0.064386        0.003982       -0.034845       -0.030863
   4 H        0.070237        0.003811       -0.041953       -0.038142
   5 H        0.064386        0.003982       -0.034845       -0.030863
   6 H        0.070237        0.003811       -0.041953       -0.038142
   7 H        0.000048        1.019365       -0.019355        1.000009
  --------------------------------------------------------------------
  Sum:       -1.000000        1.243151       -1.243151       -0.000000
  
  Multipole moment analysis of the density matrix
    Molecular charge:                      -1.000000
    Number of electrons:                   18.000000
      Center of electronic charge [Ang]: [ -0.000000,  -0.000000,   0.036178]
    Total nuclear charge:                  17.000000
      Center of nuclear charge [Ang]:    [ -0.000000,   0.000000,  -0.000000]
    Dipole moment [D]:                     3.127867
      Cartesian components [D]:          [  0.000000,   0.000000,  -3.127867]
    RMS size of the density [Ang]:         2.802628
      Cartesian components [Ang]:        [  0.669977,   0.654652,   2.641455]
  
  Exciton analysis of the difference density matrix
    <r_h> [Ang]:                  [  0.000000,   0.000000,  -8.120103]
    <r_e> [Ang]:                  [  0.000000,  -0.000000,   0.443273]
    |<r_e - r_h>| [Ang]:            8.563377
    Hole size [Ang]:                4.283477
      Cartesian components [Ang]: [  0.711325,   0.712716,   4.163439]
    Electron size [Ang]:            3.204009
      Cartesian components [Ang]: [  1.166926,   1.841358,   2.348054]

  Transition density matrix analysis:
  -----------------------------------
  
  CT numbers (Mulliken)
    omega =     0.9473
    <Phe> =     0.0000
  
  Exciton analysis of the transition density matrix
    Trans. dipole moment [D]:             0.009034
      Cartesian components [D]:         [  0.000000,  -0.009034,  -0.000000]
    <r_h> [Ang]:                        [ -0.000000,   0.000000, -10.037010]
    <r_e> [Ang]:                        [  0.000000,  -0.000000,   0.628336]
    |<r_e - r_h>| [Ang]:                 10.665346
    Hole size [Ang]:                      1.110467
      Cartesian components [Ang]:       [  0.640849,   0.640848,   0.641689]
    Electron size [Ang]:                  3.105392
      Cartesian components [Ang]:       [  1.160327,   2.001240,   2.071748]
    RMS electron-hole separation [Ang]:  11.163614
      Cartesian components [Ang]:       [  1.325536,   2.101339,  10.883639]
    Covariance(r_h, r_e) [Ang^2]:        -0.000034
    Correlation coefficient:             -0.000010
    Center-of-mass size [Ang]:            1.648979
      Cartesian components [Ang]:       [  0.662768,   1.050675,   1.084414]

  Decomposition into state-averaged NTOs
    H- 0 -> L+ 0: -0.5023 ( 50.5%)
    H- 0 -> L+ 3: -0.4538 ( 41.2%)
    H- 0 -> L+ 1: -0.1244 (  3.1%)
                   omega =  94.7%
  ----------------------------------------------------------------------------


  Excited state 2 (singlet, B2)                                    [converged]
  ----------------------------------------------------------------------------
  Term symbol:  2 (1) B2                                    R^2 =  5.05674e-09

  Total energy:                                            -78.7266016143 a.u.
  Excitation energy:                                               1.608001 eV

  Osc. strength:                                                      0.000000
  Trans. dip. moment [a.u.]:           [   0.000000,   -0.001435,   -0.000000]
  <i|r^2|0> [a.u.]:                    [   0.000000,   -0.000000,   -0.000000]

  Dip. moment [a.u.]:                  [   0.000000,   -0.000000,   -1.184997]
  Total dipole [Debye]:                                               3.011962
  <r^2> [a.u.]:                        [  33.808828,   44.038849,  443.822303]
  Total <r^2> [a.u.]:                                               521.669980

  V1^2 = 0.9791, V2^2 = 0.0209

  Important amplitudes:
      occ i      occ j       vir a       vir b          v   
    ---------------------------------------------------------
     6 (A1) A               2 (B2) A                  0.6148
     6 (A1) A               3 (B2) A                  0.3319
    ---------------------------------------------------------

  Density matrix analysis:
  ------------------------
  NOs
    Occupation of frontier NOs:
       0.9958   1.0019
    Number of electrons: 18.000000
    Number of unpaired electrons: n_u =  2.41185, n_u,nl =  2.04820
    NO participation ratio (PR_NO):  2.907854
  
  
  Mulliken Population Analysis
  Atom      Charge (e)              h+              e-           Del q
  --------------------------------------------------------------------
   1 C       -0.658172        0.033429       -0.484949       -0.451519
   2 C       -0.678652        0.030655       -0.508665       -0.478010
   3 H        0.081375       -0.001383       -0.012491       -0.013874
   4 H        0.087008       -0.001508       -0.019863       -0.021371
   5 H        0.081375       -0.001383       -0.012491       -0.013874
   6 H        0.087008       -0.001508       -0.019863       -0.021371
   7 H        0.000058        1.020887       -0.020868        1.000019
  --------------------------------------------------------------------
  Sum:       -1.000000        1.079189       -1.079189       -0.000000
  
  Multipole moment analysis of the density matrix
    Molecular charge:                      -1.000000
    Number of electrons:                   18.000000
      Center of electronic charge [Ang]: [ -0.000000,   0.000000,   0.034837]
    Total nuclear charge:                  17.000000
      Center of nuclear charge [Ang]:    [ -0.000000,   0.000000,  -0.000000]
    Dipole moment [D]:                     3.011961
      Cartesian components [D]:          [  0.000000,  -0.000000,  -3.011961]
    RMS size of the density [Ang]:         2.848592
      Cartesian components [Ang]:        [  0.725237,   0.827719,   2.627431]
  
  Exciton analysis of the difference density matrix
    <r_h> [Ang]:                  [ -0.000000,   0.000000,  -9.462102]
    <r_e> [Ang]:                  [ -0.000000,   0.000000,   0.379951]
    |<r_e - r_h>| [Ang]:            9.842053
    Hole size [Ang]:                2.702428
      Cartesian components [Ang]: [  0.704556,   0.702557,   2.512594]
    Electron size [Ang]:            3.997894
      Cartesian components [Ang]: [  1.663760,   2.844856,   2.263151]

  Transition density matrix analysis:
  -----------------------------------
  
  CT numbers (Mulliken)
    omega =     0.9725
    <Phe> =     0.0001
  
  Exciton analysis of the transition density matrix
    Trans. dipole moment [D]:             0.001824
      Cartesian components [D]:         [  0.000000,  -0.001824,  -0.000000]
    <r_h> [Ang]:                        [ -0.000000,   0.000000, -10.036549]
    <r_e> [Ang]:                        [ -0.000000,   0.000000,   0.611989]
    |<r_e - r_h>| [Ang]:                 10.648538
    Hole size [Ang]:                      1.112821
      Cartesian components [Ang]:       [  0.640914,   0.640930,   0.645607]
    Electron size [Ang]:                  3.833113
      Cartesian components [Ang]:       [  1.704345,   2.952139,   1.752951]
    RMS electron-hole separation [Ang]:  11.372439
      Cartesian components [Ang]:       [  1.820869,   3.020910,  10.811610]
    Covariance(r_h, r_e) [Ang^2]:        -0.004943
    Correlation coefficient:             -0.001159
    Center-of-mass size [Ang]:            1.995072
      Cartesian components [Ang]:       [  0.910435,   1.510458,   0.932703]

  Decomposition into state-averaged NTOs
    H- 0 -> L+ 1:  0.6768 ( 91.6%)
    H- 0 -> L+ 0: -0.1678 (  5.6%)
                   omega =  97.3%
  ----------------------------------------------------------------------------


  Excited state 3 (singlet, B2)                                    [converged]
  ----------------------------------------------------------------------------
  Term symbol:  3 (1) B2                                    R^2 =  8.83647e-09

  Total energy:                                            -78.6681672114 a.u.
  Excitation energy:                                               3.198082 eV

  Osc. strength:                                                      0.000007
  Trans. dip. moment [a.u.]:           [   0.000000,   -0.009701,    0.000000]
  <i|r^2|0> [a.u.]:                    [   0.000000,    0.000000,    0.000000]

  Dip. moment [a.u.]:                  [   0.000000,   -0.000000,   -1.221861]
  Total dipole [Debye]:                                               3.105661
  <r^2> [a.u.]:                        [  30.238916,   31.405644,  452.368665]
  Total <r^2> [a.u.]:                                               514.013225

  V1^2 = 0.9555, V2^2 = 0.0445

  Important amplitudes:
      occ i      occ j       vir a       vir b          v   
    ---------------------------------------------------------
     6 (A1) A               4 (B2) A                 -0.6551
     6 (A1) A               3 (B2) A                  0.1688
    ---------------------------------------------------------

  Density matrix analysis:
  ------------------------
  NOs
    Occupation of frontier NOs:
       0.9875   1.0012
    Number of electrons: 18.000000
    Number of unpaired electrons: n_u =  2.42388, n_u,nl =  2.04766
    NO participation ratio (PR_NO):  2.959433
  
  
  Mulliken Population Analysis
  Atom      Charge (e)              h+              e-           Del q
  --------------------------------------------------------------------
   1 C       -0.611867        0.110341       -0.515554       -0.405214
   2 C       -0.610934        0.117604       -0.527896       -0.410293
   3 H        0.052539        0.002796       -0.045506       -0.042710
   4 H        0.058837        0.002547       -0.052089       -0.049542
   5 H        0.052539        0.002796       -0.045506       -0.042710
   6 H        0.058837        0.002547       -0.052089       -0.049542
   7 H        0.000049        1.018851       -0.018841        1.000010
  --------------------------------------------------------------------
  Sum:       -1.000000        1.257482       -1.257482       -0.000000
  
  Multipole moment analysis of the density matrix
    Molecular charge:                      -1.000000
    Number of electrons:                   18.000000
      Center of electronic charge [Ang]: [ -0.000000,   0.000000,   0.035921]
    Total nuclear charge:                  17.000000
      Center of nuclear charge [Ang]:    [ -0.000000,   0.000000,  -0.000000]
    Dipole moment [D]:                     3.105660
      Cartesian components [D]:          [  0.000000,  -0.000000,  -3.105660]
    RMS size of the density [Ang]:         2.827594
      Cartesian components [Ang]:        [  0.685880,   0.698986,   2.652597]
  
  Exciton analysis of the difference density matrix
    <r_h> [Ang]:                  [ -0.000000,  -0.000000,  -8.019721]
    <r_e> [Ang]:                  [ -0.000000,   0.000000,   0.442383]
    |<r_e - r_h>| [Ang]:            8.462104
    Hole size [Ang]:                4.345123
      Cartesian components [Ang]: [  0.693450,   0.674694,   4.236037]
    Electron size [Ang]:            3.468623
      Cartesian components [Ang]: [  1.278864,   2.040595,   2.496362]

  Transition density matrix analysis:
  -----------------------------------
  
  CT numbers (Mulliken)
    omega =     0.9414
    <Phe> =     0.0000
  
  Exciton analysis of the transition density matrix
    Trans. dipole moment [D]:             0.012329
      Cartesian components [D]:         [  0.000000,  -0.012329,   0.000000]
    <r_h> [Ang]:                        [ -0.000000,   0.000000, -10.037010]
    <r_e> [Ang]:                        [  0.000000,   0.000000,   0.626509]
    |<r_e - r_h>| [Ang]:                 10.663519
    Hole size [Ang]:                      1.110425
      Cartesian components [Ang]:       [  0.640824,   0.640823,   0.641666]
    Electron size [Ang]:                  3.506954
      Cartesian components [Ang]:       [  1.317000,   2.273180,   2.323120]
    RMS electron-hole separation [Ang]:  11.280179
      Cartesian components [Ang]:       [  1.464631,   2.361776,  10.932489]
    Covariance(r_h, r_e) [Ang^2]:        -0.000020
    Correlation coefficient:             -0.000005
    Center-of-mass size [Ang]:            1.839275
      Cartesian components [Ang]:       [  0.732316,   1.180892,   1.205048]

  Decomposition into state-averaged NTOs
    H- 0 -> L+ 3:  0.5004 ( 50.1%)
    H- 0 -> L+ 0: -0.4558 ( 41.5%)
    H- 0 -> L+ 1: -0.1120 (  2.5%)
                   omega =  94.1%
  ----------------------------------------------------------------------------


  Excited state 4 (singlet, B2)                                    [converged]
  ----------------------------------------------------------------------------
  Term symbol:  4 (1) B2                                    R^2 =  1.48260e-06

  Total energy:                                            -78.5861222438 a.u.
  Excitation energy:                                               5.430639 eV

  Osc. strength:                                                      0.000000
  Trans. dip. moment [a.u.]:           [   0.000000,   -0.000015,   -0.000000]
  <i|r^2|0> [a.u.]:                    [  -0.000000,    0.000000,   -0.000000]

  Dip. moment [a.u.]:                  [  -0.000000,    0.000000,  -29.097441]
  Total dipole [Debye]:                                              73.958331
  <r^2> [a.u.]:                        [  42.202928,   51.374807,  149.929282]
  Total <r^2> [a.u.]:                                               243.507017

  V1^2 = 0.0001, V2^2 = 0.9999

  Important amplitudes:
      occ i      occ j       vir a       vir b          v   
    ---------------------------------------------------------
     6 (A1) A   6 (A1) B    7 (A1) A    2 (B2) B     -0.3535
     6 (A1) A               2 (B2) A                 -0.0053
    ---------------------------------------------------------

  Density matrix analysis:
  ------------------------
  NOs
    Occupation of frontier NOs:
       1.0008   1.0026
    Number of electrons: 18.000000
    Number of unpaired electrons: n_u =  2.40250, n_u,nl =  2.04861
    NO participation ratio (PR_NO):  2.877559
  
  
  Mulliken Population Analysis
  Atom      Charge (e)              h+              e-           Del q
  --------------------------------------------------------------------
   1 C       -1.546793        0.000067       -1.340207       -1.340140
   2 C       -0.811500       -0.000030       -0.610828       -0.610858
   3 H        0.082091       -0.000000       -0.013158       -0.013158
   4 H        0.097071        0.000000       -0.011308       -0.011308
   5 H        0.082091       -0.000000       -0.013158       -0.013158
   6 H        0.097071        0.000000       -0.011308       -0.011308
   7 H        0.999970        1.999932       -0.000001        1.999931
  --------------------------------------------------------------------
  Sum:       -1.000000        1.999968       -1.999968       -0.000000
  
  Multipole moment analysis of the density matrix
    Molecular charge:                      -1.000000
    Number of electrons:                   18.000000
      Center of electronic charge [Ang]: [  0.000000,  -0.000000,   0.855428]
    Total nuclear charge:                  17.000000
      Center of nuclear charge [Ang]:    [ -0.000000,   0.000000,  -0.000000]
    Dipole moment [D]:                     73.958309
      Cartesian components [D]:          [ -0.000000,   0.000000, -73.958309]
    RMS size of the density [Ang]:         1.748289
      Cartesian components [Ang]:        [  0.810282,   0.894005,   1.265193]
  
  Exciton analysis of the difference density matrix
    <r_h> [Ang]:                  [  0.000000,   0.000000, -10.037016]
    <r_e> [Ang]:                  [  0.000000,   0.000000,   2.659220]
    |<r_e - r_h>| [Ang]:           12.696236
    Hole size [Ang]:                1.111864
      Cartesian components [Ang]: [  0.641582,   0.641584,   0.642638]
    Electron size [Ang]:            3.522690
      Cartesian components [Ang]: [  1.677127,   2.353628,   2.014205]

  Transition density matrix analysis:
  -----------------------------------
  
  CT numbers (Mulliken)
    omega =     0.0001
    <Phe> =     0.0001
  
  Exciton analysis of the transition density matrix
    Trans. dipole moment [D]:             0.000019
      Cartesian components [D]:         [  0.000000,  -0.000019,  -0.000000]
    <r_h> [Ang]:                        [ -0.000000,   0.000000, -10.037086]
    <r_e> [Ang]:                        [  0.000000,   0.000000,   2.137540]
    |<r_e - r_h>| [Ang]:                 12.174626
    Hole size [Ang]:                      1.081049
      Cartesian components [Ang]:       [  0.622698,   0.622716,   0.627008]
    Electron size [Ang]:                  3.589994
      Cartesian components [Ang]:       [  1.648576,   2.855471,   1.420048]
    RMS electron-hole separation [Ang]:  12.739314
      Cartesian components [Ang]:       [  1.762259,   2.922583,  12.273674]
    Covariance(r_h, r_e) [Ang^2]:        -0.005947
    Correlation coefficient:             -0.001532
    Center-of-mass size [Ang]:            1.873821
      Cartesian components [Ang]:       [  0.881129,   1.461292,   0.774238]

  Decomposition into state-averaged NTOs
                   omega =   0.0%
  ----------------------------------------------------------------------------


  Excited state 5 (singlet, B2)                                    [converged]
  ----------------------------------------------------------------------------
  Term symbol:  5 (1) B2                                    R^2 =  5.21560e-07

  Total energy:                                            -78.5715115088 a.u.
  Excitation energy:                                               5.828217 eV

  Osc. strength:                                                      0.000000
  Trans. dip. moment [a.u.]:           [  -0.000000,    0.000015,    0.000000]
  <i|r^2|0> [a.u.]:                    [  -0.000000,   -0.000000,    0.000000]

  Dip. moment [a.u.]:                  [  -0.000000,   -0.000000,  -24.178565]
  Total dipole [Debye]:                                              61.455793
  <r^2> [a.u.]:                        [  39.877692,   44.359226,  143.284098]
  Total <r^2> [a.u.]:                                               227.521017

  V1^2 = 0.0000, V2^2 = 1.0000

  Important amplitudes:
      occ i      occ j       vir a       vir b          v   
    ---------------------------------------------------------
     6 (A1) A   6 (A1) B    7 (A1) A    3 (B2) B     -0.3535
     6 (A1) A               3 (B2) A                 -0.0048
    ---------------------------------------------------------

  Density matrix analysis:
  ------------------------
  NOs
    Occupation of frontier NOs:
       1.0008   1.0070
    Number of electrons: 18.000000
    Number of unpaired electrons: n_u =  2.39383, n_u,nl =  2.04704
    NO participation ratio (PR_NO):  2.869872
  
  
  Mulliken Population Analysis
  Atom      Charge (e)              h+              e-           Del q
  --------------------------------------------------------------------
   1 C       -0.011360        0.000059        0.195234        0.195293
   2 C       -2.343941       -0.000026       -2.143273       -2.143299
   3 H        0.081013       -0.000000       -0.014235       -0.014236
   4 H        0.096649        0.000000       -0.011730       -0.011730
   5 H        0.081013       -0.000000       -0.014235       -0.014236
   6 H        0.096649        0.000000       -0.011730       -0.011730
   7 H        0.999977        1.999939       -0.000001        1.999938
  --------------------------------------------------------------------
  Sum:       -1.000000        1.999971       -1.999971       -0.000000
  
  Multipole moment analysis of the density matrix
    Molecular charge:                      -1.000000
    Number of electrons:                   18.000000
      Center of electronic charge [Ang]: [  0.000000,   0.000000,   0.710819]
    Total nuclear charge:                  17.000000
      Center of nuclear charge [Ang]:    [ -0.000000,   0.000000,  -0.000000]
    Dipole moment [D]:                     61.455775
      Cartesian components [D]:          [ -0.000000,  -0.000000, -61.455775]
    RMS size of the density [Ang]:         1.741928
      Cartesian components [Ang]:        [  0.787644,   0.830724,   1.312946]
  
  Exciton analysis of the difference density matrix
    <r_h> [Ang]:                  [  0.000000,   0.000000, -10.037041]
    <r_e> [Ang]:                  [  0.000000,   0.000000,   1.357678]
    |<r_e - r_h>| [Ang]:           11.394719
    Hole size [Ang]:                1.111725
      Cartesian components [Ang]: [  0.641582,   0.641583,   0.642399]
    Electron size [Ang]:            3.924222
      Cartesian components [Ang]: [  1.577080,   2.134774,   2.890515]

  Transition density matrix analysis:
  -----------------------------------
  
  CT numbers (Mulliken)
    omega =     0.0000
    <Phe> =     0.0000
  
  Exciton analysis of the transition density matrix
    Trans. dipole moment [D]:             0.000019
      Cartesian components [D]:         [ -0.000000,   0.000019,   0.000000]
    <r_h> [Ang]:                        [ -0.000000,   0.000000, -10.037544]
    <r_e> [Ang]:                        [ -0.000000,   0.000000,  -0.669843]
    |<r_e - r_h>| [Ang]:                  9.367701
    Hole size [Ang]:                      1.075767
      Cartesian components [Ang]:       [  0.620890,   0.620893,   0.621500]
    Electron size [Ang]:                  3.779607
      Cartesian components [Ang]:       [  1.553171,   2.689289,   2.154256]
    RMS electron-hole separation [Ang]:  10.158633
      Cartesian components [Ang]:       [  1.672676,   2.760062,   9.632343]
    Covariance(r_h, r_e) [Ang^2]:        -0.000644
    Correlation coefficient:             -0.000158
    Center-of-mass size [Ang]:            1.964779
      Cartesian components [Ang]:       [  0.836338,   1.380002,   1.120931]

  Decomposition into state-averaged NTOs
                   omega =   0.0%
  ----------------------------------------------------------------------------


  Excited state 6 (singlet, B2)                                    [converged]
  ----------------------------------------------------------------------------
  Term symbol:  6 (1) B2                                    R^2 =  1.00036e-06

  Total energy:                                            -78.5511415492 a.u.
  Excitation energy:                                               6.382512 eV

  Osc. strength:                                                      0.000000
  Trans. dip. moment [a.u.]:           [   0.000000,    0.000006,    0.000000]
  <i|r^2|0> [a.u.]:                    [   0.000000,    0.000000,    0.000000]

  Dip. moment [a.u.]:                  [  -0.000000,    0.000000,  -19.327376]
  Total dipole [Debye]:                                              49.125298
  <r^2> [a.u.]:                        [  40.039415,   50.534592,  119.831653]
  Total <r^2> [a.u.]:                                               210.405660

  V1^2 = 0.0001, V2^2 = 0.9999

  Important amplitudes:
      occ i      occ j       vir a       vir b          v   
    ---------------------------------------------------------
     6 (A1) A   6 (A1) B    8 (A1) A    2 (B2) B      0.3535
     6 (A1) A               2 (B2) A                  0.0055
    ---------------------------------------------------------

  Density matrix analysis:
  ------------------------
  NOs
    Occupation of frontier NOs:
       1.0016   1.0026
    Number of electrons: 18.000000
    Number of unpaired electrons: n_u =  2.40078, n_u,nl =  2.04854
    NO participation ratio (PR_NO):  2.875875
  
  
  Mulliken Population Analysis
  Atom      Charge (e)              h+              e-           Del q
  --------------------------------------------------------------------
   1 C       -2.553048       -0.000093       -2.346302       -2.346395
   2 C        0.035618        0.000119        0.236141        0.236260
   3 H        0.124473        0.000000        0.029224        0.029224
   4 H        0.134253       -0.000001        0.025875        0.025874
   5 H        0.124473        0.000000        0.029224        0.029224
   6 H        0.134253       -0.000001        0.025875        0.025874
   7 H        0.999977        1.999939       -0.000001        1.999938
  --------------------------------------------------------------------
  Sum:       -1.000000        1.999964       -1.999964       -0.000000
  
  Multipole moment analysis of the density matrix
    Molecular charge:                      -1.000000
    Number of electrons:                   18.000000
      Center of electronic charge [Ang]: [  0.000000,  -0.000000,   0.568200]
    Total nuclear charge:                  17.000000
      Center of nuclear charge [Ang]:    [ -0.000000,   0.000000,  -0.000000]
    Dipole moment [D]:                     49.125283
      Cartesian components [D]:          [ -0.000000,   0.000000, -49.125283]
    RMS size of the density [Ang]:         1.717690
      Cartesian components [Ang]:        [  0.789239,   0.886664,   1.241526]
  
  Exciton analysis of the difference density matrix
    <r_h> [Ang]:                  [  0.000000,   0.000000, -10.037045]
    <r_e> [Ang]:                  [  0.000000,  -0.000000,   0.074123]
    |<r_e - r_h>| [Ang]:           10.111168
    Hole size [Ang]:                1.111825
      Cartesian components [Ang]: [  0.641576,   0.641578,   0.642581]
    Electron size [Ang]:            3.852385
      Cartesian components [Ang]: [  1.584243,   2.328503,   2.628520]

  Transition density matrix analysis:
  -----------------------------------
  
  CT numbers (Mulliken)
    omega =     0.0001
    <Phe> =     0.0000
  
  Exciton analysis of the transition density matrix
    Trans. dipole moment [D]:             0.000008
      Cartesian components [D]:         [  0.000000,   0.000008,   0.000000]
    <r_h> [Ang]:                        [ -0.000000,   0.000000, -10.037923]
    <r_e> [Ang]:                        [  0.000000,   0.000000,   1.953383]
    |<r_e - r_h>| [Ang]:                 11.991306
    Hole size [Ang]:                      1.066579
      Cartesian components [Ang]:       [  0.615411,   0.615416,   0.616541]
    Electron size [Ang]:                  3.525502
      Cartesian components [Ang]:       [  1.611602,   2.791255,   1.428566]
    RMS electron-hole separation [Ang]:  12.544370
      Cartesian components [Ang]:       [  1.725106,   2.858289,  12.091956]
    Covariance(r_h, r_e) [Ang^2]:        -0.001520
    Correlation coefficient:             -0.000404
    Center-of-mass size [Ang]:            1.841448
      Cartesian components [Ang]:       [  0.862553,   1.429149,   0.777473]

  Decomposition into state-averaged NTOs
                   omega =   0.0%
  ----------------------------------------------------------------------------


  Excited state 7 (singlet, B2)                                    [converged]
  ----------------------------------------------------------------------------
  Term symbol:  7 (1) B2                                    R^2 =  1.19288e-06

  Total energy:                                            -78.5365279085 a.u.
  Excitation energy:                                               6.780169 eV

  Osc. strength:                                                      0.000000
  Trans. dip. moment [a.u.]:           [  -0.000000,    0.000012,    0.000000]
  <i|r^2|0> [a.u.]:                    [  -0.000000,   -0.000000,    0.000000]

  Dip. moment [a.u.]:                  [  -0.000000,    0.000000,  -14.407779]
  Total dipole [Debye]:                                              36.620927
  <r^2> [a.u.]:                        [  37.714366,   43.519658,  113.187573]
  Total <r^2> [a.u.]:                                               194.421597

  V1^2 = 0.0001, V2^2 = 0.9999

  Important amplitudes:
      occ i      occ j       vir a       vir b          v   
    ---------------------------------------------------------
     6 (A1) A   6 (A1) B    8 (A1) A    3 (B2) B     -0.3535
     6 (A1) A               3 (B2) A                 -0.0058
    ---------------------------------------------------------

  Density matrix analysis:
  ------------------------
  NOs
    Occupation of frontier NOs:
       1.0016   1.0070
    Number of electrons: 18.000000
    Number of unpaired electrons: n_u =  2.39212, n_u,nl =  2.04696
    NO participation ratio (PR_NO):  2.868195
  
  
  Mulliken Population Analysis
  Atom      Charge (e)              h+              e-           Del q
  --------------------------------------------------------------------
   1 C       -1.017577       -0.000099       -0.810825       -0.810924
   2 C       -1.496848        0.000128       -1.296334       -1.296206
   3 H        0.123396        0.000000        0.028146        0.028147
   4 H        0.133831       -0.000001        0.025453        0.025453
   5 H        0.123396        0.000000        0.028146        0.028147
   6 H        0.133831       -0.000001        0.025453        0.025453
   7 H        0.999971        1.999933       -0.000001        1.999932
  --------------------------------------------------------------------
  Sum:       -1.000000        1.999962       -1.999962       -0.000000
  
  Multipole moment analysis of the density matrix
    Molecular charge:                      -1.000000
    Number of electrons:                   18.000000
      Center of electronic charge [Ang]: [  0.000000,  -0.000000,   0.423570]
    Total nuclear charge:                  17.000000
      Center of nuclear charge [Ang]:    [ -0.000000,   0.000000,  -0.000000]
    Dipole moment [D]:                     36.620917
      Cartesian components [D]:          [ -0.000000,   0.000000, -36.620917]
    RMS size of the density [Ang]:         1.686782
      Cartesian components [Ang]:        [  0.765982,   0.822825,   1.257562]
  
  Exciton analysis of the difference density matrix
    <r_h> [Ang]:                  [  0.000000,   0.000000, -10.037027]
    <r_e> [Ang]:                  [  0.000000,   0.000000,  -1.227540]
    |<r_e - r_h>| [Ang]:            8.809486
    Hole size [Ang]:                1.111918
      Cartesian components [Ang]: [  0.641577,   0.641579,   0.642742]
    Electron size [Ang]:            3.331846
      Cartesian components [Ang]: [  1.477932,   2.107065,   2.115938]

  Transition density matrix analysis:
  -----------------------------------
  
  CT numbers (Mulliken)
    omega =     0.0001
    <Phe> =     0.0001
  
  Exciton analysis of the transition density matrix
    Trans. dipole moment [D]:             0.000015
      Cartesian components [D]:         [ -0.000000,   0.000015,   0.000000]
    <r_h> [Ang]:                        [ -0.000000,   0.000000, -10.036648]
    <r_e> [Ang]:                        [ -0.000000,   0.000000,  -0.713870]
    |<r_e - r_h>| [Ang]:                  9.322777
    Hole size [Ang]:                      1.075621
      Cartesian components [Ang]:       [  0.617171,   0.617220,   0.628569]
    Electron size [Ang]:                  3.759820
      Cartesian components [Ang]:       [  1.558476,   2.698479,   2.103713]
    RMS electron-hole separation [Ang]:  10.110990
      Cartesian components [Ang]:       [  1.676230,   2.768192,   9.579117]
    Covariance(r_h, r_e) [Ang^2]:        -0.012365
    Correlation coefficient:             -0.003057
    Center-of-mass size [Ang]:            1.953745
      Cartesian components [Ang]:       [  0.838115,   1.384071,   1.095002]

  Decomposition into state-averaged NTOs
                   omega =   0.0%
  ----------------------------------------------------------------------------


  Excited state 8 (singlet, B2)                                    [converged]
  ----------------------------------------------------------------------------
  Term symbol:  8 (1) B2                                    R^2 =  1.62652e-06

  Total energy:                                            -78.5158414966 a.u.
  Excitation energy:                                               7.343075 eV

  Osc. strength:                                                      0.000000
  Trans. dip. moment [a.u.]:           [   0.000000,    0.000001,    0.000000]
  <i|r^2|0> [a.u.]:                    [   0.000000,    0.000000,    0.000000]

  Dip. moment [a.u.]:                  [   0.000000,    0.000000,  -24.029737]
  Total dipole [Debye]:                                              61.077510
  <r^2> [a.u.]:                        [  42.802243,   54.747055,  108.441678]
  Total <r^2> [a.u.]:                                               205.990976

  V1^2 = 0.0000, V2^2 = 1.0000

  Important amplitudes:
      occ i      occ j       vir a       vir b          v   
    ---------------------------------------------------------
     6 (A1) A   6 (A1) B    9 (A1) A    2 (B2) B      0.3536
     6 (A1) A               2 (B2) A                  0.0019
    ---------------------------------------------------------

  Density matrix analysis:
  ------------------------
  NOs
    Occupation of frontier NOs:
       1.0021   1.0026
    Number of electrons: 18.000000
    Number of unpaired electrons: n_u =  2.39992, n_u,nl =  2.04852
    NO participation ratio (PR_NO):  2.875107
  
  
  Mulliken Population Analysis
  Atom      Charge (e)              h+              e-           Del q
  --------------------------------------------------------------------
   1 C       -2.949437        0.000097       -2.742880       -2.742784
   2 C        0.349137       -0.000063        0.549842        0.549779
   3 H        0.149953       -0.000000        0.054704        0.054703
   4 H        0.150197        0.000001        0.041818        0.041819
   5 H        0.149953       -0.000000        0.054704        0.054703
   6 H        0.150197        0.000001        0.041818        0.041819
   7 H        0.999999        1.999960       -0.000000        1.999960
  --------------------------------------------------------------------
  Sum:       -1.000000        1.999995       -1.999995       -0.000000
  
  Multipole moment analysis of the density matrix
    Molecular charge:                      -1.000000
    Number of electrons:                   18.000000
      Center of electronic charge [Ang]: [ -0.000000,  -0.000000,   0.706444]
    Total nuclear charge:                  17.000000
      Center of nuclear charge [Ang]:    [ -0.000000,   0.000000,  -0.000000]
    Dipole moment [D]:                     61.077492
      Cartesian components [D]:          [  0.000000,   0.000000, -61.077492]
    RMS size of the density [Ang]:         1.644861
      Cartesian components [Ang]:        [  0.816015,   0.922880,   1.089945]
  
  Exciton analysis of the difference density matrix
    <r_h> [Ang]:                  [  0.000000,   0.000000, -10.037034]
    <r_e> [Ang]:                  [  0.000000,   0.000000,   1.318170]
    |<r_e - r_h>| [Ang]:           11.355204
    Hole size [Ang]:                1.111757
      Cartesian components [Ang]: [  0.641588,   0.641588,   0.642445]
    Electron size [Ang]:            3.534355
      Cartesian components [Ang]: [  1.701953,   2.451870,   1.892976]

  Transition density matrix analysis:
  -----------------------------------
  
  CT numbers (Mulliken)
    omega =     0.0000
    <Phe> =     0.0001
  
  Exciton analysis of the transition density matrix
    Trans. dipole moment [D]:             0.000001
      Cartesian components [D]:         [  0.000000,   0.000001,   0.000000]
    <r_h> [Ang]:                        [ -0.000000,   0.000000, -10.037738]
    <r_e> [Ang]:                        [  0.000000,  -0.000000,   1.757473]
    |<r_e - r_h>| [Ang]:                 11.795211
    Hole size [Ang]:                      1.063154
      Cartesian components [Ang]:       [  0.611683,   0.611710,   0.618022]
    Electron size [Ang]:                  3.326052
      Cartesian components [Ang]:       [  1.500781,   2.599128,   1.433460]
    RMS electron-hole separation [Ang]:  12.301925
      Cartesian components [Ang]:       [  1.620648,   2.670147,  11.898789]
    Covariance(r_h, r_e) [Ang^2]:        -0.008716
    Correlation coefficient:             -0.002465
    Center-of-mass size [Ang]:            1.744669
      Cartesian components [Ang]:       [  0.810324,   1.335068,   0.777713]

  Decomposition into state-averaged NTOs
                   omega =   0.0%
  ----------------------------------------------------------------------------


  Excited state 9 (singlet, B2)                                    [converged]
  ----------------------------------------------------------------------------
  Term symbol:  9 (1) B2                                    R^2 =  5.03513e-09

  Total energy:                                            -78.5022321715 a.u.
  Excitation energy:                                               7.713404 eV

  Osc. strength:                                                      0.113331
  Trans. dip. moment [a.u.]:           [  -0.000000,    0.774411,    0.000000]
  <i|r^2|0> [a.u.]:                    [   0.000000,    0.000000,    0.000000]

  Dip. moment [a.u.]:                  [  -0.000000,    0.000000,   15.751654]
  Total dipole [Debye]:                                              40.036720
  <r^2> [a.u.]:                        [  31.189858,   20.093800,  816.745250]
  Total <r^2> [a.u.]:                                               868.028908

  V1^2 = 0.9512, V2^2 = 0.0488

  Important amplitudes:
      occ i      occ j       vir a       vir b          v   
    ---------------------------------------------------------
     1 (B2) A               7 (A1) A                 -0.4989
     1 (B2) A               9 (A1) A                 -0.3451
    ---------------------------------------------------------

  Density matrix analysis:
  ------------------------
  NOs
    Occupation of frontier NOs:
       0.9832   0.9928
    Number of electrons: 18.000000
    Number of unpaired electrons: n_u =  2.31262, n_u,nl =  2.02463
    NO participation ratio (PR_NO):  2.730362
  
  
  Mulliken Population Analysis
  Atom      Charge (e)              h+              e-           Del q
  --------------------------------------------------------------------
   1 C        0.595269        0.618498        0.183423        0.801922
   2 C       -1.344787        0.431522       -1.575668       -1.144146
   3 H        0.177086        0.093666       -0.011829        0.081837
   4 H        0.197651        0.074177        0.015095        0.089272
   5 H        0.177086        0.093666       -0.011829        0.081837
   6 H        0.197651        0.074177        0.015095        0.089272
   7 H       -0.999956        0.000450       -0.000446        0.000005
  --------------------------------------------------------------------
  Sum:       -1.000000        1.386157       -1.386157       -0.000000
  
  Multipole moment analysis of the density matrix
    Molecular charge:                      -1.000000
    Number of electrons:                   18.000000
      Center of electronic charge [Ang]: [  0.000000,  -0.000000,  -0.463079]
    Total nuclear charge:                  17.000000
      Center of nuclear charge [Ang]:    [ -0.000000,   0.000000,  -0.000000]
    Dipole moment [D]:                     40.036708
      Cartesian components [D]:          [ -0.000000,   0.000000,  40.036708]
    RMS size of the density [Ang]:         3.645491
      Cartesian components [Ang]:        [  0.696581,   0.559108,   3.534371]
  
  Exciton analysis of the difference density matrix
    <r_h> [Ang]:                  [ -0.000000,  -0.000000,   0.715649]
    <r_e> [Ang]:                  [ -0.000000,  -0.000000,   1.912446]
    |<r_e - r_h>| [Ang]:            1.196798
    Hole size [Ang]:                1.559560
      Cartesian components [Ang]: [  0.767086,   0.867175,   1.044900]
    Electron size [Ang]:            2.534441
      Cartesian components [Ang]: [  1.352023,   1.353267,   1.662557]

  Transition density matrix analysis:
  -----------------------------------
  
  CT numbers (Mulliken)
    omega =     0.9200
    <Phe> =    -0.0104
  
  Exciton analysis of the transition density matrix
    Trans. dipole moment [D]:             0.984179
      Cartesian components [D]:         [ -0.000000,   0.984179,   0.000000]
    <r_h> [Ang]:                        [  0.000000,  -0.000000,   0.645738]
    <r_e> [Ang]:                        [  0.000000,  -0.000000,   2.398301]
    |<r_e - r_h>| [Ang]:                  1.752563
    Hole size [Ang]:                      1.254464
      Cartesian components [Ang]:       [  0.509112,   0.862010,   0.755925]
    Electron size [Ang]:                  2.706865
      Cartesian components [Ang]:       [  1.537155,   1.554271,   1.596407]
    RMS electron-hole separation [Ang]:   3.453060
      Cartesian components [Ang]:       [  1.618580,   1.767098,   2.486199]
    Covariance(r_h, r_e) [Ang^2]:         0.024325
    Correlation coefficient:              0.007164
    Center-of-mass size [Ang]:            1.495781
      Cartesian components [Ang]:       [  0.809981,   0.893729,   0.884614]

  Decomposition into state-averaged NTOs
    H- 1 -> L+ 2: -0.6779 ( 91.9%)
                   omega =  92.0%
  ----------------------------------------------------------------------------


  Excited state 10 (singlet, B2)                                    [converged]
  ----------------------------------------------------------------------------
  Term symbol:  10 (1) B2                                   R^2 =  6.91728e-06

  Total energy:                                            -78.5012298783 a.u.
  Excitation energy:                                               7.740678 eV

  Osc. strength:                                                      0.000000
  Trans. dip. moment [a.u.]:           [   0.000000,   -0.000022,   -0.000000]
  <i|r^2|0> [a.u.]:                    [   0.000000,    0.000000,   -0.000000]

  Dip. moment [a.u.]:                  [   0.000000,   -0.000000,  -19.110140]
  Total dipole [Debye]:                                              48.573141
  <r^2> [a.u.]:                        [  40.477098,   47.731841,  101.800923]
  Total <r^2> [a.u.]:                                               190.009862

  V1^2 = 0.0000, V2^2 = 1.0000

  Important amplitudes:
      occ i      occ j       vir a       vir b          v   
    ---------------------------------------------------------
     6 (A1) A   6 (A1) B    9 (A1) A    3 (B2) B      0.3536
     6 (A1) A               5 (B2) A                  0.0021
    ---------------------------------------------------------

  Density matrix analysis:
  ------------------------
  NOs
    Occupation of frontier NOs:
       1.0021   1.0070
    Number of electrons: 18.000000
    Number of unpaired electrons: n_u =  2.39129, n_u,nl =  2.04695
    NO participation ratio (PR_NO):  2.867458
  
  
  Mulliken Population Analysis
  Atom      Charge (e)              h+              e-           Del q
  --------------------------------------------------------------------
   1 C       -1.413925        0.000098       -1.207370       -1.207272
   2 C       -1.183354       -0.000063       -0.982650       -0.982713
   3 H        0.148873       -0.000000        0.053624        0.053624
   4 H        0.149772        0.000001        0.041392        0.041393
   5 H        0.148873       -0.000000        0.053624        0.053624
   6 H        0.149772        0.000001        0.041392        0.041393
   7 H        0.999990        1.999951       -0.000000        1.999951
  --------------------------------------------------------------------
  Sum:       -1.000000        1.999988       -1.999988       -0.000000
  
  Multipole moment analysis of the density matrix
    Molecular charge:                      -1.000000
    Number of electrons:                   18.000000
      Center of electronic charge [Ang]: [ -0.000000,   0.000000,   0.561814]
    Total nuclear charge:                  17.000000
      Center of nuclear charge [Ang]:    [ -0.000000,   0.000000,  -0.000000]
    Dipole moment [D]:                     48.573126
      Cartesian components [D]:          [  0.000000,  -0.000000, -48.573126]
    RMS size of the density [Ang]:         1.624923
      Cartesian components [Ang]:        [  0.793541,   0.861726,   1.126098]
  
  Exciton analysis of the difference density matrix
    <r_h> [Ang]:                  [ -0.000000,   0.000000, -10.037023]
    <r_e> [Ang]:                  [  0.000000,   0.000000,   0.016544]
    |<r_e - r_h>| [Ang]:           10.053567
    Hole size [Ang]:                1.111813
      Cartesian components [Ang]: [  0.641588,   0.641588,   0.642540]
    Electron size [Ang]:            3.462796
      Cartesian components [Ang]: [  1.603464,   2.242643,   2.095331]

  Transition density matrix analysis:
  -----------------------------------
  
  CT numbers (Mulliken)
    omega =     0.0000
    <Phe> =     0.0003
  
  Exciton analysis of the transition density matrix
    Trans. dipole moment [D]:             0.000028
      Cartesian components [D]:         [  0.000000,  -0.000028,  -0.000000]
    <r_h> [Ang]:                        [ -0.000000,   0.000000, -10.034157]
    <r_e> [Ang]:                        [ -0.000000,   0.000000,   0.477815]
    |<r_e - r_h>| [Ang]:                 10.511972
    Hole size [Ang]:                      1.103651
      Cartesian components [Ang]:       [  0.626997,   0.627125,   0.656988]
    Electron size [Ang]:                  3.151538
      Cartesian components [Ang]:       [  1.269676,   2.196621,   1.869484]
    RMS electron-hole separation [Ang]:  11.032376
      Cartesian components [Ang]:       [  1.416052,   2.284329,  10.699999]
    Covariance(r_h, r_e) [Ang^2]:        -0.030769
    Correlation coefficient:             -0.008846
    Center-of-mass size [Ang]:            1.664985
      Cartesian components [Ang]:       [  0.708026,   1.142224,   0.982954]

  Decomposition into state-averaged NTOs
                   omega =   0.0%
  ----------------------------------------------------------------------------


--------------------------------------------------------------------------------
  Time of ADC calculation:  CPU 679.40 s  wall 175.58 s
================================================================================
 
 --------------------------------------------------------------
             Orbital Energies (a.u.) and Symmetries
 --------------------------------------------------------------
 
 Alpha MOs, Restricted
 -- Occupied --                  
-11.187 -11.185  -0.992  -0.732  -0.611  -0.517  -0.465  -0.327
  1 A1    2 A1    3 A1    4 A1    1 B1    5 A1    2 B1    1 B2                 
  0.022
  6 A1                                                                         
 -- Virtual --                   
  0.111   0.123   0.132   0.146   0.147   0.157   0.181   0.225
  7 A1    3 B1    2 B2    8 A1    3 B2    4 B1    9 A1    4 B2                 
  0.259   0.312   0.349   0.358   0.378   0.382   0.384   0.392
 10 A1   11 A1    5 B1   12 A1   13 A1    5 B2    6 B1    7 B1                 
  0.420   0.465   0.604   0.662   0.879   0.904   0.979   0.984
 14 A1    6 B2    8 B1   15 A1   16 A1    9 B1   17 A1   18 A1                 
  1.058   1.058   1.081   1.097   1.132   1.164   1.175   1.175
 10 B1   19 A1   11 B1   20 A1    7 B2    1 A2   21 A1    8 B2                 
  1.323   1.334   1.338   1.475   1.670   1.703   1.776   1.922
 22 A1    2 A2    9 B2   12 B1   23 A1   13 B1   14 B1   10 B2                 
  1.967   1.967   1.967   1.993   2.006   2.067   2.112   2.141
 24 A1   15 B1   11 B2   12 B2   25 A1    3 A2   26 A1   16 B1                 
  2.230   2.377   2.462   2.518   2.628   2.628   2.875   2.882
 13 B2   27 A1    4 A2   28 A1   17 B1   29 A1   18 B1   30 A1                 
  3.307   3.390
 31 A1   19 B1                                                                 
 
 Beta MOs, Restricted
 -- Occupied --                  
-11.187 -11.185  -0.992  -0.732  -0.611  -0.517  -0.465  -0.327
  1 A1    2 A1    3 A1    4 A1    1 B1    5 A1    2 B1    1 B2                 
  0.022
  6 A1                                                                         
 -- Virtual --                   
  0.111   0.123   0.132   0.146   0.147   0.157   0.181   0.225
  7 A1    3 B1    2 B2    8 A1    3 B2    4 B1    9 A1    4 B2                 
  0.259   0.312   0.349   0.358   0.378   0.382   0.384   0.392
 10 A1   11 A1    5 B1   12 A1   13 A1    5 B2    6 B1    7 B1                 
  0.420   0.465   0.604   0.662   0.879   0.904   0.979   0.984
 14 A1    6 B2    8 B1   15 A1   16 A1    9 B1   17 A1   18 A1                 
  1.058   1.058   1.081   1.097   1.132   1.164   1.175   1.175
 10 B1   19 A1   11 B1   20 A1    7 B2    1 A2   21 A1    8 B2                 
  1.323   1.334   1.338   1.475   1.670   1.703   1.776   1.922
 22 A1    2 A2    9 B2   12 B1   23 A1   13 B1   14 B1   10 B2                 
  1.967   1.967   1.967   1.993   2.006   2.067   2.112   2.141
 24 A1   15 B1   11 B2   12 B2   25 A1    3 A2   26 A1   16 B1                 
  2.230   2.377   2.462   2.518   2.628   2.628   2.875   2.882
 13 B2   27 A1    4 A2   28 A1   17 B1   29 A1   18 B1   30 A1                 
  3.307   3.390
 31 A1   19 B1                                                                 
 --------------------------------------------------------------
 
          Ground-State Mulliken Net Atomic Charges

     Atom                 Charge (a.u.)
  ----------------------------------------
      1 C                    -0.195334
      2 C                    -0.182175
      3 H                     0.087767
      4 H                     0.100969
      5 H                     0.087767
      6 H                     0.100969
      7 H                    -0.999963
  ----------------------------------------
  Sum of atomic charges =    -1.000000

 -----------------------------------------------------------------
                    Cartesian Multipole Moments
 -----------------------------------------------------------------
    Charge (ESU x 10^10)
                -4.8032
    Dipole Moment (Debye)
         X      -0.0000      Y      -0.0000      Z      47.9903
       Tot      47.9903
    Quadrupole Moments (Debye-Ang)
        XX     -15.9210     XY       0.0000     YY     -20.0988
        XZ       0.0000     YZ       0.0000     ZZ    -501.0031
    Octopole Moments (Debye-Ang^2)
       XXX      -0.0000    XXY      -0.0000    XYY       0.0000
       YYY      -0.0000    XXZ      31.9582    XYZ      -0.0000
       YYZ      29.3697    XZZ       0.0000    YZZ      -0.0000
       ZZZ    4950.6641
    Hexadecapole Moments (Debye-Ang^3)
      XXXX     -32.8241   XXXY       0.0000   XXYY     -10.9847
      XYYY       0.0000   YYYY     -27.6494   XXXZ       0.0000
      XXYZ      -0.0000   XYYZ       0.0000   YYYZ       0.0000
      XXZZ    -418.4915   XYZZ      -0.0000   YYZZ    -422.5141
      XZZZ      -0.0000   YZZZ       0.0000   ZZZZ  -51244.3174
 -----------------------------------------------------------------
 Total job time:  258.18s(wall), 725.02s(cpu) 
 Fri Mar 25 17:22:40 2022

        *************************************************************
        *                                                           *
        *  Thank you very much for using Q-Chem.  Have a nice day.  *
        *                                                           *
        *************************************************************


