/src/tsommerfeld/qchem/exe/qcprog.exe .input0.833333.5500.qcin.1 /src/jdavis/qchem.scratch/qchem5500/

                  Welcome to Q-Chem
     A Quantum Leap Into The Future Of Chemistry


 Q-Chem 5.4 (devel), Q-Chem, Inc., Pleasanton, CA (2021)

 E. Epifanovsky,  A. T. B. Gilbert,  Xintian Feng,  Joonho Lee,  Yuezhi Mao,  
 N. Mardirossian,  P. Pokhilko,  A. White,  M. Wormit,  M. P. Coons,  
 A. L. Dempwolff,  Zhengting Gan,  D. Hait,  P. R. Horn,  L. D. Jacobson,  
 I. Kaliman,  J. Kussmann,  A. W. Lange,  Ka Un Lao,  D. S. Levine,  Jie Liu,  
 S. C. McKenzie,  A. F. Morrison,  K. Nanda,  F. Plasser,  D. R. Rehn,  
 M. L. Vidal,  Zhi-Qiang You,  Ying Zhu,  B. Alam,  B. Albrecht,  
 A. Aldossary,  E. Alguire,  J. H. Andersen,  D. Barton,  K. Begam,  A. Behn,  
 Y. A. Bernard,  E. J. Berquist,  H. Burton,  A. Carreras,  K. Carter-Fenk,  
 R. Chakraborty,  A. D. Chien,  K. D. Closser,  V. Cofer-Shabica,  
 S. Dasgupta,  Jia Deng,  M. de Wergifosse,  M. Diedenhofen,  Hainam Do,  
 S. Ehlert,  Po-Tung Fang,  S. Fatehi,  Qingguo Feng,  T. Friedhoff,  
 J. Gayvert,  Qinghui Ge,  G. Gidofalvi,  M. Goldey,  J. Gomes,  
 C. Gonzalez-Espinoza,  S. Gulania,  A. Gunina,  M. W. D. Hanson-Heine,  
 P. H. P. Harbach,  A. W. Hauser,  M. F. Herbst,  M. Hernandez Vera,  
 M. Hodecker,  Z. C. Holden,  S. Houck,  Xunkun Huang,  Kerwin Hui,  
 B. C. Huynh,  M. Ivanov,  Hyunjun Ji,  Hanjie Jiang,  B. Kaduk,  S. Kaehler,  
 K. Khistyaev,  Jaehoon Kim,  P. Klunzinger,  Z. Koczor-Benda,  
 Joong Hoon Koh,  D. Kosenkov,  L. Koulias,  T. Kowalczyk,  C. M. Krauter,  
 K. Kue,  A. Kunitsa,  T. Kus,  A. Landau,  K. V. Lawler,  D. Lefrancois,  
 S. Lehtola,  Rain Li,  Yi-Pei Li,  Jiashu Liang,  M. Liebenthal,  
 Hung-Hsuan Lin,  You-Sheng Lin,  Fenglai Liu,  Kuan-Yu Liu,  
 M. Loipersberger,  A. Luenser,  A. Manjanath,  P. Manohar,  E. Mansoor,  
 S. F. Manzer,  Shan-Ping Mao,  A. V. Marenich,  T. Markovich,  S. Mason,  
 S. A. Maurer,  P. F. McLaughlin,  M. F. S. J. Menger,  J.-M. Mewes,  
 S. A. Mewes,  P. Morgante,  J. W. Mullinax,  K. J. Oosterbaan,  G. Paran,  
 Alexander C. Paul,  Suranjan K. Paul,  F. Pavosevic,  Zheng Pei,  S. Prager,  
 E. I. Proynov,  E. Ramos,  B. Rana,  A. E. Rask,  A. Rettig,  R. M. Richard,  
 F. Rob,  E. Rossomme,  T. Scheele,  M. Scheurer,  M. Schneider,  
 N. Sergueev,  S. M. Sharada,  W. Skomorowski,  D. W. Small,  C. J. Stein,  
 Yu-Chuan Su,  E. J. Sundstrom,  Zhen Tao,  J. Thirman,  T. Tsuchimochi,  
 N. M. Tubman,  S. P. Veccham,  O. Vydrov,  J. Wenzel,  J. Witte,  A. Yamada,  
 Kun Yao,  S. Yeganeh,  S. R. Yost,  A. Zech,  Igor Ying Zhang,  Xing Zhang,  
 Yu Zhang,  D. Zuev,  A. Aspuru-Guzik,  A. T. Bell,  N. A. Besley,  
 K. B. Bravaya,  B. R. Brooks,  D. Casanova,  Jeng-Da Chai,  S. Coriani,  
 C. J. Cramer,  A. E. DePrince, III,  R. A. DiStasio Jr.,  A. Dreuw,  
 B. D. Dunietz,  T. R. Furlani,  W. A. Goddard III,  S. Grimme,  
 S. Hammes-Schiffer,  T. Head-Gordon,  W. J. Hehre,  Chao-Ping Hsu,  
 T.-C. Jagau,  Yousung Jung,  A. Klamt,  Jing Kong,  D. S. Lambrecht,  
 WanZhen Liang,  N. J. Mayhall,  C. W. McCurdy,  J. B. Neaton,  
 C. Ochsenfeld,  J. A. Parkhill,  R. Peverati,  V. A. Rassolov,  Yihan Shao,  
 L. V. Slipchenko,  T. Stauch,  R. P. Steele,  J. E. Subotnik,  
 A. J. W. Thom,  A. Tkatchenko,  D. G. Truhlar,  T. Van Voorhis,  
 T. A. Wesolowski,  K. B. Whaley,  H. L. Woodcock III,  P. M. Zimmerman,  
 S. Faraji,  P. M. W. Gill,  M. Head-Gordon,  J. M. Herbert,  A. I. Krylov

 Additional authors for Version 5.4.1: 
 S. Kotaru,  Shaozhi Li,  Xiangyuan Li,  F. Matz,  A. Molle,  Haisheng Ren,  
 Yingli Su,  Hung-Yi Tsai,  C. Utku,  Fang Wang

 Contributors to earlier versions of Q-Chem not listed above: 
 R. D. Adamson,  B. Austin,  R. Baer,  J. Baker,  G. J. O. Beran,  
 K. Brandhorst,  S. T. Brown,  E. F. C. Byrd,  A. K. Chakraborty,  
 G. K. L. Chan,  Chun-Min Chang,  Yunqing Chen,  C.-L. Cheng,  
 Siu Hung Chien,  D. M. Chipman,  D. L. Crittenden,  H. Dachsel,  
 R. J. Doerksen,  A. D. Dutoi,  R. G. Edgar,  J. Fosso-Tande,  
 L. Fusti-Molnar,  D. Ghosh,  A. Ghysels,  A. Golubeva-Zadorozhnaya,  
 J. Gonthier,  M. S. Gordon,  S. R. Gwaltney,  G. Hawkins,  J. E. Herr,  
 A. Heyden,  S. Hirata,  E. G. Hohenstein,  G. Kedziora,  F. J. Keil,  
 C. Kelley,  Jihan Kim,  R. A. King,  R. Z. Khaliullin,  P. P. Korambath,  
 W. Kurlancheek,  A. Laurent,  A. M. Lee,  M. S. Lee,  S. V. Levchenko,  
 Ching Yeh Lin,  D. Liotard,  E. Livshits,  R. C. Lochan,  I. Lotan,  
 L. A. Martinez-Martinez,  P. E. Maslen,  N. Nair,  D. P. O'Neill,  
 D. Neuhauser,  E. Neuscamman,  C. M. Oana,  R. Olivares-Amaya,  R. Olson,  
 T. M. Perrine,  B. Peters,  P. A. Pieniazek,  A. Prociuk,  Y. M. Rhee,  
 J. Ritchie,  M. A. Rohrdanz,  E. Rosta,  N. J. Russ,  H. F. Schaefer III,  
 M. W. Schmidt,  N. E. Schultz,  S. Sharma,  N. Shenvi,  C. D. Sherrill,  
 A. C. Simmonett,  A. Sodt,  T. Stein,  D. Stuck,  K. S. Thanthiriwatte,  
 V. Vanovschi,  L. Vogt,  Tao Wang,  A. Warshel,  M. A. Watson,  
 C. F. Williams,  Q. Wu,  X. Xu,  Jun Yang,  W. Zhang,  Yan Zhao

 Please cite Q-Chem as follows:
 Y. Shao et al., Mol. Phys. 113, 184-215 (2015)
 DOI: 10.1080/00268976.2014.952696

 Q-Chem 5.4.1 for Intel X86 EM64T Linux

 Parts of Q-Chem use Armadillo 9.900.5 (Nocturnal Misbehaviour).
 http://arma.sourceforge.net/

 Q-Chem begins on Fri Mar 25 16:35:32 2022  

 Host: node01
0

     Scratch files written to /src/jdavis/qchem.scratch/qchem5500//
 Processing $rem in /src/tsommerfeld/qchem/config/preferences:
 Processing $rem in /home/jdavis/.qchemrc:

 Checking the input file for inconsistencies... 	...done.

--------------------------------------------------------------
User input:
--------------------------------------------------------------
$molecule
-1 1
C         0.0000000000    0.0000000000    0.8417902907
C         0.0000000000    0.0000000000   -0.4872097093
H         0.9623488518    0.0000000000    1.3363703127
H         0.9623489048    0.0000000000   -0.9817896873
H        -0.9623488518    0.0000000000    1.3363703127
H        -0.9623489048    0.0000000000   -0.9817896873
H         0.0000000000    0.0000000000   -10.4872097093
$end

$rem
   METHOD adc(2)
   BASIS gen
   PURECART 11
   EE_STATES [0,0,0,10]
   scf_convergence 8
   ADC_DAVIDSON_MAXITER 120
   ADC_DAVIDSON_MAXSUBSPACE 200
   adc_nguess_singles 100
   THRESH 14
   S2THRESH 14
   adc_davidson_conv 5
   adc_davidson_thresh 14
   THREADS 10
   MEM_TOTAL 95000
   STATE_ANALYSIS TRUE
$end
$basis
C 1
S   9   1.00
      6.665000D+03           6.920000D-04
      1.000000D+03           5.329000D-03
      2.280000D+02           2.707700D-02
      6.471000D+01           1.017180D-01
      2.106000D+01           2.747400D-01
      7.495000D+00           4.485640D-01
      2.797000D+00           2.850740D-01
      5.215000D-01           1.520400D-02
      1.596000D-01          -3.191000D-03
S   9   1.00
      6.665000D+03          -1.460000D-04
      1.000000D+03          -1.154000D-03
      2.280000D+02          -5.725000D-03
      6.471000D+01          -2.331200D-02
      2.106000D+01          -6.395500D-02
      7.495000D+00          -1.499810D-01
      2.797000D+00          -1.272620D-01
      5.215000D-01           5.445290D-01
      1.596000D-01           5.804960D-01
S   1   1.00
      1.596000D-01           1.000000D+00
S   1   1.00
      0.0469000              1.0000000
P   4   1.00
      9.439000D+00           3.810900D-02
      2.002000D+00           2.094800D-01
      5.456000D-01           5.085570D-01
      1.517000D-01           4.688420D-01
P   1   1.00
      1.517000D-01           1.000000D+00
P   1   1.00
      0.0505667      1.0000000
P   1   1.00
      0.0252833      1.0000000
D   1   1.00
      5.500000D-01           1.0000000
****
C 2
S   9   1.00
      6.665000D+03           6.920000D-04
      1.000000D+03           5.329000D-03
      2.280000D+02           2.707700D-02
      6.471000D+01           1.017180D-01
      2.106000D+01           2.747400D-01
      7.495000D+00           4.485640D-01
      2.797000D+00           2.850740D-01
      5.215000D-01           1.520400D-02
      1.596000D-01          -3.191000D-03
S   9   1.00
      6.665000D+03          -1.460000D-04
      1.000000D+03          -1.154000D-03
      2.280000D+02          -5.725000D-03
      6.471000D+01          -2.331200D-02
      2.106000D+01          -6.395500D-02
      7.495000D+00          -1.499810D-01
      2.797000D+00          -1.272620D-01
      5.215000D-01           5.445290D-01
      1.596000D-01           5.804960D-01
S   1   1.00
      1.596000D-01           1.000000D+00
S   1   1.00
      0.0469000              1.0000000
P   4   1.00
      9.439000D+00           3.810900D-02
      2.002000D+00           2.094800D-01
      5.456000D-01           5.085570D-01
      1.517000D-01           4.688420D-01
P   1   1.00
      1.517000D-01           1.000000D+00
P   1   1.00
      0.0505667      1.0000000
P   1   1.00
      0.0252833      1.0000000
D   1   1.00
      5.500000D-01           1.0000000
****
H 3
cc-pVDZ
****
H 4
cc-pVDZ
****
H 5
cc-pVDZ
****
H 6
cc-pVDZ
****
H 7
aug-cc-pVDZ
****
$end
--------------------------------------------------------------
 ----------------------------------------------------------------
             Standard Nuclear Orientation (Angstroms)
    I     Atom           X                Y                Z
 ----------------------------------------------------------------
    1      C       0.0000000000     0.0000000000     1.2918235242
    2      C       0.0000000000     0.0000000000    -0.0371764758
    3      H       0.9623488518     0.0000000000     1.7864035462
    4      H       0.9623489048     0.0000000000    -0.5317564538
    5      H      -0.9623488518     0.0000000000     1.7864035462
    6      H      -0.9623489048     0.0000000000    -0.5317564538
    7      H       0.0000000000     0.0000000000   -10.0371764758
 ----------------------------------------------------------------
 Molecular Point Group                 C2v   NOp =  4
 Largest Abelian Subgroup              C2v   NOp =  4
 Nuclear Repulsion Energy =          34.38697142 hartrees
 There are        9 alpha and        9 beta electrons
 Requested basis set is non-standard
 There are 33 shells and 67 basis functions
 Total memory of 95000 MB is distributed as follows: 
   MEM_STATIC is set to 192 MB
   QALLOC/CCMAN JOB total memory use is  94808 MB
 Warning: actual memory use might exceed 95000 MB

 Total QAlloc Memory Limit  95000 MB
 Mega-Array Size       188 MB
 MEM_STATIC part       192 MB

                       Distance Matrix (Angstroms)
             C (  1)   C (  2)   H (  3)   H (  4)   H (  5)   H (  6)
   C (  2)  1.329000
   H (  3)  1.082000  2.061931
   H (  4)  2.061931  1.082000  2.318160
   H (  5)  1.082000  2.061931  1.924698  3.013026
   H (  6)  2.061931  1.082000  3.013026  1.924698  2.318160
   H (  7) 11.329000 10.000000 11.862679  9.554011 11.862679  9.554011

 
 A cutoff of  1.0D-14 yielded    495 shell pairs
 There are      2107 function pairs (      2244 Cartesian)
 Smallest overlap matrix eigenvalue = 1.73E-04

 Scale SEOQF with 1.000000e-01/1.000000e-01/1.000000e-02

 Standard Electronic Orientation quadrupole field applied
 Nucleus-field energy     =    -0.0000000011 hartrees
 ================ Generating on-the-fly SAD Guess ================
Attempting to make child job directory: /src/jdavis/qchem.scratch/qchem5500//Frg1/
Attempting to make child job directory: /src/jdavis/qchem.scratch/qchem5500//Frg2/
Creating input file /src/jdavis/qchem.scratch/qchem5500/Frg1.input
using default PutDataFrgm: nothing
calling putenv with: QCSCRATCH=/src/jdavis/qchem.scratch/qchem5500/ 
Spawning Job For Fragment 0
Done Job For Fragment 0
calling putenv with: QCSCRATCH=/src/jdavis/qchem.scratch 
calling putenv with: QCTHREADS=1 
Creating input file /src/jdavis/qchem.scratch/qchem5500/Frg2.input
using default PutDataFrgm: nothing
calling putenv with: QCSCRATCH=/src/jdavis/qchem.scratch/qchem5500/ 
Spawning Job For Fragment 1
Done Job For Fragment 1
calling putenv with: QCSCRATCH=/src/jdavis/qchem.scratch 
calling putenv with: QCTHREADS=1 
 Time for running child jobs:  CPU 1.77 s  wall 54.32 s
 ============= Method Specific SAD Guess Constructed =============
 Guess from on-the-fly superposition of atomic densities
 Warning: Energy on first SCF cycle will be non-variational
 A restricted Hartree-Fock SCF calculation will be
 performed using Pulay DIIS extrapolation
 SCF converges when DIIS error is below 1.0E-08
 using 10 threads for integral computing
 -------------------------------------------------------
 OpenMP Integral computing Module                
 Release: version 1.0, May 2013, Q-Chem Inc. Pittsburgh 
 -------------------------------------------------------
 ---------------------------------------
  Cycle       Energy         DIIS Error
 ---------------------------------------
    1     -78.7999355607      7.36E-02
    2     -78.4465465232      6.48E-03
    3     -78.4845604690      1.48E-03
    4     -78.4865030581      4.80E-04
    5     -78.4866807548      7.75E-05
    6     -78.4866900634      1.85E-05
    7     -78.4866908335      9.26E-06
    8     -78.4866910996      2.33E-06
    9     -78.4866911731      1.03E-06
   10     -78.4866911979      2.66E-07
   11     -78.4866911998      8.41E-08
   12     -78.4866911999      1.76E-08
   13     -78.4866911999      2.40E-09 Convergence criterion met
 ---------------------------------------
 SCF time:  CPU 12.49 s  wall 1.25 s
 SCF   energy in the final basis set = -78.48669120
 Total energy in the final basis set = -78.48669120
================================================================================
|                                                                              |
|                                 A D C  M A N                                 |
|                                                                              |
 ------------------------------------------------------------------------------ 
|                                                                              |
| Components:                                                                  |
|                                                                              |
| - libvmm - 1.3-trunk                                                         |
|   Authors:                                                                   |
|   Evgeny Epifanovsky, Ilya Kaliman                                           |
|                                                                              |
| - libtensor - 2.5-trunk                                                      |
|   Authors:                                                                   |
|   Evgeny Epifanovsky, Michael Wormit, Dmitry Zuev, Sam Manzer,               |
|   Ilya Kaliman                                                               |
|                                                                              |
| - libwfa - 1.1-trunk                                                         |
|   Authors:                                                                   |
|   Felix Plasser, Stefanie Mewes (Baeppler), Benjamin Thomitzni,              |
|   Michael Wormit, Feng Chen, Anna I. Krylov, Pavel Pokhilko                  |
|                                                                              |
| - libadc - 1.1-trunk                                                         |
|   Authors:                                                                   |
|   Michael Wormit, Adrian L. Dempwolff, Philipp H. P. Harbach,                |
|   Caroline Krauter, Dirk Rehn, Matthias Schneider, Jan Wenzel                |
|                                                                              |
| - adcman - 2.6-trunk                                                         |
|   Authors:                                                                   |
|   Michael Wormit, Adrian L. Dempwolff, Philipp H. P. Harbach,                |
|   Caroline Krauter, Daniel Lefrancois, Jan-Michael Mewes, Dirk Rehn,         |
|   Matthias Schneider, Jan Wenzel, Andreas Dreuw                              |
|                                                                              |
| Authors of earlier versions of ADCMAN:                                       |
| Andreas Dreuw, Jan Hendrik Starcke, Dirk Rehn, Michael Wormit                |
|                                                                              |
================================================================================

 
 Alpha MOs, Restricted
 -- Occupied --                  
-11.187 -11.185  -0.992  -0.732  -0.611  -0.517  -0.465  -0.327
  1 A1    2 A1    3 A1    4 A1    1 B1    5 A1    2 B1    1 B2                 
  0.022
  6 A1                                                                         
 -- Virtual --                   
  0.096   0.097   0.103   0.125   0.125   0.135   0.159   0.194
  7 A1    3 B1    2 B2    4 B1    3 B2    8 A1    9 A1    4 B2                 
  0.256   0.257   0.262   0.278   0.285   0.292   0.317   0.363
 10 A1    5 B1   11 A1    6 B1    5 B2   12 A1   13 A1    6 B2                 
  0.392   0.402   0.561   0.609   0.798   0.884   0.915   0.942
  7 B1   14 A1    8 B1   15 A1   16 A1    9 B1   17 A1   10 B1                 
  0.978   0.985   1.035   1.047   1.057   1.082   1.119   1.164
 18 A1    7 B2    8 B2   19 A1   20 A1   21 A1   11 B1    1 A2                 
  1.334   1.334   1.358   1.399   1.661   1.665   1.756   1.907
  9 B2    2 A2   22 A1   12 B1   23 A1   13 B1   14 B1   10 B2                 
  1.967   1.967   1.967   1.970   1.990   2.061   2.067   2.110
 24 A1   15 B1   11 B2   25 A1   12 B2   26 A1    3 A2   16 B1                 
  2.224   2.369   2.462   2.499   2.619   2.620   2.849   2.856
 13 B2   27 A1    4 A2   28 A1   17 B1   29 A1   18 B1   30 A1                 
  3.290   3.390
 31 A1   19 B1                                                                 
 
 Beta MOs, Restricted
 -- Occupied --                  
-11.187 -11.185  -0.992  -0.732  -0.611  -0.517  -0.465  -0.327
  1 A1    2 A1    3 A1    4 A1    1 B1    5 A1    2 B1    1 B2                 
  0.022
  6 A1                                                                         
 -- Virtual --                   
  0.096   0.097   0.103   0.125   0.125   0.135   0.159   0.194
  7 A1    3 B1    2 B2    4 B1    3 B2    8 A1    9 A1    4 B2                 
  0.256   0.257   0.262   0.278   0.285   0.292   0.317   0.363
 10 A1    5 B1   11 A1    6 B1    5 B2   12 A1   13 A1    6 B2                 
  0.392   0.402   0.561   0.609   0.798   0.884   0.915   0.942
  7 B1   14 A1    8 B1   15 A1   16 A1    9 B1   17 A1   10 B1                 
  0.978   0.985   1.035   1.047   1.057   1.082   1.119   1.164
 18 A1    7 B2    8 B2   19 A1   20 A1   21 A1   11 B1    1 A2                 
  1.334   1.334   1.358   1.399   1.661   1.665   1.756   1.907
  9 B2    2 A2   22 A1   12 B1   23 A1   13 B1   14 B1   10 B2                 
  1.967   1.967   1.967   1.970   1.990   2.061   2.067   2.110
 24 A1   15 B1   11 B2   25 A1   12 B2   26 A1    3 A2   16 B1                 
  2.224   2.369   2.462   2.499   2.619   2.620   2.849   2.856
 13 B2   27 A1    4 A2   28 A1   17 B1   29 A1   18 B1   30 A1                 
  3.290   3.390
 31 A1   19 B1                                                                 

--------------------------------------------------------------------------------
                                   HF Summary                                   
--------------------------------------------------------------------------------
  Energy:                                                  -78.4866911999 a.u.
  Dip. moment [a.u.]:                  [  -0.000000,    0.000000,   18.864102]
  Total dipole [Debye]:                                              47.947773
  <r^2> [a.u.]:                        [  25.083820,   14.947844,  792.450268]
  Total <r^2> [a.u.]:                                               832.481931
--------------------------------------------------------------------------------

--------------------------------------------------------------------------------
                                 MP(2) Summary                                  
--------------------------------------------------------------------------------
  MP energy contribution:                                   -0.2979872610 a.u.
  Total energy:                                            -78.7846784609 a.u.
  Dip. moment [a.u.]:                  [  -0.000000,    0.000000,   18.868773]
  Total dipole [Debye]:                                              47.959646
  <r^2> [a.u.]:                        [  25.073747,   14.757998,  792.473295]
  Total <r^2> [a.u.]:                                               832.305041

  Density matrix analysis:
  ------------------------
  NOs
    Occupation of frontier NOs:
       0.0446   1.9372
    Number of electrons: 18.000000
    Number of unpaired electrons: n_u =  0.43173, n_u,nl =  0.04667
    NO participation ratio (PR_NO): 15.331528
  
  
  Mulliken Population Analysis
  Atom      Charge (e)              h+              e-           Del q
  --------------------------------------------------------------------
   1 C       -0.170225        0.091000       -0.100998       -0.009997
   2 C       -0.175151        0.085127       -0.103967       -0.018840
   3 H        0.079830        0.017706       -0.010493        0.007213
   4 H        0.092116        0.017491       -0.010327        0.007164
   5 H        0.079830        0.017706       -0.010493        0.007213
   6 H        0.092116        0.017491       -0.010327        0.007164
   7 H       -0.998515        0.022045       -0.021961        0.000084
  --------------------------------------------------------------------
  Sum:       -1.000000        0.268565       -0.268565        0.000000
  
  Multipole moment analysis of the density matrix
    Molecular charge:                      -1.000000
    Number of electrons:                   18.000000
      Center of electronic charge [Ang]: [  0.000000,  -0.000000,  -0.554718]
    Total nuclear charge:                  17.000000
      Center of nuclear charge [Ang]:    [ -0.000000,   0.000000,  -0.000000]
    Dipole moment [D]:                     47.959632
      Cartesian components [D]:          [ -0.000000,   0.000000,  47.959632]
    RMS size of the density [Ang]:         3.555358
      Cartesian components [Ang]:        [  0.624560,   0.479158,   3.467118]
  
  Exciton analysis of the difference density matrix
    <r_h> [Ang]:                  [  0.000000,  -0.000000,  -0.235671]
    <r_e> [Ang]:                  [  0.000000,  -0.000000,  -0.244875]
    |<r_e - r_h>| [Ang]:            0.009204
    Hole size [Ang]:                3.260076
      Cartesian components [Ang]: [  0.738761,   0.756143,   3.083922]
    Electron size [Ang]:            3.230980
      Cartesian components [Ang]: [  0.731618,   0.611394,   3.087096]
--------------------------------------------------------------------------------
  Starting Davidson for singlet states of irrep B2 ... 
--------------------------------------------------------------------------------
   It NVec Conv  Avg. Norm  Max. Norm  Conv. states           Remark
--------------------------------------------------------------------------------
       100    0  9.997e-02  4.594e-01  0.0538 n n n n n n n n Guess.
    1  110    0  1.074e-02  8.640e-02  0.0326 n n n n n n n n 
    2  120    0  2.504e-02  2.380e-01  0.0326 n n n n n n n n 
    3  130    2  1.325e-02  1.143e-01  0.0326 y y n n n n n n 
    4  140    4  4.672e-03  3.362e-02  0.0326 y y y n n n y n 
    5  150    6  1.753e-03  1.681e-02  0.0326 y y y y n y y n 
    6  160    7  4.162e-04  4.160e-03  0.0326 y y y y n y y y 
    7  170    9  1.188e-05  1.187e-04  0.0326 y y y y y y y y 
    8  180    8  6.602e-06  6.206e-05  0.0326 y y y n y n y y 
    9  190    0  1.335e-03  1.257e-02  0.0326 n n n n n n n n 
   10  200    0  7.618e-02  5.595e-01  0.0326 n n n n n n n n 
   11   20    1  1.344e-03  1.342e-02  0.0326 n n n n y n n n Subspace collapsed.
   12   30    3  6.495e-04  6.493e-03  0.0326 y y n n y n n n 
   13   40    9  1.234e-04  1.233e-03  0.0326 y y y y y y y y 
   14   50    9  1.879e-05  1.879e-04  0.0326 y y y y y y y y 
   15   60    9  6.929e-06  6.928e-05  0.0326 y y y y y y y y 
   16   70    9  2.555e-06  2.555e-05  0.0326 y y y y y y y y 
   17   80   10  8.277e-07  8.277e-06  0.0326 y y y y y y y y Converged.
--------------------------------------------------------------------------------
  Davidson Summary: 
 ------------------------------------------------------------
  State  0: excitation energy =   0.0326 a.u.   (converged)
  State  1: excitation energy =   0.0423 a.u.   (converged)
  State  2: excitation energy =   0.0862 a.u.   (converged)
  State  3: excitation energy =   0.1560 a.u.   (converged)
  State  4: excitation energy =   0.1781 a.u.   (converged)
  State  5: excitation energy =   0.1962 a.u.   (converged)
  State  6: excitation energy =   0.1981 a.u.   (converged)
  State  7: excitation energy =   0.2184 a.u.   (converged)
  State  8: excitation energy =   0.2192 a.u.   (converged)
  State  9: excitation energy =   0.2413 a.u.   (converged)
 ------------------------------------------------------------


--------------------------------------------------------------------------------
                   State-averaged natural transition orbitals
--------------------------------------------------------------------------------
--------------------------------------------------------------------------------

--------------------------------------------------------------------------------
                             Excited State Summary
--------------------------------------------------------------------------------
--------------------------------------------------------------------------------

  Excited state 1 (singlet, B2)                                    [converged]
  ----------------------------------------------------------------------------
  Term symbol:  1 (1) B2                                    R^2 =  8.41792e-10

  Total energy:                                            -78.7520798811 a.u.
  Excitation energy:                                               0.887052 eV

  Osc. strength:                                                      0.000002
  Trans. dip. moment [a.u.]:           [  -0.000000,   -0.008933,    0.000000]
  <i|r^2|0> [a.u.]:                    [  -0.000000,   -0.000000,    0.000000]

  Dip. moment [a.u.]:                  [  -0.000000,    0.000000,   -1.260363]
  Total dipole [Debye]:                                               3.203523
  <r^2> [a.u.]:                        [  37.701719,   55.825783,  447.008827]
  Total <r^2> [a.u.]:                                               540.536329

  V1^2 = 0.9761, V2^2 = 0.0239

  Important amplitudes:
      occ i      occ j       vir a       vir b          v   
    ---------------------------------------------------------
     6 (A1) A               2 (B2) A                 -0.6447
     6 (A1) A               3 (B2) A                 -0.2675
    ---------------------------------------------------------

  Density matrix analysis:
  ------------------------
  NOs
    Occupation of frontier NOs:
       0.9977   1.0018
    Number of electrons: 18.000000
    Number of unpaired electrons: n_u =  2.40872, n_u,nl =  2.04710
    NO participation ratio (PR_NO):  2.895164
  
  
  Mulliken Population Analysis
  Atom      Charge (e)              h+              e-           Del q
  --------------------------------------------------------------------
   1 C       -0.653336        0.016238       -0.499349       -0.483111
   2 C       -0.652619        0.037707       -0.515175       -0.477468
   3 H        0.073373       -0.000659       -0.005798       -0.006457
   4 H        0.078399       -0.000843       -0.012874       -0.013717
   5 H        0.073373       -0.000659       -0.005798       -0.006457
   6 H        0.078399       -0.000843       -0.012874       -0.013717
   7 H        0.002412        1.022615       -0.021687        1.000928
  --------------------------------------------------------------------
  Sum:       -1.000000        1.073555       -1.073555        0.000000
  
  Multipole moment analysis of the density matrix
    Molecular charge:                      -1.000000
    Number of electrons:                   18.000000
      Center of electronic charge [Ang]: [  0.000000,  -0.000000,   0.037053]
    Total nuclear charge:                  17.000000
      Center of nuclear charge [Ang]:    [ -0.000000,   0.000000,  -0.000000]
    Dipole moment [D]:                     3.203522
      Cartesian components [D]:          [ -0.000000,   0.000000,  -3.203522]
    RMS size of the density [Ang]:         2.899625
      Cartesian components [Ang]:        [  0.765853,   0.931928,   2.636817]
  
  Exciton analysis of the difference density matrix
    <r_h> [Ang]:                  [  0.000000,  -0.000000,  -9.563739]
    <r_e> [Ang]:                  [  0.000000,   0.000000,   0.358322]
    |<r_e - r_h>| [Ang]:            9.922061
    Hole size [Ang]:                2.493106
      Cartesian components [Ang]: [  0.727649,   0.728626,   2.270509]
    Electron size [Ang]:            4.631057
      Cartesian components [Ang]: [  1.955347,   3.353074,   2.525905]

  Transition density matrix analysis:
  -----------------------------------
  
  CT numbers (Mulliken)
    omega =     0.9701
    <Phe> =     0.0002
  
  Exciton analysis of the transition density matrix
    Trans. dipole moment [D]:             0.011352
      Cartesian components [D]:         [ -0.000000,  -0.011352,   0.000000]
    <r_h> [Ang]:                        [  0.000000,  -0.000000, -10.031836]
    <r_e> [Ang]:                        [  0.000000,   0.000000,   0.634511]
    |<r_e - r_h>| [Ang]:                 10.666346
    Hole size [Ang]:                      1.130954
      Cartesian components [Ang]:       [  0.643072,   0.643010,   0.672349]
    Electron size [Ang]:                  4.493461
      Cartesian components [Ang]:       [  2.000783,   3.465504,   2.044099]
    RMS electron-hole separation [Ang]:  11.629528
      Cartesian components [Ang]:       [  2.101588,   3.524651,  10.881456]
    Covariance(r_h, r_e) [Ang^2]:        -0.002366
    Correlation coefficient:             -0.000466
    Center-of-mass size [Ang]:            2.316545
      Cartesian components [Ang]:       [  1.050794,   1.762328,   1.075366]

  Decomposition into state-averaged NTOs
    H- 0 -> L+ 0:  0.5219 ( 54.5%)
    H- 0 -> L+ 1: -0.4105 ( 33.7%)
    H- 0 -> L+ 2:  0.2099 (  8.8%)
                   omega =  97.0%
  ----------------------------------------------------------------------------


  Excited state 2 (singlet, B2)                                    [converged]
  ----------------------------------------------------------------------------
  Term symbol:  2 (1) B2                                    R^2 =  2.95276e-09

  Total energy:                                            -78.7423922196 a.u.
  Excitation energy:                                               1.150667 eV

  Osc. strength:                                                      0.000195
  Trans. dip. moment [a.u.]:           [  -0.000000,    0.083067,   -0.000000]
  <i|r^2|0> [a.u.]:                    [   0.000000,    0.000000,   -0.000000]

  Dip. moment [a.u.]:                  [  -0.000000,    0.000000,   -1.223369]
  Total dipole [Debye]:                                               3.109495
  <r^2> [a.u.]:                        [  33.096184,   41.361588,  461.230351]
  Total <r^2> [a.u.]:                                               535.688123

  V1^2 = 0.9693, V2^2 = 0.0307

  Important amplitudes:
      occ i      occ j       vir a       vir b          v   
    ---------------------------------------------------------
     6 (A1) A               3 (B2) A                 -0.6306
     6 (A1) A               2 (B2) A                  0.2564
    ---------------------------------------------------------

  Density matrix analysis:
  ------------------------
  NOs
    Occupation of frontier NOs:
       0.9946   1.0015
    Number of electrons: 18.000000
    Number of unpaired electrons: n_u =  2.41154, n_u,nl =  2.04621
    NO participation ratio (PR_NO):  2.910490
  
  
  Mulliken Population Analysis
  Atom      Charge (e)              h+              e-           Del q
  --------------------------------------------------------------------
   1 C       -0.628023        0.044748       -0.502546       -0.457799
   2 C       -0.655465        0.057359       -0.537673       -0.480314
   3 H        0.067572        0.001789       -0.014047       -0.012258
   4 H        0.073046        0.001529       -0.020599       -0.019070
   5 H        0.067572        0.001789       -0.014047       -0.012258
   6 H        0.073046        0.001529       -0.020599       -0.019070
   7 H        0.002253        1.021734       -0.020965        1.000768
  --------------------------------------------------------------------
  Sum:       -1.000000        1.130478       -1.130478        0.000000
  
  Multipole moment analysis of the density matrix
    Molecular charge:                      -1.000000
    Number of electrons:                   18.000000
      Center of electronic charge [Ang]: [  0.000000,  -0.000000,   0.035966]
    Total nuclear charge:                  17.000000
      Center of nuclear charge [Ang]:    [ -0.000000,   0.000000,  -0.000000]
    Dipole moment [D]:                     3.109494
      Cartesian components [D]:          [ -0.000000,   0.000000,  -3.109494]
    RMS size of the density [Ang]:         2.886604
      Cartesian components [Ang]:        [  0.717553,   0.802165,   2.678457]
  
  Exciton analysis of the difference density matrix
    <r_h> [Ang]:                  [  0.000000,   0.000000,  -9.042768]
    <r_e> [Ang]:                  [  0.000000,  -0.000000,   0.362375]
    |<r_e - r_h>| [Ang]:            9.405143
    Hole size [Ang]:                3.325209
      Cartesian components [Ang]: [  0.732531,   0.737673,   3.158520]
    Electron size [Ang]:            4.384395
      Cartesian components [Ang]: [  1.588655,   2.670971,   3.092734]

  Transition density matrix analysis:
  -----------------------------------
  
  CT numbers (Mulliken)
    omega =     0.9601
    <Phe> =     0.0002
  
  Exciton analysis of the transition density matrix
    Trans. dipole moment [D]:             0.105568
      Cartesian components [D]:         [ -0.000000,   0.105568,  -0.000000]
    <r_h> [Ang]:                        [  0.000000,  -0.000000, -10.032050]
    <r_e> [Ang]:                        [  0.000000,  -0.000000,   0.610962]
    |<r_e - r_h>| [Ang]:                 10.643012
    Hole size [Ang]:                      1.129865
      Cartesian components [Ang]:       [  0.643037,   0.642967,   0.670590]
    Electron size [Ang]:                  4.335881
      Cartesian components [Ang]:       [  1.629360,   2.819765,   2.862513]
    RMS electron-hole separation [Ang]:  11.547739
      Cartesian components [Ang]:       [  1.751659,   2.892136,  11.041627]
    Covariance(r_h, r_e) [Ang^2]:        -0.000052
    Correlation coefficient:             -0.000011
    Center-of-mass size [Ang]:            2.240332
      Cartesian components [Ang]:       [  0.875830,   1.446073,   1.469995]

  Decomposition into state-averaged NTOs
    H- 0 -> L+ 1:  0.4865 ( 47.3%)
    H- 0 -> L+ 0:  0.3874 ( 30.0%)
    H- 0 -> L+ 3:  0.3054 ( 18.6%)
                   omega =  96.0%
  ----------------------------------------------------------------------------


  Excited state 3 (singlet, B2)                                    [converged]
  ----------------------------------------------------------------------------
  Term symbol:  3 (1) B2                                    R^2 =  1.57112e-08

  Total energy:                                            -78.6985120395 a.u.
  Excitation energy:                                               2.344708 eV

  Osc. strength:                                                      0.000160
  Trans. dip. moment [a.u.]:           [  -0.000000,   -0.052844,   -0.000000]
  <i|r^2|0> [a.u.]:                    [   0.000000,    0.000000,   -0.000000]

  Dip. moment [a.u.]:                  [  -0.000000,    0.000000,   -1.242334]
  Total dipole [Debye]:                                               3.157698
  <r^2> [a.u.]:                        [  30.076582,   30.235915,  450.928422]
  Total <r^2> [a.u.]:                                               511.240919

  V1^2 = 0.9466, V2^2 = 0.0534

  Important amplitudes:
      occ i      occ j       vir a       vir b          v   
    ---------------------------------------------------------
     6 (A1) A               4 (B2) A                 -0.6608
     6 (A1) A               3 (B2) A                  0.1355
    ---------------------------------------------------------

  Density matrix analysis:
  ------------------------
  NOs
    Occupation of frontier NOs:
       0.9900   1.0008
    Number of electrons: 18.000000
    Number of unpaired electrons: n_u =  2.41508, n_u,nl =  2.04387
    NO participation ratio (PR_NO):  2.931088
  
  
  Mulliken Population Analysis
  Atom      Charge (e)              h+              e-           Del q
  --------------------------------------------------------------------
   1 C       -0.558943        0.135963       -0.524681       -0.388718
   2 C       -0.569562        0.161003       -0.555414       -0.394411
   3 H        0.028641        0.005138       -0.056326       -0.051188
   4 H        0.034845        0.004880       -0.062151       -0.057271
   5 H        0.028641        0.005138       -0.056326       -0.051188
   6 H        0.034845        0.004880       -0.062151       -0.057271
   7 H        0.001531        1.018888       -0.018842        1.000046
  --------------------------------------------------------------------
  Sum:       -1.000000        1.335890       -1.335890        0.000000
  
  Multipole moment analysis of the density matrix
    Molecular charge:                      -1.000000
    Number of electrons:                   18.000000
      Center of electronic charge [Ang]: [  0.000000,  -0.000000,   0.036523]
    Total nuclear charge:                  17.000000
      Center of nuclear charge [Ang]:    [ -0.000000,   0.000000,  -0.000000]
    Dipole moment [D]:                     3.157697
      Cartesian components [D]:          [ -0.000000,   0.000000,  -3.157697]
    RMS size of the density [Ang]:         2.819949
      Cartesian components [Ang]:        [  0.684036,   0.685846,   2.648362]
  
  Exciton analysis of the difference density matrix
    <r_h> [Ang]:                  [  0.000000,  -0.000000,  -7.532452]
    <r_e> [Ang]:                  [  0.000000,  -0.000000,   0.434024]
    |<r_e - r_h>| [Ang]:            7.966476
    Hole size [Ang]:                4.676905
      Cartesian components [Ang]: [  0.716329,   0.701723,   4.568139]
    Electron size [Ang]:            3.334912
      Cartesian components [Ang]: [  1.249727,   1.933103,   2.413076]

  Transition density matrix analysis:
  -----------------------------------
  
  CT numbers (Mulliken)
    omega =     0.9294
    <Phe> =     0.0001
  
  Exciton analysis of the transition density matrix
    Trans. dipole moment [D]:             0.067158
      Cartesian components [D]:         [ -0.000000,  -0.067158,  -0.000000]
    <r_h> [Ang]:                        [  0.000000,  -0.000000, -10.032057]
    <r_e> [Ang]:                        [  0.000000,   0.000000,   0.620721]
    |<r_e - r_h>| [Ang]:                 10.652778
    Hole size [Ang]:                      1.129660
      Cartesian components [Ang]:       [  0.642929,   0.642859,   0.670452]
    Electron size [Ang]:                  3.388611
      Cartesian components [Ang]:       [  1.271560,   2.190323,   2.251289]
    RMS electron-hole separation [Ang]:  11.235687
      Cartesian components [Ang]:       [  1.424859,   2.282708,  10.908698]
    Covariance(r_h, r_e) [Ang^2]:        -0.000082
    Correlation coefficient:             -0.000021
    Center-of-mass size [Ang]:            1.785963
      Cartesian components [Ang]:       [  0.712430,   1.141360,   1.174480]

  Decomposition into state-averaged NTOs
    H- 0 -> L+ 3:  0.6045 ( 73.1%)
    H- 0 -> L+ 1: -0.2473 ( 12.2%)
    H- 0 -> L+ 0: -0.1947 (  7.6%)
                   omega =  92.9%
  ----------------------------------------------------------------------------


  Excited state 4 (singlet, B2)                                    [converged]
  ----------------------------------------------------------------------------
  Term symbol:  4 (1) B2                                    R^2 =  2.58848e-08

  Total energy:                                            -78.6286458532 a.u.
  Excitation energy:                                               4.245863 eV

  Osc. strength:                                                      0.000000
  Trans. dip. moment [a.u.]:           [  -0.000000,    0.000561,   -0.000000]
  <i|r^2|0> [a.u.]:                    [   0.000000,    0.000000,   -0.000000]

  Dip. moment [a.u.]:                  [   0.000000,    0.000000,  -29.388144]
  Total dipole [Debye]:                                              74.697225
  <r^2> [a.u.]:                        [  50.863918,   68.624198,  162.664532]
  Total <r^2> [a.u.]:                                               282.152648

  V1^2 = 0.0008, V2^2 = 0.9992

  Important amplitudes:
      occ i      occ j       vir a       vir b          v   
    ---------------------------------------------------------
     6 (A1) A   6 (A1) B    7 (A1) A    2 (B2) B      0.3534
     6 (A1) A               2 (B2) A                  0.0201
    ---------------------------------------------------------

  Density matrix analysis:
  ------------------------
  NOs
    Occupation of frontier NOs:
       1.0005   1.0009
    Number of electrons: 18.000000
    Number of unpaired electrons: n_u =  2.40608, n_u,nl =  2.04898
    NO participation ratio (PR_NO):  2.880197
  
  
  Mulliken Population Analysis
  Atom      Charge (e)              h+              e-           Del q
  --------------------------------------------------------------------
   1 C       -2.775540       -0.000112       -2.605203       -2.605315
   2 C        0.471312        0.001488        0.644976        0.646464
   3 H        0.073198        0.000001       -0.006632       -0.006631
   4 H        0.079119        0.000002       -0.013000       -0.012997
   5 H        0.073198        0.000001       -0.006632       -0.006631
   6 H        0.079119        0.000002       -0.013000       -0.012997
   7 H        0.999593        1.998130       -0.000021        1.998109
  --------------------------------------------------------------------
  Sum:       -1.000000        1.999511       -1.999511        0.000000
  
  Multipole moment analysis of the density matrix
    Molecular charge:                      -1.000000
    Number of electrons:                   18.000000
      Center of electronic charge [Ang]: [ -0.000000,  -0.000000,   0.863974]
    Total nuclear charge:                  17.000000
      Center of nuclear charge [Ang]:    [ -0.000000,   0.000000,  -0.000000]
    Dipole moment [D]:                     74.697203
      Cartesian components [D]:          [  0.000000,   0.000000, -74.697203]
    RMS size of the density [Ang]:         1.908674
      Cartesian components [Ang]:        [  0.889549,   1.033245,   1.335718]
  
  Exciton analysis of the difference density matrix
    <r_h> [Ang]:                  [  0.000000,  -0.000000, -10.031937]
    <r_e> [Ang]:                  [ -0.000000,   0.000000,   2.739414]
    |<r_e - r_h>| [Ang]:           12.771351
    Hole size [Ang]:                1.134787
      Cartesian components [Ang]: [  0.643194,   0.643175,   0.678505]
    Electron size [Ang]:            4.168345
      Cartesian components [Ang]: [  2.006383,   2.820914,   2.322063]

  Transition density matrix analysis:
  -----------------------------------
  
  CT numbers (Mulliken)
    omega =     0.0008
    <Phe> =     0.0002
  
  Exciton analysis of the transition density matrix
    Trans. dipole moment [D]:             0.000713
      Cartesian components [D]:         [ -0.000000,   0.000713,  -0.000000]
    <r_h> [Ang]:                        [ -0.000000,  -0.000000, -10.036465]
    <r_e> [Ang]:                        [  0.000000,  -0.000000,   2.203096]
    |<r_e - r_h>| [Ang]:                 12.239562
    Hole size [Ang]:                      1.086157
      Cartesian components [Ang]:       [  0.625100,   0.625104,   0.631057]
    Electron size [Ang]:                  4.245024
      Cartesian components [Ang]:       [  1.941561,   3.362931,   1.715012]
    RMS electron-hole separation [Ang]:  13.000520
      Cartesian components [Ang]:       [  2.039708,   3.420540,  12.375501]
    Covariance(r_h, r_e) [Ang^2]:        -0.003348
    Correlation coefficient:             -0.000726
    Center-of-mass size [Ang]:            2.190506
      Cartesian components [Ang]:       [  1.019854,   1.710265,   0.912803]

  Decomposition into state-averaged NTOs
                   omega =   0.1%
  ----------------------------------------------------------------------------


  Excited state 5 (singlet, B2)                                    [converged]
  ----------------------------------------------------------------------------
  Term symbol:  5 (1) B2                                    R^2 =  5.76657e-09

  Total energy:                                            -78.6065355055 a.u.
  Excitation energy:                                               4.847516 eV

  Osc. strength:                                                      0.000000
  Trans. dip. moment [a.u.]:           [   0.000000,    0.000451,   -0.000000]
  <i|r^2|0> [a.u.]:                    [  -0.000000,   -0.000000,   -0.000000]

  Dip. moment [a.u.]:                  [   0.000000,    0.000000,  -24.048919]
  Total dipole [Debye]:                                              61.126267
  <r^2> [a.u.]:                        [  48.353318,   61.080255,  163.271192]
  Total <r^2> [a.u.]:                                               272.704766

  V1^2 = 0.0007, V2^2 = 0.9993

  Important amplitudes:
      occ i      occ j       vir a       vir b          v   
    ---------------------------------------------------------
     6 (A1) A   6 (A1) B    7 (A1) A    3 (B2) B     -0.3534
     6 (A1) A               3 (B2) A                 -0.0191
    ---------------------------------------------------------

  Density matrix analysis:
  ------------------------
  NOs
    Occupation of frontier NOs:
       1.0005   1.0023
    Number of electrons: 18.000000
    Number of unpaired electrons: n_u =  2.40323, n_u,nl =  2.04839
    NO participation ratio (PR_NO):  2.877738
  
  
  Mulliken Population Analysis
  Atom      Charge (e)              h+              e-           Del q
  --------------------------------------------------------------------
   1 C       -0.981818       -0.000182       -0.811412       -0.811593
   2 C       -1.321612        0.001516       -1.147977       -1.146461
   3 H        0.072874        0.000000       -0.006956       -0.006956
   4 H        0.079013        0.000004       -0.013106       -0.013103
   5 H        0.072874        0.000000       -0.006956       -0.006956
   6 H        0.079013        0.000004       -0.013106       -0.013103
   7 H        0.999657        1.998189       -0.000017        1.998172
  --------------------------------------------------------------------
  Sum:       -1.000000        1.999531       -1.999531        0.000000
  
  Multipole moment analysis of the density matrix
    Molecular charge:                      -1.000000
    Number of electrons:                   18.000000
      Center of electronic charge [Ang]: [ -0.000000,  -0.000000,   0.707008]
    Total nuclear charge:                  17.000000
      Center of nuclear charge [Ang]:    [ -0.000000,   0.000000,  -0.000000]
    Dipole moment [D]:                     61.126248
      Cartesian components [D]:          [  0.000000,   0.000000, -61.126248]
    RMS size of the density [Ang]:         1.934592
      Cartesian components [Ang]:        [  0.867317,   0.974800,   1.428346]
  
  Exciton analysis of the difference density matrix
    <r_h> [Ang]:                  [ -0.000000,  -0.000000, -10.032205]
    <r_e> [Ang]:                  [ -0.000000,  -0.000000,   1.325991]
    |<r_e - r_h>| [Ang]:           11.358196
    Hole size [Ang]:                1.133233
      Cartesian components [Ang]: [  0.643195,   0.643174,   0.675903]
    Electron size [Ang]:            4.669122
      Cartesian components [Ang]: [  1.916752,   2.626970,   3.350492]

  Transition density matrix analysis:
  -----------------------------------
  
  CT numbers (Mulliken)
    omega =     0.0007
    <Phe> =     0.0003
  
  Exciton analysis of the transition density matrix
    Trans. dipole moment [D]:             0.000573
      Cartesian components [D]:         [  0.000000,   0.000573,  -0.000000]
    <r_h> [Ang]:                        [ -0.000000,  -0.000000, -10.036727]
    <r_e> [Ang]:                        [ -0.000000,  -0.000000,  -0.695394]
    |<r_e - r_h>| [Ang]:                  9.341333
    Hole size [Ang]:                      1.083467
      Cartesian components [Ang]:       [  0.624195,   0.624206,   0.628210]
    Electron size [Ang]:                  4.745341
      Cartesian components [Ang]:       [  1.893262,   3.279033,   2.860378]
    RMS electron-hole separation [Ang]:  10.533503
      Cartesian components [Ang]:       [  1.993505,   3.338073,   9.789683]
    Covariance(r_h, r_e) [Ang^2]:        -0.001010
    Correlation coefficient:             -0.000196
    Center-of-mass size [Ang]:            2.433626
      Cartesian components [Ang]:       [  0.996752,   1.668881,   1.464192]

  Decomposition into state-averaged NTOs
                   omega =   0.1%
  ----------------------------------------------------------------------------


  Excited state 6 (singlet, B2)                                    [converged]
  ----------------------------------------------------------------------------
  Term symbol:  6 (1) B2                                    R^2 =  6.74196e-08

  Total energy:                                            -78.5884425724 a.u.
  Excitation energy:                                               5.339850 eV

  Osc. strength:                                                      0.000000
  Trans. dip. moment [a.u.]:           [  -0.000000,   -0.001718,    0.000000]
  <i|r^2|0> [a.u.]:                    [  -0.000000,   -0.000000,   -0.000000]

  Dip. moment [a.u.]:                  [   0.000000,   -0.000000,  -18.829851]
  Total dipole [Debye]:                                              47.860716
  <r^2> [a.u.]:                        [  48.281554,   66.014339,  153.172390]
  Total <r^2> [a.u.]:                                               267.468283

  V1^2 = 0.0319, V2^2 = 0.9681

  Important amplitudes:
      occ i      occ j       vir a       vir b          v   
    ---------------------------------------------------------
     6 (A1) A   6 (A1) B    8 (A1) A    2 (B2) B     -0.3476
     6 (A1) A               5 (B2) A                 -0.1186
    ---------------------------------------------------------

  Density matrix analysis:
  ------------------------
  NOs
    Occupation of frontier NOs:
       0.9711   0.9715
    Number of electrons: 18.000000
    Number of unpaired electrons: n_u =  2.40968, n_u,nl =  2.05174
    NO participation ratio (PR_NO):  3.054381
  
  
  Mulliken Population Analysis
  Atom      Charge (e)              h+              e-           Del q
  --------------------------------------------------------------------
   1 C       -1.086894        0.002222       -0.918891       -0.916669
   2 C       -1.237811        0.003033       -1.065693       -1.062660
   3 H        0.077556       -0.000042       -0.002232       -0.002274
   4 H        0.100133       -0.000060        0.008078        0.008017
   5 H        0.077556       -0.000042       -0.002232       -0.002274
   6 H        0.100133       -0.000060        0.008078        0.008017
   7 H        0.969326        1.968112       -0.000271        1.967841
  --------------------------------------------------------------------
  Sum:       -1.000000        1.973163       -1.973163        0.000000
  
  Multipole moment analysis of the density matrix
    Molecular charge:                      -1.000000
    Number of electrons:                   18.000000
      Center of electronic charge [Ang]: [ -0.000000,   0.000000,   0.553574]
    Total nuclear charge:                  17.000000
      Center of nuclear charge [Ang]:    [ -0.000000,   0.000000,  -0.000000]
    Dipole moment [D]:                     47.860702
      Cartesian components [D]:          [  0.000000,  -0.000000, -47.860702]
    RMS size of the density [Ang]:         1.963313
      Cartesian components [Ang]:        [  0.866673,   1.013407,   1.441000]
  
  Exciton analysis of the difference density matrix
    <r_h> [Ang]:                  [  0.000000,  -0.000000, -10.010179]
    <r_e> [Ang]:                  [ -0.000000,   0.000000,   0.100111]
    |<r_e - r_h>| [Ang]:           10.110290
    Hole size [Ang]:                1.236635
      Cartesian components [Ang]: [  0.643271,   0.642952,   0.837903]
    Electron size [Ang]:            4.643501
      Cartesian components [Ang]: [  1.925465,   2.772655,   3.188585]

  Transition density matrix analysis:
  -----------------------------------
  
  CT numbers (Mulliken)
    omega =     0.0316
    <Phe> =     0.0003
  
  Exciton analysis of the transition density matrix
    Trans. dipole moment [D]:             0.002184
      Cartesian components [D]:         [ -0.000000,  -0.002184,   0.000000]
    <r_h> [Ang]:                        [ -0.000000,  -0.000000, -10.030984]
    <r_e> [Ang]:                        [  0.000000,  -0.000000,   0.626335]
    |<r_e - r_h>| [Ang]:                 10.657319
    Hole size [Ang]:                      1.131084
      Cartesian components [Ang]:       [  0.639853,   0.639854,   0.678621]
    Electron size [Ang]:                  2.933298
      Cartesian components [Ang]:       [  1.289442,   2.231814,   1.400207]
    RMS electron-hole separation [Ang]:  11.113095
      Cartesian components [Ang]:       [  1.439470,   2.321720,  10.772114]
    Covariance(r_h, r_e) [Ang^2]:        -0.019426
    Correlation coefficient:             -0.005855
    Center-of-mass size [Ang]:            1.568816
      Cartesian components [Ang]:       [  0.719735,   1.160865,   0.771724]

  Decomposition into state-averaged NTOs
    H- 0 -> L+ 2:  0.1244 (  3.1%)
                   omega =   3.2%
  ----------------------------------------------------------------------------


  Excited state 7 (singlet, B2)                                    [converged]
  ----------------------------------------------------------------------------
  Term symbol:  7 (1) B2                                    R^2 =  1.36873e-08

  Total energy:                                            -78.5866170969 a.u.
  Excitation energy:                                               5.389524 eV

  Osc. strength:                                                      0.000005
  Trans. dip. moment [a.u.]:           [   0.000000,    0.005849,   -0.000000]
  <i|r^2|0> [a.u.]:                    [   0.000000,    0.000000,    0.000000]

  Dip. moment [a.u.]:                  [  -0.000000,    0.000000,   -1.753206]
  Total dipole [Debye]:                                               4.456206
  <r^2> [a.u.]:                        [  32.736246,   39.365243,  432.766555]
  Total <r^2> [a.u.]:                                               504.868044

  V1^2 = 0.9374, V2^2 = 0.0626

  Important amplitudes:
      occ i      occ j       vir a       vir b          v   
    ---------------------------------------------------------
     6 (A1) A               5 (B2) A                  0.6819
     6 (A1) A   6 (A1) B    8 (A1) A    2 (B2) B     -0.0596
    ---------------------------------------------------------

  Density matrix analysis:
  ------------------------
  NOs
    Occupation of frontier NOs:
       0.9600   0.9718
    Number of electrons: 18.000000
    Number of unpaired electrons: n_u =  2.42758, n_u,nl =  2.05522
    NO participation ratio (PR_NO):  3.131966
  
  
  Mulliken Population Analysis
  Atom      Charge (e)              h+              e-           Del q
  --------------------------------------------------------------------
   1 C       -0.614210        0.061558       -0.505543       -0.443985
   2 C       -0.635440        0.073222       -0.533511       -0.460289
   3 H        0.051605       -0.001251       -0.026974       -0.028225
   4 H        0.057861       -0.001299       -0.032956       -0.034255
   5 H        0.051605       -0.001251       -0.026974       -0.028225
   6 H        0.057861       -0.001299       -0.032956       -0.034255
   7 H        0.030718        1.048153       -0.018920        1.029233
  --------------------------------------------------------------------
  Sum:       -1.000000        1.177832       -1.177832        0.000000
  
  Multipole moment analysis of the density matrix
    Molecular charge:                      -1.000000
    Number of electrons:                   18.000000
      Center of electronic charge [Ang]: [  0.000000,  -0.000000,   0.051542]
    Total nuclear charge:                  17.000000
      Center of nuclear charge [Ang]:    [ -0.000000,   0.000000,  -0.000000]
    Dipole moment [D]:                     4.456204
      Cartesian components [D]:          [ -0.000000,   0.000000,  -4.456204]
    RMS size of the density [Ang]:         2.802079
      Cartesian components [Ang]:        [  0.713640,   0.782567,   2.594215]
  
  Exciton analysis of the difference density matrix
    <r_h> [Ang]:                  [  0.000000,  -0.000000,  -8.883371]
    <r_e> [Ang]:                  [  0.000000,  -0.000000,   0.381684]
    |<r_e - r_h>| [Ang]:            9.265055
    Hole size [Ang]:                3.523652
      Cartesian components [Ang]: [  0.718764,   0.707722,   3.376186]
    Electron size [Ang]:            3.651971
      Cartesian components [Ang]: [  1.529174,   2.520163,   2.155760]

  Transition density matrix analysis:
  -----------------------------------
  
  CT numbers (Mulliken)
    omega =     0.9301
    <Phe> =     0.0002
  
  Exciton analysis of the transition density matrix
    Trans. dipole moment [D]:             0.007433
      Cartesian components [D]:         [  0.000000,   0.007433,  -0.000000]
    <r_h> [Ang]:                        [  0.000000,  -0.000000, -10.030441]
    <r_e> [Ang]:                        [  0.000000,  -0.000000,   0.623163]
    |<r_e - r_h>| [Ang]:                 10.653604
    Hole size [Ang]:                      1.137424
      Cartesian components [Ang]:       [  0.642982,   0.642970,   0.683298]
    Electron size [Ang]:                  3.489097
      Cartesian components [Ang]:       [  1.557114,   2.695428,   1.576027]
    RMS electron-hole separation [Ang]:  11.269495
      Cartesian components [Ang]:       [  1.684645,   2.771052,  10.792811]
    Covariance(r_h, r_e) [Ang^2]:        -0.017356
    Correlation coefficient:             -0.004373
    Center-of-mass size [Ang]:            1.832540
      Cartesian components [Ang]:       [  0.842323,   1.385529,   0.853819]

  Decomposition into state-averaged NTOs
    H- 0 -> L+ 2: -0.6462 ( 83.5%)
    H- 0 -> L+ 0:  0.1633 (  5.3%)
    H- 0 -> L+ 1: -0.1434 (  4.1%)
                   omega =  93.0%
  ----------------------------------------------------------------------------


  Excited state 8 (singlet, B2)                                    [converged]
  ----------------------------------------------------------------------------
  Term symbol:  8 (1) B2                                    R^2 =  5.35294e-08

  Total energy:                                            -78.5662512508 a.u.
  Excitation energy:                                               5.943707 eV

  Osc. strength:                                                      0.000000
  Trans. dip. moment [a.u.]:           [  -0.000000,   -0.001027,    0.000000]
  <i|r^2|0> [a.u.]:                    [  -0.000000,    0.000000,    0.000000]

  Dip. moment [a.u.]:                  [   0.000000,    0.000000,  -14.013449]
  Total dipole [Debye]:                                              35.618640
  <r^2> [a.u.]:                        [  46.266570,   59.322745,  145.241511]
  Total <r^2> [a.u.]:                                               250.830826

  V1^2 = 0.0046, V2^2 = 0.9954

  Important amplitudes:
      occ i      occ j       vir a       vir b          v   
    ---------------------------------------------------------
     6 (A1) A   6 (A1) B    8 (A1) A    3 (B2) B      0.3527
     6 (A1) A               3 (B2) A                  0.0466
    ---------------------------------------------------------

  Density matrix analysis:
  ------------------------
  NOs
    Occupation of frontier NOs:
       1.0002   1.0021
    Number of electrons: 18.000000
    Number of unpaired electrons: n_u =  2.40426, n_u,nl =  2.04838
    NO participation ratio (PR_NO):  2.878766
  
  
  Mulliken Population Analysis
  Atom      Charge (e)              h+              e-           Del q
  --------------------------------------------------------------------
   1 C        0.691646       -0.000195        0.862066        0.861871
   2 C       -3.048731        0.000750       -2.874330       -2.873580
   3 H        0.078043        0.000007       -0.001794       -0.001787
   4 H        0.101494       -0.000007        0.009385        0.009378
   5 H        0.078043        0.000007       -0.001794       -0.001787
   6 H        0.101494       -0.000007        0.009385        0.009378
   7 H        0.998010        1.996581       -0.000055        1.996525
  --------------------------------------------------------------------
  Sum:       -1.000000        1.997136       -1.997136        0.000000
  
  Multipole moment analysis of the density matrix
    Molecular charge:                      -1.000000
    Number of electrons:                   18.000000
      Center of electronic charge [Ang]: [ -0.000000,  -0.000000,   0.411978]
    Total nuclear charge:                  17.000000
      Center of nuclear charge [Ang]:    [ -0.000000,   0.000000,  -0.000000]
    Dipole moment [D]:                     35.618630
      Cartesian components [D]:          [  0.000000,   0.000000, -35.618630]
    RMS size of the density [Ang]:         1.931964
      Cartesian components [Ang]:        [  0.848396,   0.960673,   1.445620]
  
  Exciton analysis of the difference density matrix
    <r_h> [Ang]:                  [  0.000000,  -0.000000, -10.034349]
    <r_e> [Ang]:                  [ -0.000000,   0.000000,  -1.321612]
    |<r_e - r_h>| [Ang]:            8.712737
    Hole size [Ang]:                1.125696
      Cartesian components [Ang]: [  0.641906,   0.641919,   0.665649]
    Electron size [Ang]:            4.321721
      Cartesian components [Ang]: [  1.839455,   2.580835,   2.938191]

  Transition density matrix analysis:
  -----------------------------------
  
  CT numbers (Mulliken)
    omega =     0.0046
    <Phe> =     0.0003
  
  Exciton analysis of the transition density matrix
    Trans. dipole moment [D]:             0.001305
      Cartesian components [D]:         [ -0.000000,  -0.001305,   0.000000]
    <r_h> [Ang]:                        [ -0.000000,  -0.000000, -10.037491]
    <r_e> [Ang]:                        [ -0.000000,  -0.000000,  -0.689931]
    |<r_e - r_h>| [Ang]:                  9.347559
    Hole size [Ang]:                      1.073476
      Cartesian components [Ang]:       [  0.618277,   0.618281,   0.622746]
    Electron size [Ang]:                  4.792665
      Cartesian components [Ang]:       [  1.912474,   3.312200,   2.888150]
    RMS electron-hole separation [Ang]:  10.559440
      Cartesian components [Ang]:       [  2.009931,   3.369442,   9.803510]
    Covariance(r_h, r_e) [Ang^2]:        -0.001463
    Correlation coefficient:             -0.000284
    Center-of-mass size [Ang]:            2.455558
      Cartesian components [Ang]:       [  1.004966,   1.684691,   1.477032]

  Decomposition into state-averaged NTOs
                   omega =   0.5%
  ----------------------------------------------------------------------------


  Excited state 9 (singlet, B2)                                    [converged]
  ----------------------------------------------------------------------------
  Term symbol:  9 (1) B2                                    R^2 =  5.04675e-08

  Total energy:                                            -78.5654431751 a.u.
  Excitation energy:                                               5.965696 eV

  Osc. strength:                                                      0.000000
  Trans. dip. moment [a.u.]:           [  -0.000000,   -0.000240,    0.000000]
  <i|r^2|0> [a.u.]:                    [  -0.000000,   -0.000000,    0.000000]

  Dip. moment [a.u.]:                  [   0.000000,    0.000000,  -24.461938]
  Total dipole [Debye]:                                              62.176057
  <r^2> [a.u.]:                        [  46.892844,   68.211641,  110.842645]
  Total <r^2> [a.u.]:                                               225.947130

  V1^2 = 0.0002, V2^2 = 0.9998

  Important amplitudes:
      occ i      occ j       vir a       vir b          v   
    ---------------------------------------------------------
     6 (A1) A   6 (A1) B    9 (A1) A    2 (B2) B     -0.3535
     6 (A1) A               2 (B2) A                 -0.0082
    ---------------------------------------------------------

  Density matrix analysis:
  ------------------------
  NOs
    Occupation of frontier NOs:
       1.0008   1.0029
    Number of electrons: 18.000000
    Number of unpaired electrons: n_u =  2.40117, n_u,nl =  2.04879
    NO participation ratio (PR_NO):  2.875456
  
  
  Mulliken Population Analysis
  Atom      Charge (e)              h+              e-           Del q
  --------------------------------------------------------------------
   1 C       -2.690652       -0.000326       -2.520101       -2.520427
   2 C        0.055146        0.001688        0.228610        0.230298
   3 H        0.166104        0.000002        0.086273        0.086275
   4 H        0.151652        0.000012        0.059524        0.059536
   5 H        0.166104        0.000002        0.086273        0.086275
   6 H        0.151652        0.000012        0.059524        0.059536
   7 H        0.999992        1.998508       -0.000000        1.998508
  --------------------------------------------------------------------
  Sum:       -1.000000        1.999897       -1.999897        0.000000
  
  Multipole moment analysis of the density matrix
    Molecular charge:                      -1.000000
    Number of electrons:                   18.000000
      Center of electronic charge [Ang]: [ -0.000000,  -0.000000,   0.719150]
    Total nuclear charge:                  17.000000
      Center of nuclear charge [Ang]:    [ -0.000000,   0.000000,  -0.000000]
    Dipole moment [D]:                     62.176039
      Cartesian components [D]:          [  0.000000,   0.000000, -62.176039]
    RMS size of the density [Ang]:         1.731449
      Cartesian components [Ang]:        [  0.854119,   1.030135,   1.098735]
  
  Exciton analysis of the difference density matrix
    <r_h> [Ang]:                  [  0.000000,  -0.000000, -10.032584]
    <r_e> [Ang]:                  [ -0.000000,  -0.000000,   1.432817]
    |<r_e - r_h>| [Ang]:           11.465402
    Hole size [Ang]:                1.128366
      Cartesian components [Ang]: [  0.643322,   0.643281,   0.667485]
    Electron size [Ang]:            3.869093
      Cartesian components [Ang]: [  1.862526,   2.810421,   1.898001]

  Transition density matrix analysis:
  -----------------------------------
  
  CT numbers (Mulliken)
    omega =     0.0002
    <Phe> =     0.0003
  
  Exciton analysis of the transition density matrix
    Trans. dipole moment [D]:             0.000304
      Cartesian components [D]:         [ -0.000000,  -0.000304,   0.000000]
    <r_h> [Ang]:                        [ -0.000000,  -0.000000, -10.033777]
    <r_e> [Ang]:                        [  0.000000,  -0.000000,   1.622220]
    |<r_e - r_h>| [Ang]:                 11.655997
    Hole size [Ang]:                      1.098331
      Cartesian components [Ang]:       [  0.622555,   0.622657,   0.656548]
    Electron size [Ang]:                  4.140354
      Cartesian components [Ang]:       [  1.786895,   3.094884,   2.090748]
    RMS electron-hole separation [Ang]:  12.421224
      Cartesian components [Ang]:       [  1.892239,   3.156924,  11.863392]
    Covariance(r_h, r_e) [Ang^2]:        -0.037844
    Correlation coefficient:             -0.008322
    Center-of-mass size [Ang]:            2.137357
      Cartesian components [Ang]:       [  0.946120,   1.578437,   1.087055]

  Decomposition into state-averaged NTOs
                   omega =   0.0%
  ----------------------------------------------------------------------------


  Excited state 10 (singlet, B2)                                    [converged]
  ----------------------------------------------------------------------------
  Term symbol:  10 (1) B2                                   R^2 =  8.27665e-06

  Total energy:                                            -78.5433435711 a.u.
  Excitation energy:                                               6.567056 eV

  Osc. strength:                                                      0.000000
  Trans. dip. moment [a.u.]:           [  -0.000000,    0.000151,   -0.000000]
  <i|r^2|0> [a.u.]:                    [   0.000000,   -0.000000,    0.000000]

  Dip. moment [a.u.]:                  [   0.000000,    0.000000,  -19.118716]
  Total dipole [Debye]:                                              48.594938
  <r^2> [a.u.]:                        [  44.375908,   60.664054,  111.438494]
  Total <r^2> [a.u.]:                                               216.478456

  V1^2 = 0.0001, V2^2 = 0.9999

  Important amplitudes:
      occ i      occ j       vir a       vir b          v   
    ---------------------------------------------------------
     6 (A1) A   6 (A1) B    9 (A1) A    3 (B2) B     -0.3535
     6 (A1) A               3 (B2) A                 -0.0060
    ---------------------------------------------------------

  Density matrix analysis:
  ------------------------
  NOs
    Occupation of frontier NOs:
       1.0023   1.0030
    Number of electrons: 18.000000
    Number of unpaired electrons: n_u =  2.39824, n_u,nl =  2.04820
    NO participation ratio (PR_NO):  2.872920
  
  
  Mulliken Population Analysis
  Atom      Charge (e)              h+              e-           Del q
  --------------------------------------------------------------------
   1 C       -0.896289       -0.000430       -0.725635       -0.726065
   2 C       -1.738594        0.001777       -1.565220       -1.563443
   3 H        0.165818        0.000006        0.085982        0.085988
   4 H        0.151605        0.000012        0.059477        0.059489
   5 H        0.165818        0.000006        0.085982        0.085988
   6 H        0.151605        0.000012        0.059477        0.059489
   7 H        1.000038        1.998554       -0.000001        1.998554
  --------------------------------------------------------------------
  Sum:       -1.000000        1.999937       -1.999937        0.000000
  
  Multipole moment analysis of the density matrix
    Molecular charge:                      -1.000000
    Number of electrons:                   18.000000
      Center of electronic charge [Ang]: [ -0.000000,  -0.000000,   0.562066]
    Total nuclear charge:                  17.000000
      Center of nuclear charge [Ang]:    [ -0.000000,   0.000000,  -0.000000]
    Dipole moment [D]:                     48.594923
      Cartesian components [D]:          [  0.000000,   0.000000, -48.594923]
    RMS size of the density [Ang]:         1.746959
      Cartesian components [Ang]:        [  0.830880,   0.971473,   1.190691]
  
  Exciton analysis of the difference density matrix
    <r_h> [Ang]:                  [  0.000000,  -0.000000, -10.032619]
    <r_e> [Ang]:                  [ -0.000000,  -0.000000,   0.018755]
    |<r_e - r_h>| [Ang]:           10.051374
    Hole size [Ang]:                1.128305
      Cartesian components [Ang]: [  0.643351,   0.643304,   0.667333]
    Electron size [Ang]:            3.962188
      Cartesian components [Ang]: [  1.765379,   2.615635,   2.396003]

  Transition density matrix analysis:
  -----------------------------------
  
  CT numbers (Mulliken)
    omega =     0.0001
    <Phe> =     0.0004
  
  Exciton analysis of the transition density matrix
    Trans. dipole moment [D]:             0.000192
      Cartesian components [D]:         [ -0.000000,   0.000192,  -0.000000]
    <r_h> [Ang]:                        [ -0.000000,  -0.000000, -10.033112]
    <r_e> [Ang]:                        [  0.000000,  -0.000000,  -0.170534]
    |<r_e - r_h>| [Ang]:                  9.862578
    Hole size [Ang]:                      1.095353
      Cartesian components [Ang]:       [  0.617774,   0.618008,   0.660469]
    Electron size [Ang]:                  4.171607
      Cartesian components [Ang]:       [  1.655551,   2.867092,   2.537959]
    RMS electron-hole separation [Ang]:  10.767654
      Cartesian components [Ang]:       [  1.767057,   2.932980,  10.208697]
    Covariance(r_h, r_e) [Ang^2]:        -0.034909
    Correlation coefficient:             -0.007640
    Center-of-mass size [Ang]:            2.152457
      Cartesian components [Ang]:       [  0.883529,   1.466453,   1.304593]

  Decomposition into state-averaged NTOs
                   omega =   0.0%
  ----------------------------------------------------------------------------


--------------------------------------------------------------------------------
  Time of ADC calculation:  CPU 290.40 s  wall 83.44 s
================================================================================
 
 --------------------------------------------------------------
             Orbital Energies (a.u.) and Symmetries
 --------------------------------------------------------------
 
 Alpha MOs, Restricted
 -- Occupied --                  
-11.187 -11.185  -0.992  -0.732  -0.611  -0.517  -0.465  -0.327
  1 A1    2 A1    3 A1    4 A1    1 B1    5 A1    2 B1    1 B2                 
  0.022
  6 A1                                                                         
 -- Virtual --                   
  0.096   0.097   0.103   0.125   0.125   0.135   0.159   0.194
  7 A1    3 B1    2 B2    4 B1    3 B2    8 A1    9 A1    4 B2                 
  0.256   0.257   0.262   0.278   0.285   0.292   0.317   0.363
 10 A1    5 B1   11 A1    6 B1    5 B2   12 A1   13 A1    6 B2                 
  0.392   0.402   0.561   0.609   0.798   0.884   0.915   0.942
  7 B1   14 A1    8 B1   15 A1   16 A1    9 B1   17 A1   10 B1                 
  0.978   0.985   1.035   1.047   1.057   1.082   1.119   1.164
 18 A1    7 B2    8 B2   19 A1   20 A1   21 A1   11 B1    1 A2                 
  1.334   1.334   1.358   1.399   1.661   1.665   1.756   1.907
  9 B2    2 A2   22 A1   12 B1   23 A1   13 B1   14 B1   10 B2                 
  1.967   1.967   1.967   1.970   1.990   2.061   2.067   2.110
 24 A1   15 B1   11 B2   25 A1   12 B2   26 A1    3 A2   16 B1                 
  2.224   2.369   2.462   2.499   2.619   2.620   2.849   2.856
 13 B2   27 A1    4 A2   28 A1   17 B1   29 A1   18 B1   30 A1                 
  3.290   3.390
 31 A1   19 B1                                                                 
 
 Beta MOs, Restricted
 -- Occupied --                  
-11.187 -11.185  -0.992  -0.732  -0.611  -0.517  -0.465  -0.327
  1 A1    2 A1    3 A1    4 A1    1 B1    5 A1    2 B1    1 B2                 
  0.022
  6 A1                                                                         
 -- Virtual --                   
  0.096   0.097   0.103   0.125   0.125   0.135   0.159   0.194
  7 A1    3 B1    2 B2    4 B1    3 B2    8 A1    9 A1    4 B2                 
  0.256   0.257   0.262   0.278   0.285   0.292   0.317   0.363
 10 A1    5 B1   11 A1    6 B1    5 B2   12 A1   13 A1    6 B2                 
  0.392   0.402   0.561   0.609   0.798   0.884   0.915   0.942
  7 B1   14 A1    8 B1   15 A1   16 A1    9 B1   17 A1   10 B1                 
  0.978   0.985   1.035   1.047   1.057   1.082   1.119   1.164
 18 A1    7 B2    8 B2   19 A1   20 A1   21 A1   11 B1    1 A2                 
  1.334   1.334   1.358   1.399   1.661   1.665   1.756   1.907
  9 B2    2 A2   22 A1   12 B1   23 A1   13 B1   14 B1   10 B2                 
  1.967   1.967   1.967   1.970   1.990   2.061   2.067   2.110
 24 A1   15 B1   11 B2   25 A1   12 B2   26 A1    3 A2   16 B1                 
  2.224   2.369   2.462   2.499   2.619   2.620   2.849   2.856
 13 B2   27 A1    4 A2   28 A1   17 B1   29 A1   18 B1   30 A1                 
  3.290   3.390
 31 A1   19 B1                                                                 
 --------------------------------------------------------------
 
          Ground-State Mulliken Net Atomic Charges

     Atom                 Charge (a.u.)
  ----------------------------------------
      1 C                    -0.160227
      2 C                    -0.156311
      3 H                     0.072617
      4 H                     0.084952
      5 H                     0.072617
      6 H                     0.084952
      7 H                    -0.998599
  ----------------------------------------
  Sum of atomic charges =    -1.000000

 -----------------------------------------------------------------
                    Cartesian Multipole Moments
 -----------------------------------------------------------------
    Charge (ESU x 10^10)
                -4.8032
    Dipole Moment (Debye)
         X      -0.0000      Y       0.0000      Z      47.9478
       Tot      47.9478
    Quadrupole Moments (Debye-Ang)
        XX     -15.9453     XY      -0.0000     YY     -20.1054
        XZ       0.0000     YZ       0.0000     ZZ    -500.4681
    Octopole Moments (Debye-Ang^2)
       XXX       0.0000    XXY       0.0000    XYY       0.0000
       YYY       0.0000    XXZ      31.9857    XYZ       0.0000
       YYZ      29.4092    XZZ       0.0000    YZZ       0.0000
       ZZZ    4944.4780
    Hexadecapole Moments (Debye-Ang^3)
      XXXX     -33.0765   XXXY       0.0000   XXYY     -10.9902
      XYYY       0.0000   YYYY     -27.5697   XXXZ       0.0000
      XXYZ       0.0000   XYYZ       0.0000   YYYZ       0.0000
      XXZZ    -418.5298   XYZZ      -0.0000   YYZZ    -422.4358
      XZZZ       0.0000   YZZZ      -0.0000   ZZZZ  -51178.4362
 -----------------------------------------------------------------
 Total job time:  166.13s(wall), 336.74s(cpu) 
 Fri Mar 25 16:38:18 2022

        *************************************************************
        *                                                           *
        *  Thank you very much for using Q-Chem.  Have a nice day.  *
        *                                                           *
        *************************************************************


