/src/tsommerfeld/qchem/exe/qcprog.exe .input1.361111.6959.qcin.1 /src/jdavis/qchem.scratch/qchem6959/

                  Welcome to Q-Chem
     A Quantum Leap Into The Future Of Chemistry


 Q-Chem 5.4 (devel), Q-Chem, Inc., Pleasanton, CA (2021)

 E. Epifanovsky,  A. T. B. Gilbert,  Xintian Feng,  Joonho Lee,  Yuezhi Mao,  
 N. Mardirossian,  P. Pokhilko,  A. White,  M. Wormit,  M. P. Coons,  
 A. L. Dempwolff,  Zhengting Gan,  D. Hait,  P. R. Horn,  L. D. Jacobson,  
 I. Kaliman,  J. Kussmann,  A. W. Lange,  Ka Un Lao,  D. S. Levine,  Jie Liu,  
 S. C. McKenzie,  A. F. Morrison,  K. Nanda,  F. Plasser,  D. R. Rehn,  
 M. L. Vidal,  Zhi-Qiang You,  Ying Zhu,  B. Alam,  B. Albrecht,  
 A. Aldossary,  E. Alguire,  J. H. Andersen,  D. Barton,  K. Begam,  A. Behn,  
 Y. A. Bernard,  E. J. Berquist,  H. Burton,  A. Carreras,  K. Carter-Fenk,  
 R. Chakraborty,  A. D. Chien,  K. D. Closser,  V. Cofer-Shabica,  
 S. Dasgupta,  Jia Deng,  M. de Wergifosse,  M. Diedenhofen,  Hainam Do,  
 S. Ehlert,  Po-Tung Fang,  S. Fatehi,  Qingguo Feng,  T. Friedhoff,  
 J. Gayvert,  Qinghui Ge,  G. Gidofalvi,  M. Goldey,  J. Gomes,  
 C. Gonzalez-Espinoza,  S. Gulania,  A. Gunina,  M. W. D. Hanson-Heine,  
 P. H. P. Harbach,  A. W. Hauser,  M. F. Herbst,  M. Hernandez Vera,  
 M. Hodecker,  Z. C. Holden,  S. Houck,  Xunkun Huang,  Kerwin Hui,  
 B. C. Huynh,  M. Ivanov,  Hyunjun Ji,  Hanjie Jiang,  B. Kaduk,  S. Kaehler,  
 K. Khistyaev,  Jaehoon Kim,  P. Klunzinger,  Z. Koczor-Benda,  
 Joong Hoon Koh,  D. Kosenkov,  L. Koulias,  T. Kowalczyk,  C. M. Krauter,  
 K. Kue,  A. Kunitsa,  T. Kus,  A. Landau,  K. V. Lawler,  D. Lefrancois,  
 S. Lehtola,  Rain Li,  Yi-Pei Li,  Jiashu Liang,  M. Liebenthal,  
 Hung-Hsuan Lin,  You-Sheng Lin,  Fenglai Liu,  Kuan-Yu Liu,  
 M. Loipersberger,  A. Luenser,  A. Manjanath,  P. Manohar,  E. Mansoor,  
 S. F. Manzer,  Shan-Ping Mao,  A. V. Marenich,  T. Markovich,  S. Mason,  
 S. A. Maurer,  P. F. McLaughlin,  M. F. S. J. Menger,  J.-M. Mewes,  
 S. A. Mewes,  P. Morgante,  J. W. Mullinax,  K. J. Oosterbaan,  G. Paran,  
 Alexander C. Paul,  Suranjan K. Paul,  F. Pavosevic,  Zheng Pei,  S. Prager,  
 E. I. Proynov,  E. Ramos,  B. Rana,  A. E. Rask,  A. Rettig,  R. M. Richard,  
 F. Rob,  E. Rossomme,  T. Scheele,  M. Scheurer,  M. Schneider,  
 N. Sergueev,  S. M. Sharada,  W. Skomorowski,  D. W. Small,  C. J. Stein,  
 Yu-Chuan Su,  E. J. Sundstrom,  Zhen Tao,  J. Thirman,  T. Tsuchimochi,  
 N. M. Tubman,  S. P. Veccham,  O. Vydrov,  J. Wenzel,  J. Witte,  A. Yamada,  
 Kun Yao,  S. Yeganeh,  S. R. Yost,  A. Zech,  Igor Ying Zhang,  Xing Zhang,  
 Yu Zhang,  D. Zuev,  A. Aspuru-Guzik,  A. T. Bell,  N. A. Besley,  
 K. B. Bravaya,  B. R. Brooks,  D. Casanova,  Jeng-Da Chai,  S. Coriani,  
 C. J. Cramer,  A. E. DePrince, III,  R. A. DiStasio Jr.,  A. Dreuw,  
 B. D. Dunietz,  T. R. Furlani,  W. A. Goddard III,  S. Grimme,  
 S. Hammes-Schiffer,  T. Head-Gordon,  W. J. Hehre,  Chao-Ping Hsu,  
 T.-C. Jagau,  Yousung Jung,  A. Klamt,  Jing Kong,  D. S. Lambrecht,  
 WanZhen Liang,  N. J. Mayhall,  C. W. McCurdy,  J. B. Neaton,  
 C. Ochsenfeld,  J. A. Parkhill,  R. Peverati,  V. A. Rassolov,  Yihan Shao,  
 L. V. Slipchenko,  T. Stauch,  R. P. Steele,  J. E. Subotnik,  
 A. J. W. Thom,  A. Tkatchenko,  D. G. Truhlar,  T. Van Voorhis,  
 T. A. Wesolowski,  K. B. Whaley,  H. L. Woodcock III,  P. M. Zimmerman,  
 S. Faraji,  P. M. W. Gill,  M. Head-Gordon,  J. M. Herbert,  A. I. Krylov

 Additional authors for Version 5.4.1: 
 S. Kotaru,  Shaozhi Li,  Xiangyuan Li,  F. Matz,  A. Molle,  Haisheng Ren,  
 Yingli Su,  Hung-Yi Tsai,  C. Utku,  Fang Wang

 Contributors to earlier versions of Q-Chem not listed above: 
 R. D. Adamson,  B. Austin,  R. Baer,  J. Baker,  G. J. O. Beran,  
 K. Brandhorst,  S. T. Brown,  E. F. C. Byrd,  A. K. Chakraborty,  
 G. K. L. Chan,  Chun-Min Chang,  Yunqing Chen,  C.-L. Cheng,  
 Siu Hung Chien,  D. M. Chipman,  D. L. Crittenden,  H. Dachsel,  
 R. J. Doerksen,  A. D. Dutoi,  R. G. Edgar,  J. Fosso-Tande,  
 L. Fusti-Molnar,  D. Ghosh,  A. Ghysels,  A. Golubeva-Zadorozhnaya,  
 J. Gonthier,  M. S. Gordon,  S. R. Gwaltney,  G. Hawkins,  J. E. Herr,  
 A. Heyden,  S. Hirata,  E. G. Hohenstein,  G. Kedziora,  F. J. Keil,  
 C. Kelley,  Jihan Kim,  R. A. King,  R. Z. Khaliullin,  P. P. Korambath,  
 W. Kurlancheek,  A. Laurent,  A. M. Lee,  M. S. Lee,  S. V. Levchenko,  
 Ching Yeh Lin,  D. Liotard,  E. Livshits,  R. C. Lochan,  I. Lotan,  
 L. A. Martinez-Martinez,  P. E. Maslen,  N. Nair,  D. P. O'Neill,  
 D. Neuhauser,  E. Neuscamman,  C. M. Oana,  R. Olivares-Amaya,  R. Olson,  
 T. M. Perrine,  B. Peters,  P. A. Pieniazek,  A. Prociuk,  Y. M. Rhee,  
 J. Ritchie,  M. A. Rohrdanz,  E. Rosta,  N. J. Russ,  H. F. Schaefer III,  
 M. W. Schmidt,  N. E. Schultz,  S. Sharma,  N. Shenvi,  C. D. Sherrill,  
 A. C. Simmonett,  A. Sodt,  T. Stein,  D. Stuck,  K. S. Thanthiriwatte,  
 V. Vanovschi,  L. Vogt,  Tao Wang,  A. Warshel,  M. A. Watson,  
 C. F. Williams,  Q. Wu,  X. Xu,  Jun Yang,  W. Zhang,  Yan Zhao

 Please cite Q-Chem as follows:
 Y. Shao et al., Mol. Phys. 113, 184-215 (2015)
 DOI: 10.1080/00268976.2014.952696

 Q-Chem 5.4.1 for Intel X86 EM64T Linux

 Parts of Q-Chem use Armadillo 9.900.5 (Nocturnal Misbehaviour).
 http://arma.sourceforge.net/

 Q-Chem begins on Fri Mar 25 17:56:41 2022  

 Host: node01
0

     Scratch files written to /src/jdavis/qchem.scratch/qchem6959//
 Processing $rem in /src/tsommerfeld/qchem/config/preferences:
 Processing $rem in /home/jdavis/.qchemrc:

 Checking the input file for inconsistencies... 	...done.

--------------------------------------------------------------
User input:
--------------------------------------------------------------
$molecule
-1 1
C         0.0000000000    0.0000000000    0.8417902907
C         0.0000000000    0.0000000000   -0.4872097093
H         0.9623488518    0.0000000000    1.3363703127
H         0.9623489048    0.0000000000   -0.9817896873
H        -0.9623488518    0.0000000000    1.3363703127
H        -0.9623489048    0.0000000000   -0.9817896873
H         0.0000000000    0.0000000000   -10.4872097093
$end

$rem
   METHOD adc(2)
   BASIS gen
   PURECART 11
   EE_STATES [0,0,0,10]
   scf_convergence 8
   ADC_DAVIDSON_MAXITER 120
   ADC_DAVIDSON_MAXSUBSPACE 200
   adc_nguess_singles 100
   THRESH 14
   S2THRESH 14
   adc_davidson_conv 5
   adc_davidson_thresh 14
   THREADS 10
   MEM_TOTAL 95000
   STATE_ANALYSIS TRUE
$end
$basis
C 1
S   9   1.00
      6.665000D+03           6.920000D-04
      1.000000D+03           5.329000D-03
      2.280000D+02           2.707700D-02
      6.471000D+01           1.017180D-01
      2.106000D+01           2.747400D-01
      7.495000D+00           4.485640D-01
      2.797000D+00           2.850740D-01
      5.215000D-01           1.520400D-02
      1.596000D-01          -3.191000D-03
S   9   1.00
      6.665000D+03          -1.460000D-04
      1.000000D+03          -1.154000D-03
      2.280000D+02          -5.725000D-03
      6.471000D+01          -2.331200D-02
      2.106000D+01          -6.395500D-02
      7.495000D+00          -1.499810D-01
      2.797000D+00          -1.272620D-01
      5.215000D-01           5.445290D-01
      1.596000D-01           5.804960D-01
S   1   1.00
      1.596000D-01           1.000000D+00
S   1   1.00
      0.0469000              1.0000000
P   4   1.00
      9.439000D+00           3.810900D-02
      2.002000D+00           2.094800D-01
      5.456000D-01           5.085570D-01
      1.517000D-01           4.688420D-01
P   1   1.00
      1.517000D-01           1.000000D+00
P   1   1.00
      0.0825922      1.0000000
P   1   1.00
      0.0412961      1.0000000
D   1   1.00
      5.500000D-01           1.0000000
****
C 2
S   9   1.00
      6.665000D+03           6.920000D-04
      1.000000D+03           5.329000D-03
      2.280000D+02           2.707700D-02
      6.471000D+01           1.017180D-01
      2.106000D+01           2.747400D-01
      7.495000D+00           4.485640D-01
      2.797000D+00           2.850740D-01
      5.215000D-01           1.520400D-02
      1.596000D-01          -3.191000D-03
S   9   1.00
      6.665000D+03          -1.460000D-04
      1.000000D+03          -1.154000D-03
      2.280000D+02          -5.725000D-03
      6.471000D+01          -2.331200D-02
      2.106000D+01          -6.395500D-02
      7.495000D+00          -1.499810D-01
      2.797000D+00          -1.272620D-01
      5.215000D-01           5.445290D-01
      1.596000D-01           5.804960D-01
S   1   1.00
      1.596000D-01           1.000000D+00
S   1   1.00
      0.0469000              1.0000000
P   4   1.00
      9.439000D+00           3.810900D-02
      2.002000D+00           2.094800D-01
      5.456000D-01           5.085570D-01
      1.517000D-01           4.688420D-01
P   1   1.00
      1.517000D-01           1.000000D+00
P   1   1.00
      0.0825922      1.0000000
P   1   1.00
      0.0412961      1.0000000
D   1   1.00
      5.500000D-01           1.0000000
****
H 3
cc-pVDZ
****
H 4
cc-pVDZ
****
H 5
cc-pVDZ
****
H 6
cc-pVDZ
****
H 7
aug-cc-pVDZ
****
$end
--------------------------------------------------------------
 ----------------------------------------------------------------
             Standard Nuclear Orientation (Angstroms)
    I     Atom           X                Y                Z
 ----------------------------------------------------------------
    1      C       0.0000000000     0.0000000000     1.2918235242
    2      C       0.0000000000     0.0000000000    -0.0371764758
    3      H       0.9623488518     0.0000000000     1.7864035462
    4      H       0.9623489048     0.0000000000    -0.5317564538
    5      H      -0.9623488518     0.0000000000     1.7864035462
    6      H      -0.9623489048     0.0000000000    -0.5317564538
    7      H       0.0000000000     0.0000000000   -10.0371764758
 ----------------------------------------------------------------
 Molecular Point Group                 C2v   NOp =  4
 Largest Abelian Subgroup              C2v   NOp =  4
 Nuclear Repulsion Energy =          34.38697142 hartrees
 There are        9 alpha and        9 beta electrons
 Requested basis set is non-standard
 There are 33 shells and 67 basis functions
 Total memory of 95000 MB is distributed as follows: 
   MEM_STATIC is set to 192 MB
   QALLOC/CCMAN JOB total memory use is  94808 MB
 Warning: actual memory use might exceed 95000 MB

 Total QAlloc Memory Limit  95000 MB
 Mega-Array Size       188 MB
 MEM_STATIC part       192 MB

                       Distance Matrix (Angstroms)
             C (  1)   C (  2)   H (  3)   H (  4)   H (  5)   H (  6)
   C (  2)  1.329000
   H (  3)  1.082000  2.061931
   H (  4)  2.061931  1.082000  2.318160
   H (  5)  1.082000  2.061931  1.924698  3.013026
   H (  6)  2.061931  1.082000  3.013026  1.924698  2.318160
   H (  7) 11.329000 10.000000 11.862679  9.554011 11.862679  9.554011

 
 A cutoff of  1.0D-14 yielded    493 shell pairs
 There are      2095 function pairs (      2232 Cartesian)
 Smallest overlap matrix eigenvalue = 2.28E-04

 Scale SEOQF with 1.000000e-01/1.000000e-01/1.000000e-02

 Standard Electronic Orientation quadrupole field applied
 Nucleus-field energy     =    -0.0000000011 hartrees
 ================ Generating on-the-fly SAD Guess ================
Attempting to make child job directory: /src/jdavis/qchem.scratch/qchem6959//Frg1/
Attempting to make child job directory: /src/jdavis/qchem.scratch/qchem6959//Frg2/
Creating input file /src/jdavis/qchem.scratch/qchem6959/Frg1.input
using default PutDataFrgm: nothing
calling putenv with: QCSCRATCH=/src/jdavis/qchem.scratch/qchem6959/ 
Spawning Job For Fragment 0
Done Job For Fragment 0
calling putenv with: QCSCRATCH=/src/jdavis/qchem.scratch 
calling putenv with: QCTHREADS=1 
Creating input file /src/jdavis/qchem.scratch/qchem6959/Frg2.input
using default PutDataFrgm: nothing
calling putenv with: QCSCRATCH=/src/jdavis/qchem.scratch/qchem6959/ 
Spawning Job For Fragment 1
Done Job For Fragment 1
calling putenv with: QCSCRATCH=/src/jdavis/qchem.scratch 
calling putenv with: QCTHREADS=1 
 Time for running child jobs:  CPU 1.81 s  wall 54.43 s
 ============= Method Specific SAD Guess Constructed =============
 Guess from on-the-fly superposition of atomic densities
 Warning: Energy on first SCF cycle will be non-variational
 A restricted Hartree-Fock SCF calculation will be
 performed using Pulay DIIS extrapolation
 SCF converges when DIIS error is below 1.0E-08
 using 10 threads for integral computing
 -------------------------------------------------------
 OpenMP Integral computing Module                
 Release: version 1.0, May 2013, Q-Chem Inc. Pittsburgh 
 -------------------------------------------------------
 ---------------------------------------
  Cycle       Energy         DIIS Error
 ---------------------------------------
    1     -78.8015117772      7.36E-02
    2     -78.4467814848      6.48E-03
    3     -78.4847184236      1.49E-03
    4     -78.4866560316      4.80E-04
    5     -78.4868319985      7.71E-05
    6     -78.4868402912      1.81E-05
    7     -78.4868407573      8.83E-06
    8     -78.4868408527      1.72E-06
    9     -78.4868408593      5.59E-07
   10     -78.4868408599      1.15E-07
   11     -78.4868408599      1.19E-08
   12     -78.4868408599      1.51E-09 Convergence criterion met
 ---------------------------------------
 SCF time:  CPU 11.22 s  wall 1.13 s
 SCF   energy in the final basis set = -78.48684086
 Total energy in the final basis set = -78.48684086
================================================================================
|                                                                              |
|                                 A D C  M A N                                 |
|                                                                              |
 ------------------------------------------------------------------------------ 
|                                                                              |
| Components:                                                                  |
|                                                                              |
| - libvmm - 1.3-trunk                                                         |
|   Authors:                                                                   |
|   Evgeny Epifanovsky, Ilya Kaliman                                           |
|                                                                              |
| - libtensor - 2.5-trunk                                                      |
|   Authors:                                                                   |
|   Evgeny Epifanovsky, Michael Wormit, Dmitry Zuev, Sam Manzer,               |
|   Ilya Kaliman                                                               |
|                                                                              |
| - libwfa - 1.1-trunk                                                         |
|   Authors:                                                                   |
|   Felix Plasser, Stefanie Mewes (Baeppler), Benjamin Thomitzni,              |
|   Michael Wormit, Feng Chen, Anna I. Krylov, Pavel Pokhilko                  |
|                                                                              |
| - libadc - 1.1-trunk                                                         |
|   Authors:                                                                   |
|   Michael Wormit, Adrian L. Dempwolff, Philipp H. P. Harbach,                |
|   Caroline Krauter, Dirk Rehn, Matthias Schneider, Jan Wenzel                |
|                                                                              |
| - adcman - 2.6-trunk                                                         |
|   Authors:                                                                   |
|   Michael Wormit, Adrian L. Dempwolff, Philipp H. P. Harbach,                |
|   Caroline Krauter, Daniel Lefrancois, Jan-Michael Mewes, Dirk Rehn,         |
|   Matthias Schneider, Jan Wenzel, Andreas Dreuw                              |
|                                                                              |
| Authors of earlier versions of ADCMAN:                                       |
| Andreas Dreuw, Jan Hendrik Starcke, Dirk Rehn, Michael Wormit                |
|                                                                              |
================================================================================

 
 Alpha MOs, Restricted
 -- Occupied --                  
-11.187 -11.185  -0.992  -0.732  -0.610  -0.517  -0.465  -0.327
  1 A1    2 A1    3 A1    4 A1    1 B1    5 A1    2 B1    1 B2                 
  0.022
  6 A1                                                                         
 -- Virtual --                   
  0.119   0.132   0.141   0.149   0.153   0.169   0.190   0.237
  7 A1    3 B1    2 B2    8 A1    3 B2    4 B1    9 A1    4 B2                 
  0.267   0.312   0.368   0.372   0.404   0.404   0.414   0.419
 10 A1   11 A1    5 B1   12 A1    6 B1   13 A1    5 B2   14 A1                 
  0.426   0.499   0.599   0.668   0.885   0.900   0.984   1.014
  7 B1    6 B2    8 B1   15 A1   16 A1    9 B1   17 A1   18 A1                 
  1.058   1.073   1.111   1.112   1.164   1.181   1.191   1.227
 19 A1   10 B1   11 B1   20 A1    1 A2    7 B2   21 A1    8 B2                 
  1.334   1.341   1.343   1.508   1.673   1.741   1.783   1.926
  2 A2    9 B2   22 A1   12 B1   23 A1   13 B1   14 B1   10 B2                 
  1.967   1.967   1.967   1.994   2.013   2.067   2.125   2.148
 24 A1   15 B1   11 B2   12 B2   25 A1    3 A2   26 A1   16 B1                 
  2.232   2.382   2.462   2.524   2.618   2.630   2.893   2.896
 13 B2   27 A1    4 A2   28 A1   17 B1   29 A1   18 B1   30 A1                 
  3.318   3.393
 31 A1   19 B1                                                                 
 
 Beta MOs, Restricted
 -- Occupied --                  
-11.187 -11.185  -0.992  -0.732  -0.610  -0.517  -0.465  -0.327
  1 A1    2 A1    3 A1    4 A1    1 B1    5 A1    2 B1    1 B2                 
  0.022
  6 A1                                                                         
 -- Virtual --                   
  0.119   0.132   0.141   0.149   0.153   0.169   0.190   0.237
  7 A1    3 B1    2 B2    8 A1    3 B2    4 B1    9 A1    4 B2                 
  0.267   0.312   0.368   0.372   0.404   0.404   0.414   0.419
 10 A1   11 A1    5 B1   12 A1    6 B1   13 A1    5 B2   14 A1                 
  0.426   0.499   0.599   0.668   0.885   0.900   0.984   1.014
  7 B1    6 B2    8 B1   15 A1   16 A1    9 B1   17 A1   18 A1                 
  1.058   1.073   1.111   1.112   1.164   1.181   1.191   1.227
 19 A1   10 B1   11 B1   20 A1    1 A2    7 B2   21 A1    8 B2                 
  1.334   1.341   1.343   1.508   1.673   1.741   1.783   1.926
  2 A2    9 B2   22 A1   12 B1   23 A1   13 B1   14 B1   10 B2                 
  1.967   1.967   1.967   1.994   2.013   2.067   2.125   2.148
 24 A1   15 B1   11 B2   12 B2   25 A1    3 A2   26 A1   16 B1                 
  2.232   2.382   2.462   2.524   2.618   2.630   2.893   2.896
 13 B2   27 A1    4 A2   28 A1   17 B1   29 A1   18 B1   30 A1                 
  3.318   3.393
 31 A1   19 B1                                                                 

--------------------------------------------------------------------------------
                                   HF Summary                                   
--------------------------------------------------------------------------------
  Energy:                                                  -78.4868408599 a.u.
  Dip. moment [a.u.]:                  [   0.000000,   -0.000000,   18.881154]
  Total dipole [Debye]:                                              47.991116
  <r^2> [a.u.]:                        [  25.062880,   14.950366,  792.851223]
  Total <r^2> [a.u.]:                                               832.864468
--------------------------------------------------------------------------------

--------------------------------------------------------------------------------
                                 MP(2) Summary                                  
--------------------------------------------------------------------------------
  MP energy contribution:                                   -0.2993367622 a.u.
  Total energy:                                            -78.7861776221 a.u.
  Dip. moment [a.u.]:                  [  -0.000000,   -0.000000,   18.886938]
  Total dipole [Debye]:                                              48.005818
  <r^2> [a.u.]:                        [  25.050308,   14.757954,  792.900800]
  Total <r^2> [a.u.]:                                               832.709062

  Density matrix analysis:
  ------------------------
  NOs
    Occupation of frontier NOs:
       0.0447   1.9370
    Number of electrons: 18.000000
    Number of unpaired electrons: n_u =  0.43237, n_u,nl =  0.04679
    NO participation ratio (PR_NO): 15.335289
  
  
  Mulliken Population Analysis
  Atom      Charge (e)              h+              e-           Del q
  --------------------------------------------------------------------
   1 C       -0.223785        0.090082       -0.101557       -0.011475
   2 C       -0.220370        0.084676       -0.103619       -0.018943
   3 H        0.104400        0.018224       -0.010586        0.007639
   4 H        0.117673        0.017982       -0.010413        0.007570
   5 H        0.104400        0.018224       -0.010586        0.007639
   6 H        0.117673        0.017982       -0.010413        0.007570
   7 H       -0.999990        0.021954       -0.021953        0.000001
  --------------------------------------------------------------------
  Sum:       -1.000000        0.269125       -0.269125       -0.000000
  
  Multipole moment analysis of the density matrix
    Molecular charge:                      -1.000000
    Number of electrons:                   18.000000
      Center of electronic charge [Ang]: [  0.000000,   0.000000,  -0.555252]
    Total nuclear charge:                  17.000000
      Center of nuclear charge [Ang]:    [ -0.000000,   0.000000,  -0.000000]
    Dipole moment [D]:                     48.005803
      Cartesian components [D]:          [ -0.000000,  -0.000000,  48.005803]
    RMS size of the density [Ang]:         3.556159
      Cartesian components [Ang]:        [  0.624268,   0.479157,   3.467991]
  
  Exciton analysis of the difference density matrix
    <r_h> [Ang]:                  [ -0.000000,   0.000000,  -0.230368]
    <r_e> [Ang]:                  [  0.000000,   0.000000,  -0.241741]
    |<r_e - r_h>| [Ang]:            0.011373
    Hole size [Ang]:                3.248585
      Cartesian components [Ang]: [  0.732575,   0.753977,   3.073786]
    Electron size [Ang]:            3.222768
      Cartesian components [Ang]: [  0.723592,   0.606857,   3.081294]
--------------------------------------------------------------------------------
  Starting Davidson for singlet states of irrep B2 ... 
--------------------------------------------------------------------------------
   It NVec Conv  Avg. Norm  Max. Norm  Conv. states           Remark
--------------------------------------------------------------------------------
       100    0  1.035e-01  4.622e-01  0.0926 n n n n n n n n Guess.
    1  110    0  5.426e-03  3.036e-02  0.0574 n n n n n n n n 
    2  120    0  1.015e-02  1.015e-01  0.0572 n n n n n n n n 
    3  130    4  2.434e-02  2.299e-01  0.0572 y y y n n y n n 
    4  140    6  2.831e-02  2.021e-01  0.0572 y y y y y y n n 
    5  150    8  3.121e-02  2.476e-01  0.0572 y y y y y n n y 
    6  160    8  2.770e-02  1.984e-01  0.0572 y y y n y y n y 
    7  170    7  4.111e-02  3.039e-01  0.0572 y y y n y y n y 
    8  180    7  3.606e-02  2.983e-01  0.0572 y y y n y y n n 
    9  190    5  3.714e-02  3.101e-01  0.0572 y y n n y n y n 
   10  200    2  3.790e-02  3.203e-01  0.0572 n n n n y n n y 
   11   20    3  5.003e-02  3.255e-01  0.0572 n y n n y n n y Subspace collapsed.
   12   30    5  3.811e-02  3.235e-01  0.0572 y y y n y n n n 
   13   40    5  3.753e-02  3.202e-01  0.0572 y y y n n y n n 
   14   50    6  3.729e-02  3.188e-01  0.0572 y y y n n y n n 
   15   60    6  3.714e-02  3.187e-01  0.0572 y y y n n y n n 
   16   70    6  3.682e-02  3.160e-01  0.0572 y y y n n y n n 
   17   80    6  3.672e-02  3.158e-01  0.0572 y y y n n y n n 
   18   90    6  3.637e-02  3.122e-01  0.0572 y y y n n y n n 
   19  100    6  3.624e-02  3.114e-01  0.0572 y y y n n y n n 
   20  110    6  3.588e-02  3.083e-01  0.0572 y y y n n y n n 
   21  120    6  3.565e-02  3.071e-01  0.0572 y y y n n y n n 
   22  130    6  3.515e-02  3.024e-01  0.0572 y y y n n y n n 
   23  140    6  3.490e-02  3.006e-01  0.0572 y y y n n y n n 
   24  150    5  3.434e-02  2.949e-01  0.0572 y y y n n y n n 
   25  160    4  3.446e-02  2.956e-01  0.0572 y y n n n y n n 
   26  170    0  3.968e-02  3.241e-01  0.0572 n n n n n n n n 
   27  180    0  6.143e-02  5.395e-01  0.0572 n n n n n n n n 
   28  190    0  6.074e-02  5.320e-01  0.0572 n n n n n n n n 
   29  200    0  6.718e-02  5.291e-01  0.0434 n n n n n n n n 
   30   20    4  3.331e-02  2.920e-01  0.0572 y y n n n y n n Subspace collapsed.
   31   30    5  3.245e-02  2.837e-01  0.0572 y y y n n y n n 
   32   40    5  5.010e-02  3.938e-01  0.0572 y y y n n y n n 
   33   50    5  4.975e-02  3.935e-01  0.0572 y y y n n y n n 
   34   60    6  4.881e-02  3.847e-01  0.0572 y y y n n y y n 
   35   70    6  4.819e-02  3.797e-01  0.0572 y y y n n y y n 
   36   80    6  4.697e-02  3.702e-01  0.0572 y y y n n y y n 
   37   90    6  4.630e-02  3.683e-01  0.0572 y y y n n y y n 
   38  100    6  4.556e-02  3.631e-01  0.0572 y y y n n y y n 
   39  110    6  4.460e-02  3.557e-01  0.0572 y y y n n y y n 
   40  120    6  4.404e-02  3.525e-01  0.0572 y y y n n y y n 
   41  130    3  4.299e-02  3.435e-01  0.0572 y y y n n n n n 
   42  140    1  4.139e-02  3.285e-01  0.0572 n y n n n n n n 
   43  150    0  4.134e-02  3.196e-01  0.0572 n n n n n n n n 
   44  160    0  4.058e-02  3.138e-01  0.0572 n n n n n n n n 
   45  170    0  4.323e-02  2.863e-01  0.0572 n n n n n n n n 
   46  180    0  7.114e-02  4.917e-01  0.0398 n n n n n n n n 
   47  190    0  7.429e-02  4.446e-01  0.0342 n n n n n n n n 
   48  200    0  6.451e-02  4.496e-01  0.0075 n n n n n n n n 
   49   20    0  4.248e-02  3.067e-01  0.0572 n n n n n n n n Subspace collapsed.
   50   30    1  3.943e-02  2.888e-01  0.0572 n y n n n n n n 
   51   40    1  3.865e-02  2.812e-01  0.0572 n y n n n n n n 
   52   50    1  3.835e-02  2.796e-01  0.0572 n y n n n n n n 
   53   60    1  3.826e-02  2.793e-01  0.0572 n y n n n n n n 
   54   70    1  3.774e-02  2.750e-01  0.0572 n y n n n n n n 
   55   80    1  3.758e-02  2.750e-01  0.0572 n y n n n n n n 
   56   90    2  3.716e-02  2.730e-01  0.0572 n y n n n y n n 
   57  100    4  3.685e-02  2.709e-01  0.0572 y y y n n y n n 
   58  110    4  3.648e-02  2.669e-01  0.0572 y y y n n y n n 
   59  120    5  3.628e-02  2.663e-01  0.0572 y y y n n y n y 
   60  130    5  3.591e-02  2.653e-01  0.0572 y y y n n y n y 
   61  140    5  3.582e-02  2.650e-01  0.0572 y y y n n y n y 
   62  150    5  3.595e-02  2.677e-01  0.0572 y y y n n y n y 
   63  160    4  3.603e-02  2.687e-01  0.0572 y y y n n n n y 
   64  170    3  3.596e-02  2.696e-01  0.0572 y y y n n n n n 
   65  180    0  3.589e-02  2.701e-01  0.0572 n n n n n n n n 
   66  190    0  7.503e-02  6.754e-01  0.0572 n n n n n n n n 
   67  200    0  3.921e-02  2.656e-01  0.0050 n n n n n n n n 
   68   20    0  3.507e-02  2.416e-01  0.0572 n n n n n n n n Subspace collapsed.
   69   30    0  3.516e-02  2.684e-01  0.0572 n n n n n n n n 
   70   40    0  3.508e-02  2.666e-01  0.0572 n n n n n n n n 
   71   50    0  3.505e-02  2.676e-01  0.0572 n n n n n n n n 
   72   60    2  3.491e-02  2.657e-01  0.0572 n y y n n n n n 
   73   70    2  3.488e-02  2.660e-01  0.0572 n y y n n n n n 
   74   80    3  3.457e-02  2.622e-01  0.0572 n y y n n n y n 
   75   90    4  3.456e-02  2.614e-01  0.0572 y y y n n n y n 
   76  100    4  3.427e-02  2.576e-01  0.0572 y y y n n n y n 
   77  110    4  3.411e-02  2.565e-01  0.0572 y y y n n n y n 
   78  120    5  3.400e-02  2.553e-01  0.0572 y y y n n n y y 
   79  130    5  3.376e-02  2.537e-01  0.0572 y y y n n n y y 
   80  140    6  3.381e-02  2.538e-01  0.0572 y y y n y n y y 
   81  150    6  3.360e-02  2.530e-01  0.0572 y y y n y n y y 
   82  160    4  3.351e-02  2.523e-01  0.0572 y y y n n n n y 
   83  170    1  3.362e-02  2.533e-01  0.0572 n y n n n n n n 
   84  180    0  3.549e-02  2.420e-01  0.0572 n n n n n n n n 
   85  190    0  3.952e-02  2.500e-01  0.0087 n n n n n n n n 
   86  200    0  7.805e-02  5.285e-01  0.0017 n n n n n n n n 
   87   20    0  3.121e-02  2.258e-01  0.0572 n n n n n n n n Subspace collapsed.
   88   30    0  3.092e-02  2.251e-01  0.0572 n n n n n n n n 
   89   40    0  3.055e-02  2.243e-01  0.0572 n n n n n n n n 
   90   50    1  3.027e-02  2.234e-01  0.0572 n n y n n n n n 
   91   60    2  2.986e-02  2.220e-01  0.0572 n y y n n n n n 
   92   70    3  2.969e-02  2.213e-01  0.0572 n y y n n n y n 
   93   80    4  2.940e-02  2.208e-01  0.0572 n y y n y n y n 
   94   90    4  2.937e-02  2.216e-01  0.0572 n y y n y n y n 
   95  100    5  2.930e-02  2.254e-01  0.0572 y y y n y n y n 
   96  110    7  2.926e-02  2.247e-01  0.0572 y y y n y n y y 
   97  120    7  2.879e-02  2.252e-01  0.0572 y y y n y n y y 
   98  130    7  2.863e-02  2.265e-01  0.0572 y y y n y n y y 
   99  140    7  2.823e-02  2.264e-01  0.0572 y y y n y n y y 
  100  150    7  2.788e-02  2.276e-01  0.0572 y y y n y n y y 
  101  160    3  2.752e-02  2.273e-01  0.0572 y y y n n n n n 
  102  170    2  2.674e-02  2.253e-01  0.0572 y y n n n n n n 
  103  180    0  1.990e-02  1.757e-01  0.0572 n n n n n n n n 
  104  190    0  8.113e-02  7.474e-01  0.0572 n n n n n n n n 
  105  200    0  3.683e-02  3.349e-01  0.0165 n n n n n n n n 
  106   20    0  1.443e-02  1.292e-01  0.0572 n n n n n n n n Subspace collapsed.
  107   30    1  1.429e-02  1.280e-01  0.0572 y n n n n n n n 
  108   40    2  1.416e-02  1.282e-01  0.0572 y y n n n n n n 
  109   50    2  1.406e-02  1.277e-01  0.0572 y y n n n n n n 
  110   60    4  1.379e-02  1.256e-01  0.0572 y y n n n n n y 
  111   70    6  1.374e-02  1.256e-01  0.0572 y y n n n y y y 
  112   80    6  1.346e-02  1.235e-01  0.0572 y y n n n y y y 
  113   90    6  1.334e-02  1.223e-01  0.0572 y y n n n y y y 
  114  100    7  1.317e-02  1.213e-01  0.0572 y y y n n y y y 
  115  110    7  1.279e-02  1.173e-01  0.0572 y y y n n y y y 
  116  120    7  1.233e-02  1.125e-01  0.0572 y y y n n y y y 
  117  130    7  1.170e-02  1.060e-01  0.0572 y y y n n y y y 
  118  140    7  1.156e-02  1.041e-01  0.0572 y y y n n y y y 
  119  150    7  1.084e-02  9.661e-02  0.0572 y y y n n y y y 
--------------------------------------------------------------------------------
  Davidson Summary: 
 ------------------------------------------------------------
  State  0: excitation energy =   0.0572 a.u.   (converged)
  State  1: excitation energy =   0.0681 a.u.   (converged)
  State  2: excitation energy =   0.1292 a.u.   (converged)
  State  3: excitation energy =   0.2173 a.u.   (not converged)
  State  4: excitation energy =   0.2305 a.u.   (not converged)
  State  5: excitation energy =   0.2470 a.u.   (converged)
  State  6: excitation energy =   0.2587 a.u.   (converged)
  State  7: excitation energy =   0.2839 a.u.   (converged)
  State  8: excitation energy =   0.2874 a.u.   (converged)
  State  9: excitation energy =   0.2992 a.u.   (not converged)
 ------------------------------------------------------------


--------------------------------------------------------------------------------
                   State-averaged natural transition orbitals
--------------------------------------------------------------------------------
--------------------------------------------------------------------------------

--------------------------------------------------------------------------------
                             Excited State Summary
--------------------------------------------------------------------------------
--------------------------------------------------------------------------------

  Excited state 1 (singlet, B2)                                    [converged]
  ----------------------------------------------------------------------------
  Term symbol:  1 (1) B2                                    R^2 =  2.26341e-08

  Total energy:                                            -78.7289859314 a.u.
  Excitation energy:                                               1.556265 eV

  Osc. strength:                                                      0.000000
  Trans. dip. moment [a.u.]:           [   0.000000,    0.002523,   -0.000000]
  <i|r^2|0> [a.u.]:                    [   0.000000,    0.000000,   -0.000000]

  Dip. moment [a.u.]:                  [  -0.000000,   -0.000000,   -1.219920]
  Total dipole [Debye]:                                               3.100728
  <r^2> [a.u.]:                        [  28.208002,   25.351397,  446.429510]
  Total <r^2> [a.u.]:                                               499.988910

  V1^2 = 0.9581, V2^2 = 0.0419

  Important amplitudes:
      occ i      occ j       vir a       vir b          v   
    ---------------------------------------------------------
     6 (A1) A               3 (B2) A                 -0.5459
     6 (A1) A               2 (B2) A                  0.3820
    ---------------------------------------------------------

  Density matrix analysis:
  ------------------------
  NOs
    Occupation of frontier NOs:
       0.9910   1.0013
    Number of electrons: 18.000000
    Number of unpaired electrons: n_u =  2.41268, n_u,nl =  2.04409
    NO participation ratio (PR_NO):  2.923930
  
  
  Mulliken Population Analysis
  Atom      Charge (e)              h+              e-           Del q
  --------------------------------------------------------------------
   1 C       -0.642560        0.118405       -0.537180       -0.418775
   2 C       -0.647575        0.117599       -0.544804       -0.427205
   3 H        0.069443        0.004551       -0.039507       -0.034957
   4 H        0.075619        0.004391       -0.046445       -0.042054
   5 H        0.069443        0.004551       -0.039507       -0.034957
   6 H        0.075619        0.004391       -0.046445       -0.042054
   7 H        0.000011        1.019089       -0.019088        1.000001
  --------------------------------------------------------------------
  Sum:       -1.000000        1.272976       -1.272976        0.000000
  
  Multipole moment analysis of the density matrix
    Molecular charge:                      -1.000000
    Number of electrons:                   18.000000
      Center of electronic charge [Ang]: [  0.000000,   0.000000,   0.035864]
    Total nuclear charge:                  17.000000
      Center of nuclear charge [Ang]:    [ -0.000000,   0.000000,  -0.000000]
    Dipole moment [D]:                     3.100728
      Cartesian components [D]:          [ -0.000000,  -0.000000,  -3.100728]
    RMS size of the density [Ang]:         2.788747
      Cartesian components [Ang]:        [  0.662447,   0.628009,   2.635124]
  
  Exciton analysis of the difference density matrix
    <r_h> [Ang]:                  [  0.000000,   0.000000,  -7.912617]
    <r_e> [Ang]:                  [  0.000000,   0.000000,   0.445822]
    |<r_e - r_h>| [Ang]:            8.358439
    Hole size [Ang]:                4.441336
      Cartesian components [Ang]: [  0.710146,   0.709894,   4.326339]
    Electron size [Ang]:            2.990756
      Cartesian components [Ang]: [  1.094959,   1.683535,   2.216167]

  Transition density matrix analysis:
  -----------------------------------
  
  CT numbers (Mulliken)
    omega =     0.9430
    <Phe> =     0.0000
  
  Exciton analysis of the transition density matrix
    Trans. dipole moment [D]:             0.003207
      Cartesian components [D]:         [  0.000000,   0.003207,  -0.000000]
    <r_h> [Ang]:                        [  0.000000,  -0.000000, -10.037115]
    <r_e> [Ang]:                        [  0.000000,   0.000000,   0.621200]
    |<r_e - r_h>| [Ang]:                 10.658315
    Hole size [Ang]:                      1.110044
      Cartesian components [Ang]:       [  0.640807,   0.640807,   0.641039]
    Electron size [Ang]:                  2.853631
      Cartesian components [Ang]:       [  1.064030,   1.832264,   1.911506]
    RMS electron-hole separation [Ang]:  11.089417
      Cartesian components [Ang]:       [  1.242092,   1.941083,  10.847330]
    Covariance(r_h, r_e) [Ang^2]:        -0.000035
    Correlation coefficient:             -0.000011
    Center-of-mass size [Ang]:            1.530959
      Cartesian components [Ang]:       [  0.621047,   0.970547,   1.008054]

  Decomposition into state-averaged NTOs
    H- 0 -> L+ 0:  0.4807 ( 46.2%)
    H- 0 -> L+ 3:  0.4778 ( 45.7%)
    H- 0 -> L+ 1: -0.1104 (  2.4%)
                   omega =  94.3%
  ----------------------------------------------------------------------------


  Excited state 2 (singlet, B2)                                    [converged]
  ----------------------------------------------------------------------------
  Term symbol:  2 (1) B2                                    R^2 =  4.91493e-08

  Total energy:                                            -78.7180679769 a.u.
  Excitation energy:                                               1.853358 eV

  Osc. strength:                                                      0.000000
  Trans. dip. moment [a.u.]:           [   0.000000,    0.000916,    0.000000]
  <i|r^2|0> [a.u.]:                    [   0.000000,    0.000000,   -0.000000]

  Dip. moment [a.u.]:                  [  -0.000000,    0.000000,   -1.194894]
  Total dipole [Debye]:                                               3.037117
  <r^2> [a.u.]:                        [  32.972878,   41.479906,  443.023846]
  Total <r^2> [a.u.]:                                               517.476630

  V1^2 = 0.9782, V2^2 = 0.0218

  Important amplitudes:
      occ i      occ j       vir a       vir b          v   
    ---------------------------------------------------------
     6 (A1) A               2 (B2) A                 -0.5672
     6 (A1) A               3 (B2) A                 -0.4074
    ---------------------------------------------------------

  Density matrix analysis:
  ------------------------
  NOs
    Occupation of frontier NOs:
       0.9952   1.0019
    Number of electrons: 18.000000
    Number of unpaired electrons: n_u =  2.41315, n_u,nl =  2.04861
    NO participation ratio (PR_NO):  2.912709
  
  
  Mulliken Population Analysis
  Atom      Charge (e)              h+              e-           Del q
  --------------------------------------------------------------------
   1 C       -0.674517        0.036421       -0.487152       -0.450732
   2 C       -0.688750        0.034706       -0.503086       -0.468380
   3 H        0.088027       -0.001545       -0.014828       -0.016373
   4 H        0.093600       -0.001674       -0.022398       -0.024073
   5 H        0.088027       -0.001545       -0.014828       -0.016373
   6 H        0.093600       -0.001674       -0.022398       -0.024073
   7 H        0.000013        1.020787       -0.020784        1.000003
  --------------------------------------------------------------------
  Sum:       -1.000000        1.085476       -1.085476        0.000000
  
  Multipole moment analysis of the density matrix
    Molecular charge:                      -1.000000
    Number of electrons:                   18.000000
      Center of electronic charge [Ang]: [  0.000000,  -0.000000,   0.035128]
    Total nuclear charge:                  17.000000
      Center of nuclear charge [Ang]:    [ -0.000000,   0.000000,  -0.000000]
    Dipole moment [D]:                     3.037116
      Cartesian components [D]:          [ -0.000000,   0.000000,  -3.037116]
    RMS size of the density [Ang]:         2.837115
      Cartesian components [Ang]:        [  0.716215,   0.803311,   2.625062]
  
  Exciton analysis of the difference density matrix
    <r_h> [Ang]:                  [ -0.000000,   0.000000,  -9.402394]
    <r_e> [Ang]:                  [  0.000000,  -0.000000,   0.387641]
    |<r_e - r_h>| [Ang]:            9.790036
    Hole size [Ang]:                2.805127
      Cartesian components [Ang]: [  0.704488,   0.701074,   2.623152]
    Electron size [Ang]:            3.847151
      Cartesian components [Ang]: [  1.593785,   2.717567,   2.207996]

  Transition density matrix analysis:
  -----------------------------------
  
  CT numbers (Mulliken)
    omega =     0.9716
    <Phe> =     0.0001
  
  Exciton analysis of the transition density matrix
    Trans. dipole moment [D]:             0.001165
      Cartesian components [D]:         [  0.000000,   0.001165,   0.000000]
    <r_h> [Ang]:                        [  0.000000,  -0.000000, -10.036560]
    <r_e> [Ang]:                        [ -0.000000,  -0.000000,   0.617655]
    |<r_e - r_h>| [Ang]:                 10.654215
    Hole size [Ang]:                      1.112863
      Cartesian components [Ang]:       [  0.640880,   0.640900,   0.645744]
    Electron size [Ang]:                  3.672959
      Cartesian components [Ang]:       [  1.632390,   2.827543,   1.682538]
    RMS electron-hole separation [Ang]:  11.324896
      Cartesian components [Ang]:       [  1.753689,   2.899264,  10.806115]
    Covariance(r_h, r_e) [Ang^2]:        -0.005938
    Correlation coefficient:             -0.001453
    Center-of-mass size [Ang]:            1.918151
      Cartesian components [Ang]:       [  0.876844,   1.449635,   0.899447]

  Decomposition into state-averaged NTOs
    H- 0 -> L+ 1:  0.6791 ( 92.2%)
    H- 0 -> L+ 0:  0.1569 (  4.9%)
                   omega =  97.2%
  ----------------------------------------------------------------------------


  Excited state 3 (singlet, B2)                                    [converged]
  ----------------------------------------------------------------------------
  Term symbol:  3 (1) B2                                    R^2 =  3.06714e-07

  Total energy:                                            -78.6569896750 a.u.
  Excitation energy:                                               3.515383 eV

  Osc. strength:                                                      0.000001
  Trans. dip. moment [a.u.]:           [   0.000000,    0.004147,   -0.000000]
  <i|r^2|0> [a.u.]:                    [  -0.000000,    0.000000,   -0.000000]

  Dip. moment [a.u.]:                  [  -0.000000,    0.000000,   -1.221524]
  Total dipole [Debye]:                                               3.104806
  <r^2> [a.u.]:                        [  30.036777,   30.966415,  451.868464]
  Total <r^2> [a.u.]:                                               512.871656

  V1^2 = 0.9566, V2^2 = 0.0434

  Important amplitudes:
      occ i      occ j       vir a       vir b          v   
    ---------------------------------------------------------
     6 (A1) A               4 (B2) A                 -0.6570
     6 (A1) A               3 (B2) A                 -0.1488
    ---------------------------------------------------------

  Density matrix analysis:
  ------------------------
  NOs
    Occupation of frontier NOs:
       0.9868   1.0013
    Number of electrons: 18.000000
    Number of unpaired electrons: n_u =  2.42655, n_u,nl =  2.04880
    NO participation ratio (PR_NO):  2.967778
  
  
  Mulliken Population Analysis
  Atom      Charge (e)              h+              e-           Del q
  --------------------------------------------------------------------
   1 C       -0.633685        0.103559       -0.513458       -0.409900
   2 C       -0.633153        0.110285       -0.523069       -0.412783
   3 H        0.063561        0.002177       -0.043016       -0.040839
   4 H        0.069853        0.001919       -0.049739       -0.047820
   5 H        0.063561        0.002177       -0.043016       -0.040839
   6 H        0.069853        0.001919       -0.049739       -0.047820
   7 H        0.000012        1.018921       -0.018920        1.000002
  --------------------------------------------------------------------
  Sum:       -1.000000        1.240958       -1.240958        0.000000
  
  Multipole moment analysis of the density matrix
    Molecular charge:                      -1.000000
    Number of electrons:                   18.000000
      Center of electronic charge [Ang]: [  0.000000,  -0.000000,   0.035911]
    Total nuclear charge:                  17.000000
      Center of nuclear charge [Ang]:    [ -0.000000,   0.000000,  -0.000000]
    Dipole moment [D]:                     3.104805
      Cartesian components [D]:          [ -0.000000,   0.000000,  -3.104805]
    RMS size of the density [Ang]:         2.824452
      Cartesian components [Ang]:        [  0.683583,   0.694081,   2.651130]
  
  Exciton analysis of the difference density matrix
    <r_h> [Ang]:                  [  0.000000,   0.000000,  -8.134986]
    <r_e> [Ang]:                  [  0.000000,  -0.000000,   0.439793]
    |<r_e - r_h>| [Ang]:            8.574780
    Hole size [Ang]:                4.253677
      Cartesian components [Ang]: [  0.692274,   0.673235,   4.142618]
    Electron size [Ang]:            3.450420
      Cartesian components [Ang]: [  1.266675,   2.027503,   2.488004]

  Transition density matrix analysis:
  -----------------------------------
  
  CT numbers (Mulliken)
    omega =     0.9433
    <Phe> =     0.0000
  
  Exciton analysis of the transition density matrix
    Trans. dipole moment [D]:             0.005271
      Cartesian components [D]:         [  0.000000,   0.005271,  -0.000000]
    <r_h> [Ang]:                        [  0.000000,  -0.000000, -10.037115]
    <r_e> [Ang]:                        [  0.000000,  -0.000000,   0.627601]
    |<r_e - r_h>| [Ang]:                 10.664716
    Hole size [Ang]:                      1.110030
      Cartesian components [Ang]:       [  0.640798,   0.640798,   0.641032]
    Electron size [Ang]:                  3.462886
      Cartesian components [Ang]:       [  1.300225,   2.245153,   2.293530]
    RMS electron-hole separation [Ang]:  11.267651
      Cartesian components [Ang]:       [  1.449554,   2.334806,  10.927370]
    Covariance(r_h, r_e) [Ang^2]:        -0.000017
    Correlation coefficient:             -0.000004
    Center-of-mass size [Ang]:            1.818221
      Cartesian components [Ang]:       [  0.724777,   1.167406,   1.190709]

  Decomposition into state-averaged NTOs
    H- 0 -> L+ 0:  0.4820 ( 46.5%)
    H- 0 -> L+ 3: -0.4765 ( 45.4%)
    H- 0 -> L+ 1: -0.1109 (  2.5%)
                   omega =  94.3%
  ----------------------------------------------------------------------------


  Excited state 4 (singlet, B2)                                [not converged]
  ----------------------------------------------------------------------------
  Term symbol:  4 (1) B2                                    R^2 =  4.86202e-02

  Total energy:                                            -78.5688599784 a.u.
  Excitation energy:                                               5.913514 eV



  V1^2 = 0.0000, V2^2 = 1.0000

  Important amplitudes:
      occ i      occ j       vir a       vir b          v   
    ---------------------------------------------------------
     6 (A1) A   6 (A1) B    7 (A1) A    2 (B2) B     -0.3529
     6 (A1) A   6 (A1) B   10 (A1) A    2 (B2) B     -0.0162
    ---------------------------------------------------------
  ----------------------------------------------------------------------------


  Excited state 5 (singlet, B2)                                [not converged]
  ----------------------------------------------------------------------------
  Term symbol:  5 (1) B2                                    R^2 =  9.66111e-02

  Total energy:                                            -78.5556902890 a.u.
  Excitation energy:                                               6.271879 eV



  V1^2 = 0.0001, V2^2 = 0.9999

  Important amplitudes:
      occ i      occ j       vir a       vir b          v   
    ---------------------------------------------------------
     6 (A1) A   6 (A1) B    7 (A1) A    3 (B2) B      0.3530
     6 (A1) A   6 (A1) B    7 (A1) A    2 (B2) B      0.0088
    ---------------------------------------------------------
  ----------------------------------------------------------------------------


  Excited state 6 (singlet, B2)                                    [converged]
  ----------------------------------------------------------------------------
  Term symbol:  6 (1) B2                                    R^2 =  9.46024e-07

  Total energy:                                            -78.5391969054 a.u.
  Excitation energy:                                               6.720687 eV

  Osc. strength:                                                      0.000000
  Trans. dip. moment [a.u.]:           [   0.000000,   -0.000001,    0.000000]
  <i|r^2|0> [a.u.]:                    [   0.000000,    0.000000,    0.000000]

  Dip. moment [a.u.]:                  [  -0.000000,   -0.000000,  -19.539771]
  Total dipole [Debye]:                                              49.665153
  <r^2> [a.u.]:                        [  38.528499,   46.590222,  115.000479]
  Total <r^2> [a.u.]:                                               200.119200

  V1^2 = 0.0000, V2^2 = 1.0000

  Important amplitudes:
      occ i      occ j       vir a       vir b          v   
    ---------------------------------------------------------
     6 (A1) A   6 (A1) B    8 (A1) A    2 (B2) B     -0.3536
     6 (A1) A               2 (B2) A                 -0.0027
    ---------------------------------------------------------

  Density matrix analysis:
  ------------------------
  NOs
    Occupation of frontier NOs:
       1.0019   1.0041
    Number of electrons: 18.000000
    Number of unpaired electrons: n_u =  2.39730, n_u,nl =  2.04806
    NO participation ratio (PR_NO):  2.872927
  
  
  Mulliken Population Analysis
  Atom      Charge (e)              h+              e-           Del q
  --------------------------------------------------------------------
   1 C       -3.092627       -0.000031       -2.868811       -2.868842
   2 C        0.524505        0.000038        0.744837        0.744875
   3 H        0.137101        0.000000        0.032701        0.032701
   4 H        0.146963       -0.000000        0.029291        0.029290
   5 H        0.137101        0.000000        0.032701        0.032701
   6 H        0.146963       -0.000000        0.029291        0.029290
   7 H        0.999995        1.999985       -0.000000        1.999984
  --------------------------------------------------------------------
  Sum:       -1.000000        1.999992       -1.999992        0.000000
  
  Multipole moment analysis of the density matrix
    Molecular charge:                      -1.000000
    Number of electrons:                   18.000000
      Center of electronic charge [Ang]: [  0.000000,   0.000000,   0.574445]
    Total nuclear charge:                  17.000000
      Center of nuclear charge [Ang]:    [ -0.000000,   0.000000,  -0.000000]
    Dipole moment [D]:                     49.665138
      Cartesian components [D]:          [ -0.000000,  -0.000000, -49.665138]
    RMS size of the density [Ang]:         1.668321
      Cartesian components [Ang]:        [  0.774205,   0.851358,   1.207929]
  
  Exciton analysis of the difference density matrix
    <r_h> [Ang]:                  [  0.000000,  -0.000000, -10.037134]
    <r_e> [Ang]:                  [  0.000000,   0.000000,   0.130177]
    |<r_e - r_h>| [Ang]:           10.167311
    Hole size [Ang]:                1.111373
      Cartesian components [Ang]: [  0.641563,   0.641564,   0.641828]
    Electron size [Ang]:            3.659275
      Cartesian components [Ang]: [  1.516163,   2.206489,   2.494584]

  Transition density matrix analysis:
  -----------------------------------
  
  CT numbers (Mulliken)
    omega =     0.0000
    <Phe> =     0.0000
  
  Exciton analysis of the transition density matrix
    Trans. dipole moment [D]:             0.000002
      Cartesian components [D]:         [  0.000000,  -0.000002,   0.000000]
    <r_h> [Ang]:                        [  0.000000,  -0.000000, -10.037959]
    <r_e> [Ang]:                        [ -0.000000,  -0.000000,   2.073109]
    |<r_e - r_h>| [Ang]:                 12.111068
    Hole size [Ang]:                      1.065229
      Cartesian components [Ang]:       [  0.614920,   0.614921,   0.615189]
    Electron size [Ang]:                  3.359535
      Cartesian components [Ang]:       [  1.534763,   2.657878,   1.366258]
    RMS electron-hole separation [Ang]:  12.613479
      Cartesian components [Ang]:       [  1.653367,   2.728079,  12.203434]
    Covariance(r_h, r_e) [Ang^2]:        -0.000346
    Correlation coefficient:             -0.000097
    Center-of-mass size [Ang]:            1.762136
      Cartesian components [Ang]:       [  0.826684,   1.364045,   0.749065]

  Decomposition into state-averaged NTOs
                   omega =   0.0%
  ----------------------------------------------------------------------------


  Excited state 7 (singlet, B2)                                    [converged]
  ----------------------------------------------------------------------------
  Term symbol:  7 (1) B2                                    R^2 =  1.31706e-06

  Total energy:                                            -78.5274577880 a.u.
  Excitation energy:                                               7.040125 eV

  Osc. strength:                                                      0.000000
  Trans. dip. moment [a.u.]:           [   0.000000,    0.000002,   -0.000000]
  <i|r^2|0> [a.u.]:                    [   0.000000,    0.000000,   -0.000000]

  Dip. moment [a.u.]:                  [  -0.000000,   -0.000000,  -14.405859]
  Total dipole [Debye]:                                              36.616049
  <r^2> [a.u.]:                        [  37.006335,   41.989114,  104.706905]
  Total <r^2> [a.u.]:                                               183.702354

  V1^2 = 0.0000, V2^2 = 1.0000

  Important amplitudes:
      occ i      occ j       vir a       vir b          v   
    ---------------------------------------------------------
     6 (A1) A   6 (A1) B    8 (A1) A    3 (B2) B     -0.3536
     6 (A1) A               3 (B2) A                 -0.0028
    ---------------------------------------------------------

  Density matrix analysis:
  ------------------------
  NOs
    Occupation of frontier NOs:
       1.0019   1.0080
    Number of electrons: 18.000000
    Number of unpaired electrons: n_u =  2.38972, n_u,nl =  2.04673
    NO participation ratio (PR_NO):  2.866170
  
  
  Mulliken Population Analysis
  Atom      Charge (e)              h+              e-           Del q
  --------------------------------------------------------------------
   1 C       -1.537411       -0.000033       -1.313593       -1.313626
   2 C       -1.028033        0.000041       -0.807705       -0.807663
   3 H        0.135968        0.000000        0.031568        0.031568
   4 H        0.146757       -0.000000        0.029085        0.029085
   5 H        0.135968        0.000000        0.031568        0.031568
   6 H        0.146757       -0.000000        0.029085        0.029085
   7 H        0.999993        1.999983       -0.000000        1.999983
  --------------------------------------------------------------------
  Sum:       -1.000000        1.999991       -1.999991       -0.000000
  
  Multipole moment analysis of the density matrix
    Molecular charge:                      -1.000000
    Number of electrons:                   18.000000
      Center of electronic charge [Ang]: [  0.000000,   0.000000,   0.423514]
    Total nuclear charge:                  17.000000
      Center of nuclear charge [Ang]:    [ -0.000000,   0.000000,  -0.000000]
    Dipole moment [D]:                     36.616038
      Cartesian components [D]:          [ -0.000000,  -0.000000, -36.616038]
    RMS size of the density [Ang]:         1.636618
      Cartesian components [Ang]:        [  0.758757,   0.808227,   1.203983]
  
  Exciton analysis of the difference density matrix
    <r_h> [Ang]:                  [  0.000000,  -0.000000, -10.037129]
    <r_e> [Ang]:                  [  0.000000,   0.000000,  -1.228196]
    |<r_e - r_h>| [Ang]:            8.808933
    Hole size [Ang]:                1.111398
      Cartesian components [Ang]: [  0.641563,   0.641564,   0.641871]
    Electron size [Ang]:            3.098404
      Cartesian components [Ang]: [  1.444169,   2.055328,   1.813867]

  Transition density matrix analysis:
  -----------------------------------
  
  CT numbers (Mulliken)
    omega =     0.0000
    <Phe> =     0.0001
  
  Exciton analysis of the transition density matrix
    Trans. dipole moment [D]:             0.000002
      Cartesian components [D]:         [  0.000000,   0.000002,  -0.000000]
    <r_h> [Ang]:                        [  0.000000,  -0.000000, -10.036278]
    <r_e> [Ang]:                        [ -0.000000,  -0.000000,  -0.800157]
    |<r_e - r_h>| [Ang]:                  9.236121
    Hole size [Ang]:                      1.076457
      Cartesian components [Ang]:       [  0.616764,   0.616824,   0.630784]
    Electron size [Ang]:                  3.462560
      Cartesian components [Ang]:       [  1.490288,   2.580230,   1.763740]
    RMS electron-hole separation [Ang]:   9.923927
      Cartesian components [Ang]:       [  1.612872,   2.652956,   9.425751]
    Covariance(r_h, r_e) [Ang^2]:        -0.015149
    Correlation coefficient:             -0.004064
    Center-of-mass size [Ang]:            1.810924
      Cartesian components [Ang]:       [  0.806436,   1.326456,   0.932535]

  Decomposition into state-averaged NTOs
                   omega =   0.0%
  ----------------------------------------------------------------------------


  Excited state 8 (singlet, B2)                                    [converged]
  ----------------------------------------------------------------------------
  Term symbol:  8 (1) B2                                    R^2 =  1.42758e-06

  Total energy:                                            -78.5022348660 a.u.
  Excitation energy:                                               7.726475 eV

  Osc. strength:                                                      0.125207
  Trans. dip. moment [a.u.]:           [   0.000000,    0.813289,   -0.000000]
  <i|r^2|0> [a.u.]:                    [  -0.000000,   -0.000000,    0.000000]

  Dip. moment [a.u.]:                  [   0.000000,   -0.000000,   16.137910]
  Total dipole [Debye]:                                              41.018484
  <r^2> [a.u.]:                        [  31.097379,   19.976770,  813.547371]
  Total <r^2> [a.u.]:                                               864.621520

  V1^2 = 0.9515, V2^2 = 0.0485

  Important amplitudes:
      occ i      occ j       vir a       vir b          v   
    ---------------------------------------------------------
     1 (B2) A               7 (A1) A                 -0.4964
     1 (B2) A               8 (A1) A                  0.3367
    ---------------------------------------------------------

  Density matrix analysis:
  ------------------------
  NOs
    Occupation of frontier NOs:
       0.9829   0.9921
    Number of electrons: 18.000000
    Number of unpaired electrons: n_u =  2.31258, n_u,nl =  2.02465
    NO participation ratio (PR_NO):  2.732878
  
  
  Mulliken Population Analysis
  Atom      Charge (e)              h+              e-           Del q
  --------------------------------------------------------------------
   1 C        0.732781        0.616469        0.340097        0.956566
   2 C       -1.507870        0.436565       -1.724065       -1.287500
   3 H        0.181420        0.090099       -0.013079        0.077020
   4 H        0.206119        0.072349        0.016097        0.088446
   5 H        0.181420        0.090099       -0.013079        0.077020
   6 H        0.206119        0.072349        0.016097        0.088446
   7 H       -0.999989        0.000336       -0.000335        0.000001
  --------------------------------------------------------------------
  Sum:       -1.000000        1.378266       -1.378266       -0.000000
  
  Multipole moment analysis of the density matrix
    Molecular charge:                      -1.000000
    Number of electrons:                   18.000000
      Center of electronic charge [Ang]: [ -0.000000,   0.000000,  -0.474434]
    Total nuclear charge:                  17.000000
      Center of nuclear charge [Ang]:    [ -0.000000,   0.000000,  -0.000000]
    Dipole moment [D]:                     41.018472
      Cartesian components [D]:          [  0.000000,  -0.000000,  41.018472]
    RMS size of the density [Ang]:         3.636750
      Cartesian components [Ang]:        [  0.695547,   0.557478,   3.525817]
  
  Exciton analysis of the difference density matrix
    <r_h> [Ang]:                  [  0.000000,   0.000000,   0.710346]
    <r_e> [Ang]:                  [ -0.000000,   0.000000,   1.765819]
    |<r_e - r_h>| [Ang]:            1.055473
    Hole size [Ang]:                1.549512
      Cartesian components [Ang]: [  0.762317,   0.867511,   1.033095]
    Electron size [Ang]:            2.504248
      Cartesian components [Ang]: [  1.345265,   1.346442,   1.627457]

  Transition density matrix analysis:
  -----------------------------------
  
  CT numbers (Mulliken)
    omega =     0.9202
    <Phe> =    -0.0112
  
  Exciton analysis of the transition density matrix
    Trans. dipole moment [D]:             1.033587
      Cartesian components [D]:         [  0.000000,   1.033587,  -0.000000]
    <r_h> [Ang]:                        [  0.000000,   0.000000,   0.645202]
    <r_e> [Ang]:                        [ -0.000000,   0.000000,   2.185437]
    |<r_e - r_h>| [Ang]:                  1.540235
    Hole size [Ang]:                      1.254345
      Cartesian components [Ang]:       [  0.508982,   0.861912,   0.755928]
    Electron size [Ang]:                  2.705671
      Cartesian components [Ang]:       [  1.527365,   1.542846,   1.614756]
    RMS electron-hole separation [Ang]:   3.348521
      Cartesian components [Ang]:       [  1.609211,   1.756688,   2.353100]
    Covariance(r_h, r_e) [Ang^2]:         0.026883
    Correlation coefficient:              0.007921
    Center-of-mass size [Ang]:            1.495644
      Cartesian components [Ang]:       [  0.805334,   0.888901,   0.893444]

  Decomposition into state-averaged NTOs
    H- 1 -> L+ 2:  0.6780 ( 91.9%)
                   omega =  92.0%
  ----------------------------------------------------------------------------


  Excited state 9 (singlet, B2)                                    [converged]
  ----------------------------------------------------------------------------
  Term symbol:  9 (1) B2                                    R^2 =  4.98262e-07

  Total energy:                                            -78.4987593564 a.u.
  Excitation energy:                                               7.821049 eV

  Osc. strength:                                                      0.000000
  Trans. dip. moment [a.u.]:           [   0.000000,    0.000001,   -0.000000]
  <i|r^2|0> [a.u.]:                    [   0.000000,   -0.000000,   -0.000000]

  Dip. moment [a.u.]:                  [  -0.000000,    0.000000,  -23.978855]
  Total dipole [Debye]:                                              60.948181
  <r^2> [a.u.]:                        [  40.835362,   49.827995,  109.222587]
  Total <r^2> [a.u.]:                                               199.885944

  V1^2 = 0.0000, V2^2 = 1.0000

  Important amplitudes:
      occ i      occ j       vir a       vir b          v   
    ---------------------------------------------------------
     6 (A1) A   6 (A1) B    9 (A1) A    2 (B2) B      0.3536
     6 (A1) A               2 (B2) A                  0.0009
    ---------------------------------------------------------

  Density matrix analysis:
  ------------------------
  NOs
    Occupation of frontier NOs:
       1.0019   1.0041
    Number of electrons: 18.000000
    Number of unpaired electrons: n_u =  2.39742, n_u,nl =  2.04808
    NO participation ratio (PR_NO):  2.873102
  
  
  Mulliken Population Analysis
  Atom      Charge (e)              h+              e-           Del q
  --------------------------------------------------------------------
   1 C       -2.928818        0.000031       -2.705063       -2.705033
   2 C        0.324762       -0.000022        0.545154        0.545132
   3 H        0.150551       -0.000000        0.046151        0.046151
   4 H        0.151477        0.000000        0.033804        0.033804
   5 H        0.150551       -0.000000        0.046151        0.046151
   6 H        0.151477        0.000000        0.033804        0.033804
   7 H        1.000000        1.999990       -0.000000        1.999990
  --------------------------------------------------------------------
  Sum:       -1.000000        1.999999       -1.999999       -0.000000
  
  Multipole moment analysis of the density matrix
    Molecular charge:                      -1.000000
    Number of electrons:                   18.000000
      Center of electronic charge [Ang]: [  0.000000,  -0.000000,   0.704948]
    Total nuclear charge:                  17.000000
      Center of nuclear charge [Ang]:    [ -0.000000,   0.000000,  -0.000000]
    Dipole moment [D]:                     60.948163
      Cartesian components [D]:          [ -0.000000,   0.000000, -60.948163]
    RMS size of the density [Ang]:         1.616385
      Cartesian components [Ang]:        [  0.797045,   0.880444,   1.096467]
  
  Exciton analysis of the difference density matrix
    <r_h> [Ang]:                  [  0.000000,  -0.000000, -10.037131]
    <r_e> [Ang]:                  [ -0.000000,  -0.000000,   1.304675]
    |<r_e - r_h>| [Ang]:           11.341806
    Hole size [Ang]:                1.111361
      Cartesian components [Ang]: [  0.641565,   0.641565,   0.641804]
    Electron size [Ang]:            3.416526
      Cartesian components [Ang]: [  1.619179,   2.306927,   1.931060]

  Transition density matrix analysis:
  -----------------------------------
  
  CT numbers (Mulliken)
    omega =     0.0000
    <Phe> =     0.0000
  
  Exciton analysis of the transition density matrix
    ... vanishing.

  Decomposition into state-averaged NTOs
                   omega =   0.0%
  ----------------------------------------------------------------------------


  Excited state 10 (singlet, B2)                                [not converged]
  ----------------------------------------------------------------------------
  Term symbol:  10 (1) B2                                   R^2 =  7.26413e-03

  Total energy:                                            -78.4870085161 a.u.
  Excitation energy:                                               8.140805 eV



  V1^2 = 0.0000, V2^2 = 1.0000

  Important amplitudes:
      occ i      occ j       vir a       vir b          v   
    ---------------------------------------------------------
     6 (A1) A   6 (A1) B    9 (A1) A    3 (B2) B     -0.3535
     6 (A1) A   6 (A1) B    7 (A1) A    4 (B2) B      0.0018
    ---------------------------------------------------------
  ----------------------------------------------------------------------------


--------------------------------------------------------------------------------
  Time of ADC calculation:  CPU 2312.64 s  wall 590.88 s
================================================================================
 
 --------------------------------------------------------------
             Orbital Energies (a.u.) and Symmetries
 --------------------------------------------------------------
 
 Alpha MOs, Restricted
 -- Occupied --                  
-11.187 -11.185  -0.992  -0.732  -0.610  -0.517  -0.465  -0.327
  1 A1    2 A1    3 A1    4 A1    1 B1    5 A1    2 B1    1 B2                 
  0.022
  6 A1                                                                         
 -- Virtual --                   
  0.119   0.132   0.141   0.149   0.153   0.169   0.190   0.237
  7 A1    3 B1    2 B2    8 A1    3 B2    4 B1    9 A1    4 B2                 
  0.267   0.312   0.368   0.372   0.404   0.404   0.414   0.419
 10 A1   11 A1    5 B1   12 A1    6 B1   13 A1    5 B2   14 A1                 
  0.426   0.499   0.599   0.668   0.885   0.900   0.984   1.014
  7 B1    6 B2    8 B1   15 A1   16 A1    9 B1   17 A1   18 A1                 
  1.058   1.073   1.111   1.112   1.164   1.181   1.191   1.227
 19 A1   10 B1   11 B1   20 A1    1 A2    7 B2   21 A1    8 B2                 
  1.334   1.341   1.343   1.508   1.673   1.741   1.783   1.926
  2 A2    9 B2   22 A1   12 B1   23 A1   13 B1   14 B1   10 B2                 
  1.967   1.967   1.967   1.994   2.013   2.067   2.125   2.148
 24 A1   15 B1   11 B2   12 B2   25 A1    3 A2   26 A1   16 B1                 
  2.232   2.382   2.462   2.524   2.618   2.630   2.893   2.896
 13 B2   27 A1    4 A2   28 A1   17 B1   29 A1   18 B1   30 A1                 
  3.318   3.393
 31 A1   19 B1                                                                 
 
 Beta MOs, Restricted
 -- Occupied --                  
-11.187 -11.185  -0.992  -0.732  -0.610  -0.517  -0.465  -0.327
  1 A1    2 A1    3 A1    4 A1    1 B1    5 A1    2 B1    1 B2                 
  0.022
  6 A1                                                                         
 -- Virtual --                   
  0.119   0.132   0.141   0.149   0.153   0.169   0.190   0.237
  7 A1    3 B1    2 B2    8 A1    3 B2    4 B1    9 A1    4 B2                 
  0.267   0.312   0.368   0.372   0.404   0.404   0.414   0.419
 10 A1   11 A1    5 B1   12 A1    6 B1   13 A1    5 B2   14 A1                 
  0.426   0.499   0.599   0.668   0.885   0.900   0.984   1.014
  7 B1    6 B2    8 B1   15 A1   16 A1    9 B1   17 A1   18 A1                 
  1.058   1.073   1.111   1.112   1.164   1.181   1.191   1.227
 19 A1   10 B1   11 B1   20 A1    1 A2    7 B2   21 A1    8 B2                 
  1.334   1.341   1.343   1.508   1.673   1.741   1.783   1.926
  2 A2    9 B2   22 A1   12 B1   23 A1   13 B1   14 B1   10 B2                 
  1.967   1.967   1.967   1.994   2.013   2.067   2.125   2.148
 24 A1   15 B1   11 B2   12 B2   25 A1    3 A2   26 A1   16 B1                 
  2.232   2.382   2.462   2.524   2.618   2.630   2.893   2.896
 13 B2   27 A1    4 A2   28 A1   17 B1   29 A1   18 B1   30 A1                 
  3.318   3.393
 31 A1   19 B1                                                                 
 --------------------------------------------------------------
 
          Ground-State Mulliken Net Atomic Charges

     Atom                 Charge (a.u.)
  ----------------------------------------
      1 C                    -0.212311
      2 C                    -0.201427
      3 H                     0.096761
      4 H                     0.110103
      5 H                     0.096761
      6 H                     0.110103
      7 H                    -0.999990
  ----------------------------------------
  Sum of atomic charges =    -1.000000

 -----------------------------------------------------------------
                    Cartesian Multipole Moments
 -----------------------------------------------------------------
    Charge (ESU x 10^10)
                -4.8032
    Dipole Moment (Debye)
         X       0.0000      Y      -0.0000      Z      47.9911
       Tot      47.9911
    Quadrupole Moments (Debye-Ang)
        XX     -15.9171     XY      -0.0000     YY     -20.1088
        XZ       0.0000     YZ      -0.0000     ZZ    -501.0073
    Octopole Moments (Debye-Ang^2)
       XXX       0.0000    XXY      -0.0000    XYY       0.0000
       YYY      -0.0000    XXZ      31.9601    XYZ      -0.0000
       YYZ      29.3628    XZZ      -0.0000    YZZ       0.0000
       ZZZ    4950.8068
    Hexadecapole Moments (Debye-Ang^3)
      XXXX     -32.7902   XXXY      -0.0000   XXYY     -11.0024
      XYYY       0.0000   YYYY     -27.7050   XXXZ       0.0000
      XXYZ      -0.0000   XYYZ       0.0000   YYYZ      -0.0000
      XXZZ    -418.4562   XYZZ      -0.0000   YYZZ    -422.5390
      XZZZ       0.0000   YZZZ      -0.0000   ZZZZ  -51245.5952
 -----------------------------------------------------------------
 Total job time:  673.69s(wall), 2358.05s(cpu) 
 Fri Mar 25 18:07:55 2022

        *************************************************************
        *                                                           *
        *  Thank you very much for using Q-Chem.  Have a nice day.  *
        *                                                           *
        *************************************************************


