/src/tsommerfeld/qchem/exe/qcprog.exe .input1.666667.7966.qcin.1 /src/jdavis/qchem.scratch/qchem7966/

                  Welcome to Q-Chem
     A Quantum Leap Into The Future Of Chemistry


 Q-Chem 5.4 (devel), Q-Chem, Inc., Pleasanton, CA (2021)

 E. Epifanovsky,  A. T. B. Gilbert,  Xintian Feng,  Joonho Lee,  Yuezhi Mao,  
 N. Mardirossian,  P. Pokhilko,  A. White,  M. Wormit,  M. P. Coons,  
 A. L. Dempwolff,  Zhengting Gan,  D. Hait,  P. R. Horn,  L. D. Jacobson,  
 I. Kaliman,  J. Kussmann,  A. W. Lange,  Ka Un Lao,  D. S. Levine,  Jie Liu,  
 S. C. McKenzie,  A. F. Morrison,  K. Nanda,  F. Plasser,  D. R. Rehn,  
 M. L. Vidal,  Zhi-Qiang You,  Ying Zhu,  B. Alam,  B. Albrecht,  
 A. Aldossary,  E. Alguire,  J. H. Andersen,  D. Barton,  K. Begam,  A. Behn,  
 Y. A. Bernard,  E. J. Berquist,  H. Burton,  A. Carreras,  K. Carter-Fenk,  
 R. Chakraborty,  A. D. Chien,  K. D. Closser,  V. Cofer-Shabica,  
 S. Dasgupta,  Jia Deng,  M. de Wergifosse,  M. Diedenhofen,  Hainam Do,  
 S. Ehlert,  Po-Tung Fang,  S. Fatehi,  Qingguo Feng,  T. Friedhoff,  
 J. Gayvert,  Qinghui Ge,  G. Gidofalvi,  M. Goldey,  J. Gomes,  
 C. Gonzalez-Espinoza,  S. Gulania,  A. Gunina,  M. W. D. Hanson-Heine,  
 P. H. P. Harbach,  A. W. Hauser,  M. F. Herbst,  M. Hernandez Vera,  
 M. Hodecker,  Z. C. Holden,  S. Houck,  Xunkun Huang,  Kerwin Hui,  
 B. C. Huynh,  M. Ivanov,  Hyunjun Ji,  Hanjie Jiang,  B. Kaduk,  S. Kaehler,  
 K. Khistyaev,  Jaehoon Kim,  P. Klunzinger,  Z. Koczor-Benda,  
 Joong Hoon Koh,  D. Kosenkov,  L. Koulias,  T. Kowalczyk,  C. M. Krauter,  
 K. Kue,  A. Kunitsa,  T. Kus,  A. Landau,  K. V. Lawler,  D. Lefrancois,  
 S. Lehtola,  Rain Li,  Yi-Pei Li,  Jiashu Liang,  M. Liebenthal,  
 Hung-Hsuan Lin,  You-Sheng Lin,  Fenglai Liu,  Kuan-Yu Liu,  
 M. Loipersberger,  A. Luenser,  A. Manjanath,  P. Manohar,  E. Mansoor,  
 S. F. Manzer,  Shan-Ping Mao,  A. V. Marenich,  T. Markovich,  S. Mason,  
 S. A. Maurer,  P. F. McLaughlin,  M. F. S. J. Menger,  J.-M. Mewes,  
 S. A. Mewes,  P. Morgante,  J. W. Mullinax,  K. J. Oosterbaan,  G. Paran,  
 Alexander C. Paul,  Suranjan K. Paul,  F. Pavosevic,  Zheng Pei,  S. Prager,  
 E. I. Proynov,  E. Ramos,  B. Rana,  A. E. Rask,  A. Rettig,  R. M. Richard,  
 F. Rob,  E. Rossomme,  T. Scheele,  M. Scheurer,  M. Schneider,  
 N. Sergueev,  S. M. Sharada,  W. Skomorowski,  D. W. Small,  C. J. Stein,  
 Yu-Chuan Su,  E. J. Sundstrom,  Zhen Tao,  J. Thirman,  T. Tsuchimochi,  
 N. M. Tubman,  S. P. Veccham,  O. Vydrov,  J. Wenzel,  J. Witte,  A. Yamada,  
 Kun Yao,  S. Yeganeh,  S. R. Yost,  A. Zech,  Igor Ying Zhang,  Xing Zhang,  
 Yu Zhang,  D. Zuev,  A. Aspuru-Guzik,  A. T. Bell,  N. A. Besley,  
 K. B. Bravaya,  B. R. Brooks,  D. Casanova,  Jeng-Da Chai,  S. Coriani,  
 C. J. Cramer,  A. E. DePrince, III,  R. A. DiStasio Jr.,  A. Dreuw,  
 B. D. Dunietz,  T. R. Furlani,  W. A. Goddard III,  S. Grimme,  
 S. Hammes-Schiffer,  T. Head-Gordon,  W. J. Hehre,  Chao-Ping Hsu,  
 T.-C. Jagau,  Yousung Jung,  A. Klamt,  Jing Kong,  D. S. Lambrecht,  
 WanZhen Liang,  N. J. Mayhall,  C. W. McCurdy,  J. B. Neaton,  
 C. Ochsenfeld,  J. A. Parkhill,  R. Peverati,  V. A. Rassolov,  Yihan Shao,  
 L. V. Slipchenko,  T. Stauch,  R. P. Steele,  J. E. Subotnik,  
 A. J. W. Thom,  A. Tkatchenko,  D. G. Truhlar,  T. Van Voorhis,  
 T. A. Wesolowski,  K. B. Whaley,  H. L. Woodcock III,  P. M. Zimmerman,  
 S. Faraji,  P. M. W. Gill,  M. Head-Gordon,  J. M. Herbert,  A. I. Krylov

 Additional authors for Version 5.4.1: 
 S. Kotaru,  Shaozhi Li,  Xiangyuan Li,  F. Matz,  A. Molle,  Haisheng Ren,  
 Yingli Su,  Hung-Yi Tsai,  C. Utku,  Fang Wang

 Contributors to earlier versions of Q-Chem not listed above: 
 R. D. Adamson,  B. Austin,  R. Baer,  J. Baker,  G. J. O. Beran,  
 K. Brandhorst,  S. T. Brown,  E. F. C. Byrd,  A. K. Chakraborty,  
 G. K. L. Chan,  Chun-Min Chang,  Yunqing Chen,  C.-L. Cheng,  
 Siu Hung Chien,  D. M. Chipman,  D. L. Crittenden,  H. Dachsel,  
 R. J. Doerksen,  A. D. Dutoi,  R. G. Edgar,  J. Fosso-Tande,  
 L. Fusti-Molnar,  D. Ghosh,  A. Ghysels,  A. Golubeva-Zadorozhnaya,  
 J. Gonthier,  M. S. Gordon,  S. R. Gwaltney,  G. Hawkins,  J. E. Herr,  
 A. Heyden,  S. Hirata,  E. G. Hohenstein,  G. Kedziora,  F. J. Keil,  
 C. Kelley,  Jihan Kim,  R. A. King,  R. Z. Khaliullin,  P. P. Korambath,  
 W. Kurlancheek,  A. Laurent,  A. M. Lee,  M. S. Lee,  S. V. Levchenko,  
 Ching Yeh Lin,  D. Liotard,  E. Livshits,  R. C. Lochan,  I. Lotan,  
 L. A. Martinez-Martinez,  P. E. Maslen,  N. Nair,  D. P. O'Neill,  
 D. Neuhauser,  E. Neuscamman,  C. M. Oana,  R. Olivares-Amaya,  R. Olson,  
 T. M. Perrine,  B. Peters,  P. A. Pieniazek,  A. Prociuk,  Y. M. Rhee,  
 J. Ritchie,  M. A. Rohrdanz,  E. Rosta,  N. J. Russ,  H. F. Schaefer III,  
 M. W. Schmidt,  N. E. Schultz,  S. Sharma,  N. Shenvi,  C. D. Sherrill,  
 A. C. Simmonett,  A. Sodt,  T. Stein,  D. Stuck,  K. S. Thanthiriwatte,  
 V. Vanovschi,  L. Vogt,  Tao Wang,  A. Warshel,  M. A. Watson,  
 C. F. Williams,  Q. Wu,  X. Xu,  Jun Yang,  W. Zhang,  Yan Zhao

 Please cite Q-Chem as follows:
 Y. Shao et al., Mol. Phys. 113, 184-215 (2015)
 DOI: 10.1080/00268976.2014.952696

 Q-Chem 5.4.1 for Intel X86 EM64T Linux

 Parts of Q-Chem use Armadillo 9.900.5 (Nocturnal Misbehaviour).
 http://arma.sourceforge.net/

 Q-Chem begins on Fri Mar 25 19:58:56 2022  

 Host: node01
0

     Scratch files written to /src/jdavis/qchem.scratch/qchem7966//
 Processing $rem in /src/tsommerfeld/qchem/config/preferences:
 Processing $rem in /home/jdavis/.qchemrc:

 Checking the input file for inconsistencies... 	...done.

--------------------------------------------------------------
User input:
--------------------------------------------------------------
$molecule
-1 1
C         0.0000000000    0.0000000000    0.8417902907
C         0.0000000000    0.0000000000   -0.4872097093
H         0.9623488518    0.0000000000    1.3363703127
H         0.9623489048    0.0000000000   -0.9817896873
H        -0.9623488518    0.0000000000    1.3363703127
H        -0.9623489048    0.0000000000   -0.9817896873
H         0.0000000000    0.0000000000   -10.4872097093
$end

$rem
   METHOD adc(2)
   BASIS gen
   PURECART 11
   EE_STATES [0,0,0,10]
   scf_convergence 8
   ADC_DAVIDSON_MAXITER 120
   ADC_DAVIDSON_MAXSUBSPACE 200
   adc_nguess_singles 100
   THRESH 14
   S2THRESH 14
   adc_davidson_conv 5
   adc_davidson_thresh 14
   THREADS 10
   MEM_TOTAL 95000
   STATE_ANALYSIS TRUE
$end
$basis
C 1
S   9   1.00
      6.665000D+03           6.920000D-04
      1.000000D+03           5.329000D-03
      2.280000D+02           2.707700D-02
      6.471000D+01           1.017180D-01
      2.106000D+01           2.747400D-01
      7.495000D+00           4.485640D-01
      2.797000D+00           2.850740D-01
      5.215000D-01           1.520400D-02
      1.596000D-01          -3.191000D-03
S   9   1.00
      6.665000D+03          -1.460000D-04
      1.000000D+03          -1.154000D-03
      2.280000D+02          -5.725000D-03
      6.471000D+01          -2.331200D-02
      2.106000D+01          -6.395500D-02
      7.495000D+00          -1.499810D-01
      2.797000D+00          -1.272620D-01
      5.215000D-01           5.445290D-01
      1.596000D-01           5.804960D-01
S   1   1.00
      1.596000D-01           1.000000D+00
S   1   1.00
      0.0469000              1.0000000
P   4   1.00
      9.439000D+00           3.810900D-02
      2.002000D+00           2.094800D-01
      5.456000D-01           5.085570D-01
      1.517000D-01           4.688420D-01
P   1   1.00
      1.517000D-01           1.000000D+00
P   1   1.00
      0.1011333      1.0000000
P   1   1.00
      0.0505667      1.0000000
D   1   1.00
      5.500000D-01           1.0000000
****
C 2
S   9   1.00
      6.665000D+03           6.920000D-04
      1.000000D+03           5.329000D-03
      2.280000D+02           2.707700D-02
      6.471000D+01           1.017180D-01
      2.106000D+01           2.747400D-01
      7.495000D+00           4.485640D-01
      2.797000D+00           2.850740D-01
      5.215000D-01           1.520400D-02
      1.596000D-01          -3.191000D-03
S   9   1.00
      6.665000D+03          -1.460000D-04
      1.000000D+03          -1.154000D-03
      2.280000D+02          -5.725000D-03
      6.471000D+01          -2.331200D-02
      2.106000D+01          -6.395500D-02
      7.495000D+00          -1.499810D-01
      2.797000D+00          -1.272620D-01
      5.215000D-01           5.445290D-01
      1.596000D-01           5.804960D-01
S   1   1.00
      1.596000D-01           1.000000D+00
S   1   1.00
      0.0469000              1.0000000
P   4   1.00
      9.439000D+00           3.810900D-02
      2.002000D+00           2.094800D-01
      5.456000D-01           5.085570D-01
      1.517000D-01           4.688420D-01
P   1   1.00
      1.517000D-01           1.000000D+00
P   1   1.00
      0.1011333      1.0000000
P   1   1.00
      0.0505667      1.0000000
D   1   1.00
      5.500000D-01           1.0000000
****
H 3
cc-pVDZ
****
H 4
cc-pVDZ
****
H 5
cc-pVDZ
****
H 6
cc-pVDZ
****
H 7
aug-cc-pVDZ
****
$end
--------------------------------------------------------------
 ----------------------------------------------------------------
             Standard Nuclear Orientation (Angstroms)
    I     Atom           X                Y                Z
 ----------------------------------------------------------------
    1      C       0.0000000000     0.0000000000     1.2918235242
    2      C       0.0000000000     0.0000000000    -0.0371764758
    3      H       0.9623488518     0.0000000000     1.7864035462
    4      H       0.9623489048     0.0000000000    -0.5317564538
    5      H      -0.9623488518     0.0000000000     1.7864035462
    6      H      -0.9623489048     0.0000000000    -0.5317564538
    7      H       0.0000000000     0.0000000000   -10.0371764758
 ----------------------------------------------------------------
 Molecular Point Group                 C2v   NOp =  4
 Largest Abelian Subgroup              C2v   NOp =  4
 Nuclear Repulsion Energy =          34.38697142 hartrees
 There are        9 alpha and        9 beta electrons
 Requested basis set is non-standard
 There are 33 shells and 67 basis functions
 Total memory of 95000 MB is distributed as follows: 
   MEM_STATIC is set to 192 MB
   QALLOC/CCMAN JOB total memory use is  94808 MB
 Warning: actual memory use might exceed 95000 MB

 Total QAlloc Memory Limit  95000 MB
 Mega-Array Size       188 MB
 MEM_STATIC part       192 MB

                       Distance Matrix (Angstroms)
             C (  1)   C (  2)   H (  3)   H (  4)   H (  5)   H (  6)
   C (  2)  1.329000
   H (  3)  1.082000  2.061931
   H (  4)  2.061931  1.082000  2.318160
   H (  5)  1.082000  2.061931  1.924698  3.013026
   H (  6)  2.061931  1.082000  3.013026  1.924698  2.318160
   H (  7) 11.329000 10.000000 11.862679  9.554011 11.862679  9.554011

 
 A cutoff of  1.0D-14 yielded    491 shell pairs
 There are      2083 function pairs (      2220 Cartesian)
 Smallest overlap matrix eigenvalue = 1.67E-04

 Scale SEOQF with 1.000000e-01/1.000000e-01/1.000000e-02

 Standard Electronic Orientation quadrupole field applied
 Nucleus-field energy     =    -0.0000000011 hartrees
 ================ Generating on-the-fly SAD Guess ================
Attempting to make child job directory: /src/jdavis/qchem.scratch/qchem7966//Frg1/
Attempting to make child job directory: /src/jdavis/qchem.scratch/qchem7966//Frg2/
Creating input file /src/jdavis/qchem.scratch/qchem7966/Frg1.input
using default PutDataFrgm: nothing
calling putenv with: QCSCRATCH=/src/jdavis/qchem.scratch/qchem7966/ 
Spawning Job For Fragment 0
Done Job For Fragment 0
calling putenv with: QCSCRATCH=/src/jdavis/qchem.scratch 
calling putenv with: QCTHREADS=1 
Creating input file /src/jdavis/qchem.scratch/qchem7966/Frg2.input
using default PutDataFrgm: nothing
calling putenv with: QCSCRATCH=/src/jdavis/qchem.scratch/qchem7966/ 
Spawning Job For Fragment 1
Done Job For Fragment 1
calling putenv with: QCSCRATCH=/src/jdavis/qchem.scratch 
calling putenv with: QCTHREADS=1 
 Time for running child jobs:  CPU 1.76 s  wall 54.32 s
 ============= Method Specific SAD Guess Constructed =============
 Guess from on-the-fly superposition of atomic densities
 Warning: Energy on first SCF cycle will be non-variational
 A restricted Hartree-Fock SCF calculation will be
 performed using Pulay DIIS extrapolation
 SCF converges when DIIS error is below 1.0E-08
 using 10 threads for integral computing
 -------------------------------------------------------
 OpenMP Integral computing Module                
 Release: version 1.0, May 2013, Q-Chem Inc. Pittsburgh 
 -------------------------------------------------------
 ---------------------------------------
  Cycle       Energy         DIIS Error
 ---------------------------------------
    1     -78.8027566087      7.36E-02
    2     -78.4470097778      6.48E-03
    3     -78.4849442020      1.49E-03
    4     -78.4868835216      4.83E-04
    5     -78.4870605559      7.69E-05
    6     -78.4870688232      1.81E-05
    7     -78.4870692877      8.83E-06
    8     -78.4870693827      1.72E-06
    9     -78.4870693892      5.59E-07
   10     -78.4870693898      1.16E-07
   11     -78.4870693898      1.20E-08
   12     -78.4870693898      1.51E-09 Convergence criterion met
 ---------------------------------------
 SCF time:  CPU 11.59 s  wall 1.17 s
 SCF   energy in the final basis set = -78.48706939
 Total energy in the final basis set = -78.48706939
================================================================================
|                                                                              |
|                                 A D C  M A N                                 |
|                                                                              |
 ------------------------------------------------------------------------------ 
|                                                                              |
| Components:                                                                  |
|                                                                              |
| - libvmm - 1.3-trunk                                                         |
|   Authors:                                                                   |
|   Evgeny Epifanovsky, Ilya Kaliman                                           |
|                                                                              |
| - libtensor - 2.5-trunk                                                      |
|   Authors:                                                                   |
|   Evgeny Epifanovsky, Michael Wormit, Dmitry Zuev, Sam Manzer,               |
|   Ilya Kaliman                                                               |
|                                                                              |
| - libwfa - 1.1-trunk                                                         |
|   Authors:                                                                   |
|   Felix Plasser, Stefanie Mewes (Baeppler), Benjamin Thomitzni,              |
|   Michael Wormit, Feng Chen, Anna I. Krylov, Pavel Pokhilko                  |
|                                                                              |
| - libadc - 1.1-trunk                                                         |
|   Authors:                                                                   |
|   Michael Wormit, Adrian L. Dempwolff, Philipp H. P. Harbach,                |
|   Caroline Krauter, Dirk Rehn, Matthias Schneider, Jan Wenzel                |
|                                                                              |
| - adcman - 2.6-trunk                                                         |
|   Authors:                                                                   |
|   Michael Wormit, Adrian L. Dempwolff, Philipp H. P. Harbach,                |
|   Caroline Krauter, Daniel Lefrancois, Jan-Michael Mewes, Dirk Rehn,         |
|   Matthias Schneider, Jan Wenzel, Andreas Dreuw                              |
|                                                                              |
| Authors of earlier versions of ADCMAN:                                       |
| Andreas Dreuw, Jan Hendrik Starcke, Dirk Rehn, Michael Wormit                |
|                                                                              |
================================================================================

 
 Alpha MOs, Restricted
 -- Occupied --                  
-11.187 -11.185  -0.992  -0.732  -0.610  -0.517  -0.465  -0.327
  1 A1    2 A1    3 A1    4 A1    1 B1    5 A1    2 B1    1 B2                 
  0.022
  6 A1                                                                         
 -- Virtual --                   
  0.138   0.151   0.157   0.159   0.169   0.194   0.207   0.261
  7 A1    3 B1    2 B2    8 A1    3 B2    4 B1    9 A1   10 A1                 
  0.261   0.311   0.377   0.387   0.439   0.460   0.466   0.481
  4 B2   11 A1    5 B1   12 A1   13 A1    6 B1   14 A1    5 B2                 
  0.497   0.570   0.606   0.668   0.891   0.898   0.966   1.052
  7 B1    6 B2    8 B1   15 A1   16 A1    9 B1   17 A1   18 A1                 
  1.058   1.100   1.164   1.189   1.202   1.220   1.275   1.335
 19 A1   10 B1    1 A2   20 A1   21 A1   11 B1    7 B2    2 A2                 
  1.340   1.363   1.451   1.549   1.678   1.795   1.855   1.933
  8 B2    9 B2   22 A1   12 B1   23 A1   13 B1   14 B1   10 B2                 
  1.967   1.967   1.967   1.996   2.030   2.067   2.150   2.158
 24 A1   15 B1   11 B2   12 B2   25 A1    3 A2   26 A1   16 B1                 
  2.236   2.376   2.462   2.533   2.603   2.634   2.935   2.941
 13 B2   27 A1    4 A2   28 A1   17 B1   29 A1   30 A1   18 B1                 
  3.364   3.409
 31 A1   19 B1                                                                 
 
 Beta MOs, Restricted
 -- Occupied --                  
-11.187 -11.185  -0.992  -0.732  -0.610  -0.517  -0.465  -0.327
  1 A1    2 A1    3 A1    4 A1    1 B1    5 A1    2 B1    1 B2                 
  0.022
  6 A1                                                                         
 -- Virtual --                   
  0.138   0.151   0.157   0.159   0.169   0.194   0.207   0.261
  7 A1    3 B1    2 B2    8 A1    3 B2    4 B1    9 A1   10 A1                 
  0.261   0.311   0.377   0.387   0.439   0.460   0.466   0.481
  4 B2   11 A1    5 B1   12 A1   13 A1    6 B1   14 A1    5 B2                 
  0.497   0.570   0.606   0.668   0.891   0.898   0.966   1.052
  7 B1    6 B2    8 B1   15 A1   16 A1    9 B1   17 A1   18 A1                 
  1.058   1.100   1.164   1.189   1.202   1.220   1.275   1.335
 19 A1   10 B1    1 A2   20 A1   21 A1   11 B1    7 B2    2 A2                 
  1.340   1.363   1.451   1.549   1.678   1.795   1.855   1.933
  8 B2    9 B2   22 A1   12 B1   23 A1   13 B1   14 B1   10 B2                 
  1.967   1.967   1.967   1.996   2.030   2.067   2.150   2.158
 24 A1   15 B1   11 B2   12 B2   25 A1    3 A2   26 A1   16 B1                 
  2.236   2.376   2.462   2.533   2.603   2.634   2.935   2.941
 13 B2   27 A1    4 A2   28 A1   17 B1   29 A1   30 A1   18 B1                 
  3.364   3.409
 31 A1   19 B1                                                                 

--------------------------------------------------------------------------------
                                   HF Summary                                   
--------------------------------------------------------------------------------
  Energy:                                                  -78.4870693898 a.u.
  Dip. moment [a.u.]:                  [  -0.000000,    0.000000,   18.881339]
  Total dipole [Debye]:                                              47.991587
  <r^2> [a.u.]:                        [  25.056878,   14.959441,  792.842460]
  Total <r^2> [a.u.]:                                               832.858779
--------------------------------------------------------------------------------

--------------------------------------------------------------------------------
                                 MP(2) Summary                                  
--------------------------------------------------------------------------------
  MP energy contribution:                                   -0.3002321753 a.u.
  Total energy:                                            -78.7873015652 a.u.
  Dip. moment [a.u.]:                  [  -0.000000,    0.000000,   18.887125]
  Total dipole [Debye]:                                              48.006293
  <r^2> [a.u.]:                        [  25.041175,   14.766157,  792.888269]
  Total <r^2> [a.u.]:                                               832.695601

  Density matrix analysis:
  ------------------------
  NOs
    Occupation of frontier NOs:
       0.0447   1.9370
    Number of electrons: 18.000000
    Number of unpaired electrons: n_u =  0.43276, n_u,nl =  0.04685
    NO participation ratio (PR_NO): 15.343508
  
  
  Mulliken Population Analysis
  Atom      Charge (e)              h+              e-           Del q
  --------------------------------------------------------------------
   1 C       -0.249826        0.089456       -0.101741       -0.012285
   2 C       -0.251929        0.083724       -0.104220       -0.020496
   3 H        0.118903        0.018705       -0.010473        0.008231
   4 H        0.131974        0.018463       -0.010304        0.008159
   5 H        0.118903        0.018705       -0.010473        0.008231
   6 H        0.131974        0.018463       -0.010304        0.008159
   7 H       -1.000000        0.021953       -0.021953        0.000000
  --------------------------------------------------------------------
  Sum:       -1.000000        0.269468       -0.269468        0.000000
  
  Multipole moment analysis of the density matrix
    Molecular charge:                      -1.000000
    Number of electrons:                   18.000000
      Center of electronic charge [Ang]: [  0.000000,  -0.000000,  -0.555258]
    Total nuclear charge:                  17.000000
      Center of nuclear charge [Ang]:    [ -0.000000,   0.000000,  -0.000000]
    Dipole moment [D]:                     48.006278
      Cartesian components [D]:          [ -0.000000,   0.000000,  48.006278]
    RMS size of the density [Ang]:         3.556129
      Cartesian components [Ang]:        [  0.624155,   0.479290,   3.467962]
  
  Exciton analysis of the difference density matrix
    <r_h> [Ang]:                  [ -0.000000,  -0.000000,  -0.229291]
    <r_e> [Ang]:                  [  0.000000,  -0.000000,  -0.240653]
    |<r_e - r_h>| [Ang]:            0.011362
    Hole size [Ang]:                3.245741
      Cartesian components [Ang]: [  0.730907,   0.753677,   3.071251]
    Electron size [Ang]:            3.218684
      Cartesian components [Ang]: [  0.719657,   0.605946,   3.078124]
--------------------------------------------------------------------------------
  Starting Davidson for singlet states of irrep B2 ... 
--------------------------------------------------------------------------------
   It NVec Conv  Avg. Norm  Max. Norm  Conv. states           Remark
--------------------------------------------------------------------------------
       100    0  1.048e-01  4.639e-01  0.1116 n n n n n n n n Guess.
    1  110    0  5.938e-03  3.425e-02  0.0617 n n n n n n n n 
    2  120    0  7.291e-04  5.931e-03  0.0612 n n n n n n n n 
    3  130    4  6.230e-05  5.113e-04  0.0612 y y y n n n n y 
    4  140    7  8.173e-06  7.711e-05  0.0612 y y y y y y n y 
    5  150   10  6.545e-07  6.354e-06  0.0612 y y y y y y y y Converged.
--------------------------------------------------------------------------------
  Davidson Summary: 
 ------------------------------------------------------------
  State  0: excitation energy =   0.0612 a.u.   (converged)
  State  1: excitation energy =   0.0873 a.u.   (converged)
  State  2: excitation energy =   0.1544 a.u.   (converged)
  State  3: excitation energy =   0.2855 a.u.   (converged)
  State  4: excitation energy =   0.3098 a.u.   (converged)
  State  5: excitation energy =   0.3551 a.u.   (converged)
  State  6: excitation energy =   0.3592 a.u.   (converged)
  State  7: excitation energy =   0.3820 a.u.   (converged)
  State  8: excitation energy =   0.4017 a.u.   (converged)
  State  9: excitation energy =   0.4247 a.u.   (converged)
 ------------------------------------------------------------


--------------------------------------------------------------------------------
                   State-averaged natural transition orbitals
--------------------------------------------------------------------------------
--------------------------------------------------------------------------------

--------------------------------------------------------------------------------
                             Excited State Summary
--------------------------------------------------------------------------------
--------------------------------------------------------------------------------

  Excited state 1 (singlet, B2)                                    [converged]
  ----------------------------------------------------------------------------
  Term symbol:  1 (1) B2                                    R^2 =  1.55167e-10

  Total energy:                                            -78.7260832320 a.u.
  Excitation energy:                                               1.665836 eV

  Osc. strength:                                                      0.000000
  Trans. dip. moment [a.u.]:           [   0.000000,   -0.000374,    0.000000]
  <i|r^2|0> [a.u.]:                    [  -0.000000,   -0.000000,    0.000000]

  Dip. moment [a.u.]:                  [  -0.000000,    0.000000,   -1.217391]
  Total dipole [Debye]:                                               3.094300
  <r^2> [a.u.]:                        [  27.394152,   22.507476,  443.667997]
  Total <r^2> [a.u.]:                                               493.569626

  V1^2 = 0.9529, V2^2 = 0.0471

  Important amplitudes:
      occ i      occ j       vir a       vir b          v   
    ---------------------------------------------------------
     6 (A1) A               2 (B2) A                 -0.6026
     6 (A1) A               3 (B2) A                  0.2910
    ---------------------------------------------------------

  Density matrix analysis:
  ------------------------
  NOs
    Occupation of frontier NOs:
       0.9908   1.0012
    Number of electrons: 18.000000
    Number of unpaired electrons: n_u =  2.41210, n_u,nl =  2.04322
    NO participation ratio (PR_NO):  2.922959
  
  
  Mulliken Population Analysis
  Atom      Charge (e)              h+              e-           Del q
  --------------------------------------------------------------------
   1 C       -0.657382        0.139583       -0.547139       -0.407556
   2 C       -0.667509        0.140009       -0.555590       -0.415580
   3 H        0.078072        0.005390       -0.046221       -0.040831
   4 H        0.084374        0.005266       -0.052867       -0.047601
   5 H        0.078072        0.005390       -0.046221       -0.040831
   6 H        0.084374        0.005266       -0.052867       -0.047601
   7 H        0.000000        1.018666       -0.018666        1.000000
  --------------------------------------------------------------------
  Sum:       -1.000000        1.319570       -1.319570        0.000000
  
  Multipole moment analysis of the density matrix
    Molecular charge:                      -1.000000
    Number of electrons:                   18.000000
      Center of electronic charge [Ang]: [  0.000000,  -0.000000,   0.035790]
    Total nuclear charge:                  17.000000
      Center of nuclear charge [Ang]:    [ -0.000000,   0.000000,  -0.000000]
    Dipole moment [D]:                     3.094299
      Cartesian components [D]:          [ -0.000000,   0.000000,  -3.094299]
    RMS size of the density [Ang]:         2.770785
      Cartesian components [Ang]:        [  0.652821,   0.591736,   2.626961]
  
  Exciton analysis of the difference density matrix
    <r_h> [Ang]:                  [  0.000000,  -0.000000,  -7.607977]
    <r_e> [Ang]:                  [  0.000000,  -0.000000,   0.454387]
    |<r_e - r_h>| [Ang]:            8.062364
    Hole size [Ang]:                4.645659
      Cartesian components [Ang]: [  0.707823,   0.704277,   4.537084]
    Electron size [Ang]:            2.700073
      Cartesian components [Ang]: [  1.000172,   1.462466,   2.037460]

  Transition density matrix analysis:
  -----------------------------------
  
  CT numbers (Mulliken)
    omega =     0.9359
    <Phe> =    -0.0000
  
  Exciton analysis of the transition density matrix
    Trans. dipole moment [D]:             0.000476
      Cartesian components [D]:         [  0.000000,  -0.000476,   0.000000]
    <r_h> [Ang]:                        [  0.000000,   0.000000, -10.037152]
    <r_e> [Ang]:                        [ -0.000000,  -0.000000,   0.617933]
    |<r_e - r_h>| [Ang]:                 10.655085
    Hole size [Ang]:                      1.109865
      Cartesian components [Ang]:       [  0.640779,   0.640779,   0.640785]
    Electron size [Ang]:                  2.485255
      Cartesian components [Ang]:       [  0.922808,   1.583451,   1.678571]
    RMS electron-hole separation [Ang]:  10.997236
      Cartesian components [Ang]:       [  1.123464,   1.708184,  10.805515]
    Covariance(r_h, r_e) [Ang^2]:        -0.000038
    Correlation coefficient:             -0.000014
    Center-of-mass size [Ang]:            1.360902
      Cartesian components [Ang]:       [  0.561732,   0.854099,   0.898346]

  Decomposition into state-averaged NTOs
    H- 1 -> L+ 0: -0.6367 ( 81.1%)
    H- 1 -> L+ 2:  0.2455 ( 12.1%)
                   omega =  93.6%
  ----------------------------------------------------------------------------


  Excited state 2 (singlet, B2)                                    [converged]
  ----------------------------------------------------------------------------
  Term symbol:  2 (1) B2                                    R^2 =  4.39930e-11

  Total energy:                                            -78.6999662205 a.u.
  Excitation energy:                                               2.376516 eV

  Osc. strength:                                                      0.000000
  Trans. dip. moment [a.u.]:           [  -0.000000,    0.000376,   -0.000000]
  <i|r^2|0> [a.u.]:                    [  -0.000000,   -0.000000,   -0.000000]

  Dip. moment [a.u.]:                  [  -0.000000,   -0.000000,   -1.198259]
  Total dipole [Debye]:                                               3.045672
  <r^2> [a.u.]:                        [  31.632398,   37.347121,  441.691814]
  Total <r^2> [a.u.]:                                               510.671333

  V1^2 = 0.9763, V2^2 = 0.0237

  Important amplitudes:
      occ i      occ j       vir a       vir b          v   
    ---------------------------------------------------------
     6 (A1) A               3 (B2) A                 -0.6317
     6 (A1) A               2 (B2) A                 -0.2960
    ---------------------------------------------------------

  Density matrix analysis:
  ------------------------
  NOs
    Occupation of frontier NOs:
       0.9937   1.0018
    Number of electrons: 18.000000
    Number of unpaired electrons: n_u =  2.41608, n_u,nl =  2.04955
    NO participation ratio (PR_NO):  2.923468
  
  
  Mulliken Population Analysis
  Atom      Charge (e)              h+              e-           Del q
  --------------------------------------------------------------------
   1 C       -0.696172        0.042636       -0.488983       -0.446347
   2 C       -0.708006        0.042695       -0.498773       -0.456078
   3 H        0.098324       -0.001673       -0.018906       -0.020578
   4 H        0.103765       -0.001758       -0.026451       -0.028209
   5 H        0.098324       -0.001673       -0.018906       -0.020578
   6 H        0.103765       -0.001758       -0.026451       -0.028209
   7 H        0.000000        1.020604       -0.020604        1.000000
  --------------------------------------------------------------------
  Sum:       -1.000000        1.099073       -1.099073        0.000000
  
  Multipole moment analysis of the density matrix
    Molecular charge:                      -1.000000
    Number of electrons:                   18.000000
      Center of electronic charge [Ang]: [  0.000000,   0.000000,   0.035227]
    Total nuclear charge:                  17.000000
      Center of nuclear charge [Ang]:    [ -0.000000,   0.000000,  -0.000000]
    Dipole moment [D]:                     3.045671
      Cartesian components [D]:          [ -0.000000,  -0.000000,  -3.045671]
    RMS size of the density [Ang]:         2.818394
      Cartesian components [Ang]:        [  0.701505,   0.762243,   2.621111]
  
  Exciton analysis of the difference density matrix
    <r_h> [Ang]:                  [  0.000000,   0.000000,  -9.276747]
    <r_e> [Ang]:                  [  0.000000,   0.000000,   0.393881]
    |<r_e - r_h>| [Ang]:            9.670628
    Hole size [Ang]:                3.005449
      Cartesian components [Ang]: [  0.704709,   0.698291,   2.836987]
    Electron size [Ang]:            3.590032
      Cartesian components [Ang]: [  1.475116,   2.498184,   2.114577]

  Transition density matrix analysis:
  -----------------------------------
  
  CT numbers (Mulliken)
    omega =     0.9694
    <Phe> =     0.0001
  
  Exciton analysis of the transition density matrix
    Trans. dipole moment [D]:             0.000478
      Cartesian components [D]:         [ -0.000000,   0.000478,  -0.000000]
    <r_h> [Ang]:                        [  0.000000,   0.000000, -10.036390]
    <r_e> [Ang]:                        [  0.000000,   0.000000,   0.619051]
    |<r_e - r_h>| [Ang]:                 10.655441
    Hole size [Ang]:                      1.113702
      Cartesian components [Ang]:       [  0.640862,   0.640889,   0.647216]
    Electron size [Ang]:                  3.397966
      Cartesian components [Ang]:       [  1.508753,   2.613472,   1.561922]
    RMS electron-hole separation [Ang]:  11.240161
      Cartesian components [Ang]:       [  1.639220,   2.690902,  10.789496]
    Covariance(r_h, r_e) [Ang^2]:        -0.008145
    Correlation coefficient:             -0.002152
    Center-of-mass size [Ang]:            1.786772
      Cartesian components [Ang]:       [  0.819610,   1.345455,   0.842938]

  Decomposition into state-averaged NTOs
    H- 1 -> L+ 1:  0.6229 ( 77.6%)
    H- 1 -> L+ 3: -0.3026 ( 18.3%)
                   omega =  96.9%
  ----------------------------------------------------------------------------


  Excited state 3 (singlet, B2)                                    [converged]
  ----------------------------------------------------------------------------
  Term symbol:  3 (1) B2                                    R^2 =  2.69007e-10

  Total energy:                                            -78.6329220181 a.u.
  Excitation energy:                                               4.200881 eV

  Osc. strength:                                                      0.000000
  Trans. dip. moment [a.u.]:           [   0.000000,   -0.000570,    0.000000]
  <i|r^2|0> [a.u.]:                    [   0.000000,    0.000000,    0.000000]

  Dip. moment [a.u.]:                  [  -0.000000,   -0.000000,   -1.221520]
  Total dipole [Debye]:                                               3.104796
  <r^2> [a.u.]:                        [  29.509967,   29.617677,  450.405407]
  Total <r^2> [a.u.]:                                               509.533051

  V1^2 = 0.9573, V2^2 = 0.0427

  Important amplitudes:
      occ i      occ j       vir a       vir b          v   
    ---------------------------------------------------------
     6 (A1) A               4 (B2) A                  0.6629
     6 (A1) A               2 (B2) A                 -0.1803
    ---------------------------------------------------------

  Density matrix analysis:
  ------------------------
  NOs
    Occupation of frontier NOs:
       0.9851   1.0013
    Number of electrons: 18.000000
    Number of unpaired electrons: n_u =  2.43213, n_u,nl =  2.05104
    NO participation ratio (PR_NO):  2.985742
  
  
  Mulliken Population Analysis
  Atom      Charge (e)              h+              e-           Del q
  --------------------------------------------------------------------
   1 C       -0.667936        0.095051       -0.513161       -0.418110
   2 C       -0.667060        0.100825       -0.515957       -0.415131
   3 H        0.080726        0.001275       -0.039452       -0.038177
   4 H        0.086772        0.001035       -0.046237       -0.045202
   5 H        0.080726        0.001275       -0.039452       -0.038177
   6 H        0.086772        0.001035       -0.046237       -0.045202
   7 H        0.000000        1.018976       -0.018976        1.000000
  --------------------------------------------------------------------
  Sum:       -1.000000        1.219473       -1.219473       -0.000000
  
  Multipole moment analysis of the density matrix
    Molecular charge:                      -1.000000
    Number of electrons:                   18.000000
      Center of electronic charge [Ang]: [  0.000000,   0.000000,   0.035911]
    Total nuclear charge:                  17.000000
      Center of nuclear charge [Ang]:    [ -0.000000,   0.000000,  -0.000000]
    Dipole moment [D]:                     3.104795
      Cartesian components [D]:          [ -0.000000,  -0.000000,  -3.104795]
    RMS size of the density [Ang]:         2.815242
      Cartesian components [Ang]:        [  0.677562,   0.678798,   2.646834]
  
  Exciton analysis of the difference density matrix
    <r_h> [Ang]:                  [  0.000000,   0.000000,  -8.289239]
    <r_e> [Ang]:                  [  0.000000,   0.000000,   0.436695]
    |<r_e - r_h>| [Ang]:            8.725934
    Hole size [Ang]:                4.123583
      Cartesian components [Ang]: [  0.691308,   0.672069,   4.009284]
    Electron size [Ang]:            3.364020
      Cartesian components [Ang]: [  1.226409,   1.965208,   2.439366]

  Transition density matrix analysis:
  -----------------------------------
  
  CT numbers (Mulliken)
    omega =     0.9453
    <Phe> =    -0.0000
  
  Exciton analysis of the transition density matrix
    Trans. dipole moment [D]:             0.000724
      Cartesian components [D]:         [  0.000000,  -0.000724,   0.000000]
    <r_h> [Ang]:                        [  0.000000,   0.000000, -10.037152]
    <r_e> [Ang]:                        [ -0.000000,   0.000000,   0.628975]
    |<r_e - r_h>| [Ang]:                 10.666127
    Hole size [Ang]:                      1.109891
      Cartesian components [Ang]:       [  0.640794,   0.640794,   0.640801]
    Electron size [Ang]:                  3.326346
      Cartesian components [Ang]:       [  1.248153,   2.156734,   2.203449]
    RMS electron-hole separation [Ang]:  11.227766
      Cartesian components [Ang]:       [  1.403033,   2.249911,  10.910185]
    Covariance(r_h, r_e) [Ang^2]:        -0.000012
    Correlation coefficient:             -0.000003
    Center-of-mass size [Ang]:            1.753312
      Cartesian components [Ang]:       [  0.701517,   1.124960,   1.147363]

  Decomposition into state-averaged NTOs
    H- 1 -> L+ 2:  0.6441 ( 83.0%)
    H- 1 -> L+ 0:  0.2266 ( 10.3%)
    H- 1 -> L+ 1: -0.0777 (  1.2%)
                   omega =  94.5%
  ----------------------------------------------------------------------------


  Excited state 4 (singlet, B2)                                    [converged]
  ----------------------------------------------------------------------------
  Term symbol:  4 (1) B2                                    R^2 =  1.63294e-07

  Total energy:                                            -78.5018020647 a.u.
  Excitation energy:                                               7.768837 eV

  Osc. strength:                                                      0.150163
  Trans. dip. moment [a.u.]:           [  -0.000000,    0.888229,   -0.000000]
  <i|r^2|0> [a.u.]:                    [   0.000000,    0.000000,    0.000000]

  Dip. moment [a.u.]:                  [  -0.000000,   -0.000000,   17.153066]
  Total dipole [Debye]:                                              43.598754
  <r^2> [a.u.]:                        [  31.272436,   20.180277,  806.507856]
  Total <r^2> [a.u.]:                                               857.960570

  V1^2 = 0.9522, V2^2 = 0.0478

  Important amplitudes:
      occ i      occ j       vir a       vir b          v   
    ---------------------------------------------------------
     1 (B2) A               7 (A1) A                 -0.5631
     1 (B2) A               8 (A1) A                  0.2767
    ---------------------------------------------------------

  Density matrix analysis:
  ------------------------
  NOs
    Occupation of frontier NOs:
       0.9822   0.9908
    Number of electrons: 18.000000
    Number of unpaired electrons: n_u =  2.31241, n_u,nl =  2.02468
    NO participation ratio (PR_NO):  2.738009
  
  
  Mulliken Population Analysis
  Atom      Charge (e)              h+              e-           Del q
  --------------------------------------------------------------------
   1 C       -0.339505        0.573594       -0.663273       -0.089679
   2 C       -0.479395        0.488817       -0.716284       -0.227466
   3 H        0.199800        0.081442       -0.000545        0.080897
   4 H        0.209650        0.068359        0.009317        0.077675
   5 H        0.199800        0.081442       -0.000545        0.080897
   6 H        0.209650        0.068359        0.009317        0.077675
   7 H       -1.000000        0.000211       -0.000211        0.000000
  --------------------------------------------------------------------
  Sum:       -1.000000        1.362224       -1.362224        0.000000
  
  Multipole moment analysis of the density matrix
    Molecular charge:                      -1.000000
    Number of electrons:                   18.000000
      Center of electronic charge [Ang]: [  0.000000,   0.000000,  -0.504278]
    Total nuclear charge:                  17.000000
      Center of nuclear charge [Ang]:    [ -0.000000,   0.000000,  -0.000000]
    Dipole moment [D]:                     43.598741
      Cartesian components [D]:          [ -0.000000,  -0.000000,  43.598741]
    RMS size of the density [Ang]:         3.618441
      Cartesian components [Ang]:        [  0.697502,   0.560310,   3.506089]
  
  Exciton analysis of the difference density matrix
    <r_h> [Ang]:                  [  0.000000,  -0.000000,   0.690170]
    <r_e> [Ang]:                  [  0.000000,   0.000000,   1.363792]
    |<r_e - r_h>| [Ang]:            0.673622
    Hole size [Ang]:                1.533211
      Cartesian components [Ang]: [  0.753811,   0.869558,   1.013101]
    Electron size [Ang]:            2.482094
      Cartesian components [Ang]: [  1.359843,   1.367149,   1.562856]

  Transition density matrix analysis:
  -----------------------------------
  
  CT numbers (Mulliken)
    omega =     0.9208
    <Phe> =    -0.0130
  
  Exciton analysis of the transition density matrix
    Trans. dipole moment [D]:             1.128827
      Cartesian components [D]:         [ -0.000000,   1.128827,  -0.000000]
    <r_h> [Ang]:                        [  0.000000,   0.000000,   0.643565]
    <r_e> [Ang]:                        [  0.000000,   0.000000,   1.623038]
    |<r_e - r_h>| [Ang]:                  0.979473
    Hole size [Ang]:                      1.253751
      Cartesian components [Ang]:       [  0.508529,   0.861421,   0.755807]
    Electron size [Ang]:                  2.745087
      Cartesian components [Ang]:       [  1.540754,   1.559762,   1.651884]
    RMS electron-hole separation [Ang]:   3.162508
      Cartesian components [Ang]:       [  1.621709,   1.770392,   2.058454]
    Covariance(r_h, r_e) [Ang^2]:         0.032650
    Correlation coefficient:              0.009487
    Center-of-mass size [Ang]:            1.514323
      Cartesian components [Ang]:       [  0.811651,   0.896593,   0.911326]

  Decomposition into state-averaged NTOs
    H- 0 -> L+ 6:  0.4846 ( 47.0%)
    H- 0 -> L+ 4: -0.3772 ( 28.5%)
    H- 0 -> L+ 7: -0.2864 ( 16.4%)
                   omega =  92.1%
  ----------------------------------------------------------------------------


  Excited state 5 (singlet, B2)                                    [converged]
  ----------------------------------------------------------------------------
  Term symbol:  5 (1) B2                                    R^2 =  1.08974e-07

  Total energy:                                            -78.4775440441 a.u.
  Excitation energy:                                               8.428931 eV

  Osc. strength:                                                      0.021788
  Trans. dip. moment [a.u.]:           [   0.000000,   -0.324818,    0.000000]
  <i|r^2|0> [a.u.]:                    [  -0.000000,   -0.000000,   -0.000000]

  Dip. moment [a.u.]:                  [  -0.000000,    0.000000,   19.342269]
  Total dipole [Debye]:                                              49.163152
  <r^2> [a.u.]:                        [  31.195735,   19.246040,  809.932089]
  Total <r^2> [a.u.]:                                               860.373864

  V1^2 = 0.9501, V2^2 = 0.0499

  Important amplitudes:
      occ i      occ j       vir a       vir b          v   
    ---------------------------------------------------------
     1 (B2) A               8 (A1) A                 -0.5701
     1 (B2) A               7 (A1) A                 -0.3385
    ---------------------------------------------------------

  Density matrix analysis:
  ------------------------
  NOs
    Occupation of frontier NOs:
       0.9842   0.9884
    Number of electrons: 18.000000
    Number of unpaired electrons: n_u =  2.32122, n_u,nl =  2.02656
    NO participation ratio (PR_NO):  2.759428
  
  
  Mulliken Population Analysis
  Atom      Charge (e)              h+              e-           Del q
  --------------------------------------------------------------------
   1 C       -0.417901        0.526820       -0.694895       -0.168075
   2 C       -0.315242        0.526536       -0.589850       -0.063314
   3 H        0.191041        0.085991       -0.013852        0.072138
   4 H        0.175531        0.083187       -0.039631        0.043556
   5 H        0.191041        0.085991       -0.013852        0.072138
   6 H        0.175531        0.083187       -0.039631        0.043556
   7 H       -1.000000        0.000191       -0.000191       -0.000000
  --------------------------------------------------------------------
  Sum:       -1.000000        1.391903       -1.391903        0.000000
  
  Multipole moment analysis of the density matrix
    Molecular charge:                      -1.000000
    Number of electrons:                   18.000000
      Center of electronic charge [Ang]: [  0.000000,  -0.000000,  -0.568638]
    Total nuclear charge:                  17.000000
      Center of nuclear charge [Ang]:    [ -0.000000,   0.000000,  -0.000000]
    Dipole moment [D]:                     49.163138
      Cartesian components [D]:          [ -0.000000,   0.000000,  49.163138]
    RMS size of the density [Ang]:         3.614085
      Cartesian components [Ang]:        [  0.696647,   0.547187,   3.503838]
  
  Exciton analysis of the difference density matrix
    <r_h> [Ang]:                  [  0.000000,  -0.000000,   0.619451]
    <r_e> [Ang]:                  [  0.000000,  -0.000000,   0.446414]
    |<r_e - r_h>| [Ang]:            0.173038
    Hole size [Ang]:                1.554200
      Cartesian components [Ang]: [  0.773123,   0.860269,   1.038150]
    Electron size [Ang]:            2.858041
      Cartesian components [Ang]: [  1.354961,   1.281149,   2.165903]

  Transition density matrix analysis:
  -----------------------------------
  
  CT numbers (Mulliken)
    omega =     0.9191
    <Phe> =    -0.0060
  
  Exciton analysis of the transition density matrix
    Trans. dipole moment [D]:             0.412802
      Cartesian components [D]:         [  0.000000,  -0.412802,   0.000000]
    <r_h> [Ang]:                        [  0.000000,  -0.000000,   0.635007]
    <r_e> [Ang]:                        [  0.000000,  -0.000000,   0.358316]
    |<r_e - r_h>| [Ang]:                  0.276691
    Hole size [Ang]:                      1.254932
      Cartesian components [Ang]:       [  0.509293,   0.861095,   0.757621]
    Electron size [Ang]:                  3.265408
      Cartesian components [Ang]:       [  1.542536,   1.473726,   2.472166]
    RMS electron-hole separation [Ang]:   3.497947
      Cartesian components [Ang]:       [  1.623553,   1.696124,   2.592850]
    Covariance(r_h, r_e) [Ang^2]:         0.039335
    Correlation coefficient:              0.009599
    Center-of-mass size [Ang]:            1.754737
      Cartesian components [Ang]:       [  0.812661,   0.858759,   1.296618]

  Decomposition into state-averaged NTOs
    H- 0 -> L+ 7: -0.6118 ( 74.9%)
    H- 0 -> L+ 4:  0.2076 (  8.6%)
    H- 0 -> L+ 6: -0.2002 (  8.0%)
                   omega =  91.9%
  ----------------------------------------------------------------------------


  Excited state 6 (singlet, B2)                                    [converged]
  ----------------------------------------------------------------------------
  Term symbol:  6 (1) B2                                    R^2 =  1.19789e-07

  Total energy:                                            -78.4322231138 a.u.
  Excitation energy:                                               9.662176 eV

  Osc. strength:                                                      0.011493
  Trans. dip. moment [a.u.]:           [   0.000000,   -0.220348,   -0.000000]
  <i|r^2|0> [a.u.]:                    [  -0.000000,    0.000000,   -0.000000]

  Dip. moment [a.u.]:                  [  -0.000000,    0.000000,   19.410132]
  Total dipole [Debye]:                                              49.335645
  <r^2> [a.u.]:                        [  29.596817,   17.393264,  813.260509]
  Total <r^2> [a.u.]:                                               860.250591

  V1^2 = 0.9531, V2^2 = 0.0469

  Important amplitudes:
      occ i      occ j       vir a       vir b          v   
    ---------------------------------------------------------
     1 (B2) A               9 (A1) A                  0.5741
     1 (B2) A               8 (A1) A                  0.2324
    ---------------------------------------------------------

  Density matrix analysis:
  ------------------------
  NOs
    Occupation of frontier NOs:
       0.9675   1.0077
    Number of electrons: 18.000000
    Number of unpaired electrons: n_u =  2.34971, n_u,nl =  2.03795
    NO participation ratio (PR_NO):  2.858942
  
  
  Mulliken Population Analysis
  Atom      Charge (e)              h+              e-           Del q
  --------------------------------------------------------------------
   1 C       -0.704197        0.494551       -0.948923       -0.454371
   2 C       -0.073835        0.505113       -0.327020        0.178094
   3 H        0.170277        0.089961       -0.038587        0.051374
   4 H        0.218739        0.092460       -0.005695        0.086765
   5 H        0.170277        0.089961       -0.038587        0.051374
   6 H        0.218739        0.092460       -0.005695        0.086765
   7 H       -1.000000        0.000287       -0.000287       -0.000000
  --------------------------------------------------------------------
  Sum:       -1.000000        1.364792       -1.364792       -0.000000
  
  Multipole moment analysis of the density matrix
    Molecular charge:                      -1.000000
    Number of electrons:                   18.000000
      Center of electronic charge [Ang]: [  0.000000,  -0.000000,  -0.570633]
    Total nuclear charge:                  17.000000
      Center of nuclear charge [Ang]:    [ -0.000000,   0.000000,  -0.000000]
    Dipole moment [D]:                     49.335630
      Cartesian components [D]:          [ -0.000000,   0.000000,  49.335630]
    RMS size of the density [Ang]:         3.613505
      Cartesian components [Ang]:        [  0.678559,   0.520182,   3.510895]
  
  Exciton analysis of the difference density matrix
    <r_h> [Ang]:                  [  0.000000,   0.000000,   0.631420]
    <r_e> [Ang]:                  [  0.000000,   0.000000,   0.428632]
    |<r_e - r_h>| [Ang]:            0.202788
    Hole size [Ang]:                1.566774
      Cartesian components [Ang]: [  0.788456,   0.857017,   1.048160]
    Electron size [Ang]:            2.885046
      Cartesian components [Ang]: [  1.247554,   1.128499,   2.343840]

  Transition density matrix analysis:
  -----------------------------------
  
  CT numbers (Mulliken)
    omega =     0.9222
    <Phe> =    -0.0046
  
  Exciton analysis of the transition density matrix
    Trans. dipole moment [D]:             0.280034
      Cartesian components [D]:         [  0.000000,  -0.280034,  -0.000000]
    <r_h> [Ang]:                        [  0.000000,  -0.000000,   0.637969]
    <r_e> [Ang]:                        [  0.000000,  -0.000000,   0.358952]
    |<r_e - r_h>| [Ang]:                  0.279017
    Hole size [Ang]:                      1.255350
      Cartesian components [Ang]:       [  0.511138,   0.853261,   0.765890]
    Electron size [Ang]:                  3.261461
      Cartesian components [Ang]:       [  1.391827,   1.279423,   2.657634]
    RMS electron-hole separation [Ang]:   3.498979
      Cartesian components [Ang]:       [  1.481769,   1.535123,   2.773196]
    Covariance(r_h, r_e) [Ang^2]:         0.024012
    Correlation coefficient:              0.005865
    Center-of-mass size [Ang]:            1.750789
      Cartesian components [Ang]:       [  0.741830,   0.770284,   1.386222]

  Decomposition into state-averaged NTOs
    H- 0 -> L+ 4:  0.5135 ( 52.7%)
    H- 0 -> L+ 6:  0.4215 ( 35.5%)
    H- 2 -> L+ 0:  0.1088 (  2.4%)
                   omega =  92.2%
  ----------------------------------------------------------------------------


  Excited state 7 (singlet, B2)                                    [converged]
  ----------------------------------------------------------------------------
  Term symbol:  7 (1) B2                                    R^2 =  9.41874e-07

  Total energy:                                            -78.4280981830 a.u.
  Excitation energy:                                               9.774421 eV

  Osc. strength:                                                      0.000208
  Trans. dip. moment [a.u.]:           [  -0.000000,    0.029497,   -0.000000]
  <i|r^2|0> [a.u.]:                    [   0.000000,   -0.000000,    0.000000]

  Dip. moment [a.u.]:                  [  -0.000000,    0.000000,   18.951312]
  Total dipole [Debye]:                                              48.169439
  <r^2> [a.u.]:                        [  24.855665,   17.421742,  793.499470]
  Total <r^2> [a.u.]:                                               835.776877

  V1^2 = 0.9581, V2^2 = 0.0419

  Important amplitudes:
      occ i      occ j       vir a       vir b          v   
    ---------------------------------------------------------
     5 (A1) A               2 (B2) A                 -0.4877
     5 (A1) A               4 (B2) A                 -0.3926
    ---------------------------------------------------------

  Density matrix analysis:
  ------------------------
  NOs
    Occupation of frontier NOs:
       0.9642   1.0298
    Number of electrons: 18.000000
    Number of unpaired electrons: n_u =  2.36368, n_u,nl =  2.04561
    NO participation ratio (PR_NO):  2.965179
  
  
  Mulliken Population Analysis
  Atom      Charge (e)              h+              e-           Del q
  --------------------------------------------------------------------
   1 C       -0.401134        0.407628       -0.558936       -0.151308
   2 C       -0.364434        0.440845       -0.553350       -0.112505
   3 H        0.184957        0.072114       -0.006059        0.066054
   4 H        0.197827        0.072045       -0.006192        0.065852
   5 H        0.184957        0.072114       -0.006059        0.066054
   6 H        0.197827        0.072045       -0.006192        0.065852
   7 H       -1.000000        0.000008       -0.000008       -0.000000
  --------------------------------------------------------------------
  Sum:       -1.000000        1.136797       -1.136797       -0.000000
  
  Multipole moment analysis of the density matrix
    Molecular charge:                      -1.000000
    Number of electrons:                   18.000000
      Center of electronic charge [Ang]: [  0.000000,  -0.000000,  -0.557145]
    Total nuclear charge:                  17.000000
      Center of nuclear charge [Ang]:    [ -0.000000,   0.000000,  -0.000000]
    Dipole moment [D]:                     48.169425
      Cartesian components [D]:          [ -0.000000,   0.000000,  48.169425]
    RMS size of the density [Ang]:         3.562568
      Cartesian components [Ang]:        [  0.621838,   0.520608,   3.469030]
  
  Exciton analysis of the difference density matrix
    <r_h> [Ang]:                  [  0.000000,  -0.000000,   0.619433]
    <r_e> [Ang]:                  [  0.000000,  -0.000000,   0.589554]
    |<r_e - r_h>| [Ang]:            0.029879
    Hole size [Ang]:                1.394099
      Cartesian components [Ang]: [  0.668429,   0.535293,   1.100080]
    Electron size [Ang]:            1.654886
      Cartesian components [Ang]: [  0.633325,   0.969893,   1.181887]

  Transition density matrix analysis:
  -----------------------------------
  
  CT numbers (Mulliken)
    omega =     0.9250
    <Phe> =    -0.0153
  
  Exciton analysis of the transition density matrix
    Trans. dipole moment [D]:             0.037487
      Cartesian components [D]:         [ -0.000000,   0.037487,  -0.000000]
    <r_h> [Ang]:                        [  0.000000,   0.000000,   0.617071]
    <r_e> [Ang]:                        [  0.000000,  -0.000000,   0.581577]
    |<r_e - r_h>| [Ang]:                  0.035494
    Hole size [Ang]:                      1.275180
      Cartesian components [Ang]:       [  0.582857,   0.423048,   1.052327]
    Electron size [Ang]:                  1.711213
      Cartesian components [Ang]:       [  0.634336,   1.011774,   1.225635]
    RMS electron-hole separation [Ang]:   2.120776
      Cartesian components [Ang]:       [  0.861746,   1.099772,   1.595490]
    Covariance(r_h, r_e) [Ang^2]:         0.028950
    Correlation coefficient:              0.013267
    Center-of-mass size [Ang]:            1.073806
      Cartesian components [Ang]:       [  0.430582,   0.546766,   0.817744]

  Decomposition into state-averaged NTOs
    H- 2 -> L+ 0:  0.6672 ( 89.0%)
    H- 0 -> L+ 4: -0.0772 (  1.2%)
    H- 0 -> L+ 6: -0.0743 (  1.1%)
                   omega =  92.5%
  ----------------------------------------------------------------------------


  Excited state 8 (singlet, B2)                                    [converged]
  ----------------------------------------------------------------------------
  Term symbol:  8 (1) B2                                    R^2 =  7.45197e-10

  Total energy:                                            -78.4053461010 a.u.
  Excitation energy:                                              10.393537 eV

  Osc. strength:                                                      0.000000
  Trans. dip. moment [a.u.]:           [  -0.000000,    0.000158,   -0.000000]
  <i|r^2|0> [a.u.]:                    [   0.000000,    0.000000,   -0.000000]

  Dip. moment [a.u.]:                  [  -0.000000,    0.000000,   -1.203142]
  Total dipole [Debye]:                                               3.058083
  <r^2> [a.u.]:                        [  29.303307,   29.119017,  439.059159]
  Total <r^2> [a.u.]:                                               497.481484

  V1^2 = 0.9561, V2^2 = 0.0439

  Important amplitudes:
      occ i      occ j       vir a       vir b          v   
    ---------------------------------------------------------
     6 (A1) A               5 (B2) A                  0.6894
     6 (A1) A   6 (A1) B   19 (A1) A    5 (B2) B     -0.0421
    ---------------------------------------------------------

  Density matrix analysis:
  ------------------------
  NOs
    Occupation of frontier NOs:
       0.9782   1.0013
    Number of electrons: 18.000000
    Number of unpaired electrons: n_u =  2.45027, n_u,nl =  2.06172
    NO participation ratio (PR_NO):  3.046207
  
  
  Mulliken Population Analysis
  Atom      Charge (e)              h+              e-           Del q
  --------------------------------------------------------------------
   1 C       -0.646285        0.103786       -0.500245       -0.396460
   2 C       -0.656246        0.105585       -0.509903       -0.404318
   3 H        0.072506       -0.002036       -0.044361       -0.046396
   4 H        0.078759       -0.002109       -0.051106       -0.053215
   5 H        0.072506       -0.002036       -0.044361       -0.046396
   6 H        0.078759       -0.002109       -0.051106       -0.053215
   7 H        0.000000        1.019013       -0.019013        1.000000
  --------------------------------------------------------------------
  Sum:       -1.000000        1.220094       -1.220094        0.000000
  
  Multipole moment analysis of the density matrix
    Molecular charge:                      -1.000000
    Number of electrons:                   18.000000
      Center of electronic charge [Ang]: [  0.000000,  -0.000000,   0.035371]
    Total nuclear charge:                  17.000000
      Center of nuclear charge [Ang]:    [ -0.000000,   0.000000,  -0.000000]
    Dipole moment [D]:                     3.058083
      Cartesian components [D]:          [ -0.000000,   0.000000,  -3.058083]
    RMS size of the density [Ang]:         2.781751
      Cartesian components [Ang]:        [  0.675186,   0.673059,   2.613284]
  
  Exciton analysis of the difference density matrix
    <r_h> [Ang]:                  [  0.000000,   0.000000,  -8.283040]
    <r_e> [Ang]:                  [  0.000000,  -0.000000,   0.430477]
    |<r_e - r_h>| [Ang]:            8.713516
    Hole size [Ang]:                4.141024
      Cartesian components [Ang]: [  0.706126,   0.700789,   4.019746]
    Electron size [Ang]:            2.938577
      Cartesian components [Ang]: [  1.215250,   1.945581,   1.836606]

  Transition density matrix analysis:
  -----------------------------------
  
  CT numbers (Mulliken)
    omega =     0.9487
    <Phe> =     0.0004
  
  Exciton analysis of the transition density matrix
    Trans. dipole moment [D]:             0.000200
      Cartesian components [D]:         [ -0.000000,   0.000200,  -0.000000]
    <r_h> [Ang]:                        [  0.000000,   0.000000, -10.033750]
    <r_e> [Ang]:                        [  0.000000,   0.000000,   0.615273]
    |<r_e - r_h>| [Ang]:                 10.649023
    Hole size [Ang]:                      1.126200
      Cartesian components [Ang]:       [  0.640763,   0.640885,   0.668592]
    Electron size [Ang]:                  2.749176
      Cartesian components [Ang]:       [  1.226977,   2.119030,   1.249883]
    RMS electron-hole separation [Ang]:  11.058957
      Cartesian components [Ang]:       [  1.384214,   2.213824,  10.746323]
    Covariance(r_h, r_e) [Ang^2]:        -0.036271
    Correlation coefficient:             -0.011715
    Center-of-mass size [Ang]:            1.479337
      Cartesian components [Ang]:       [  0.692107,   1.106913,   0.695822]

  Decomposition into state-averaged NTOs
    H- 1 -> L+ 3:  0.6154 ( 75.7%)
    H- 1 -> L+ 1:  0.3043 ( 18.5%)
                   omega =  94.9%
  ----------------------------------------------------------------------------


  Excited state 9 (singlet, B2)                                    [converged]
  ----------------------------------------------------------------------------
  Term symbol:  9 (1) B2                                    R^2 =  1.23654e-06

  Total energy:                                            -78.3856272341 a.u.
  Excitation energy:                                              10.930114 eV

  Osc. strength:                                                      0.186887
  Trans. dip. moment [a.u.]:           [  -0.000000,    0.835406,    0.000000]
  <i|r^2|0> [a.u.]:                    [  -0.000000,   -0.000000,    0.000000]

  Dip. moment [a.u.]:                  [  -0.000000,    0.000000,   18.708954]
  Total dipole [Debye]:                                              47.553427
  <r^2> [a.u.]:                        [  29.631607,   20.809855,  795.633526]
  Total <r^2> [a.u.]:                                               846.074987

  V1^2 = 0.9543, V2^2 = 0.0457

  Important amplitudes:
      occ i      occ j       vir a       vir b          v   
    ---------------------------------------------------------
     1 (B2) A              11 (A1) A                  0.6391
     1 (B2) A               9 (A1) A                 -0.2329
    ---------------------------------------------------------

  Density matrix analysis:
  ------------------------
  NOs
    Occupation of frontier NOs:
       0.9723   0.9921
    Number of electrons: 18.000000
    Number of unpaired electrons: n_u =  2.34012, n_u,nl =  2.03108
    NO participation ratio (PR_NO):  2.825488
  
  
  Mulliken Population Analysis
  Atom      Charge (e)              h+              e-           Del q
  --------------------------------------------------------------------
   1 C       -0.524319        0.597637       -0.872130       -0.274493
   2 C        0.286441        0.505040        0.033329        0.538370
   3 H        0.051534        0.046523       -0.113891       -0.067368
   4 H        0.067404        0.046660       -0.111230       -0.064570
   5 H        0.051534        0.046523       -0.113891       -0.067368
   6 H        0.067404        0.046660       -0.111230       -0.064570
   7 H       -1.000000        0.000049       -0.000049        0.000000
  --------------------------------------------------------------------
  Sum:       -1.000000        1.289093       -1.289093       -0.000000
  
  Multipole moment analysis of the density matrix
    Molecular charge:                      -1.000000
    Number of electrons:                   18.000000
      Center of electronic charge [Ang]: [  0.000000,  -0.000000,  -0.550020]
    Total nuclear charge:                  17.000000
      Center of nuclear charge [Ang]:    [ -0.000000,   0.000000,  -0.000000]
    Dipole moment [D]:                     47.553413
      Cartesian components [D]:          [ -0.000000,   0.000000,  47.553413]
    RMS size of the density [Ang]:         3.586082
      Cartesian components [Ang]:        [  0.678957,   0.568983,   3.474948]
  
  Exciton analysis of the difference density matrix
    <r_h> [Ang]:                  [  0.000000,   0.000000,   0.647770]
    <r_e> [Ang]:                  [  0.000000,  -0.000000,   0.720910]
    |<r_e - r_h>| [Ang]:            0.073140
    Hole size [Ang]:                1.498460
      Cartesian components [Ang]: [  0.730303,   0.874108,   0.973640]
    Electron size [Ang]:            2.247592
      Cartesian components [Ang]: [  1.237141,   1.441156,   1.201757]

  Transition density matrix analysis:
  -----------------------------------
  
  CT numbers (Mulliken)
    omega =     0.9228
    <Phe> =    -0.0129
  
  Exciton analysis of the transition density matrix
    Trans. dipole moment [D]:             1.061696
      Cartesian components [D]:         [ -0.000000,   1.061696,   0.000000]
    <r_h> [Ang]:                        [  0.000000,  -0.000000,   0.638925]
    <r_e> [Ang]:                        [  0.000000,  -0.000000,   0.742847]
    |<r_e - r_h>| [Ang]:                  0.103922
    Hole size [Ang]:                      1.254708
      Cartesian components [Ang]:       [  0.511067,   0.855703,   0.762151]
    Electron size [Ang]:                  2.465959
      Cartesian components [Ang]:       [  1.369680,   1.606056,   1.274958]
    RMS electron-hole separation [Ang]:   2.754057
      Cartesian components [Ang]:       [  1.457376,   1.810476,   1.477519]
    Covariance(r_h, r_e) [Ang^2]:         0.040608
    Correlation coefficient:              0.013125
    Center-of-mass size [Ang]:            1.390725
      Cartesian components [Ang]:       [  0.733226,   0.914531,   0.748418]

  Decomposition into state-averaged NTOs
    H- 0 -> L+ 8:  0.6699 ( 89.7%)
    H- 3 -> L+ 0:  0.0749 (  1.1%)
                   omega =  92.3%
  ----------------------------------------------------------------------------


  Excited state 10 (singlet, B2)                                    [converged]
  ----------------------------------------------------------------------------
  Term symbol:  10 (1) B2                                   R^2 =  6.35403e-06

  Total energy:                                            -78.3626411094 a.u.
  Excitation energy:                                              11.555599 eV

  Osc. strength:                                                      0.001038
  Trans. dip. moment [a.u.]:           [  -0.000000,    0.060552,   -0.000000]
  <i|r^2|0> [a.u.]:                    [   0.000000,    0.000000,    0.000000]

  Dip. moment [a.u.]:                  [  -0.000000,    0.000000,   19.524589]
  Total dipole [Debye]:                                              49.626565
  <r^2> [a.u.]:                        [  32.498452,   19.748222,  809.978226]
  Total <r^2> [a.u.]:                                               862.224900

  V1^2 = 0.9514, V2^2 = 0.0486

  Important amplitudes:
      occ i      occ j       vir a       vir b          v   
    ---------------------------------------------------------
     1 (B2) A              10 (A1) A                 -0.6617
     1 (B2) A              12 (A1) A                 -0.1684
    ---------------------------------------------------------

  Density matrix analysis:
  ------------------------
  NOs
    Occupation of frontier NOs:
       0.9829   0.9939
    Number of electrons: 18.000000
    Number of unpaired electrons: n_u =  2.31442, n_u,nl =  2.02482
    NO participation ratio (PR_NO):  2.732362
  
  
  Mulliken Population Analysis
  Atom      Charge (e)              h+              e-           Del q
  --------------------------------------------------------------------
   1 C        0.220061        0.486607       -0.016720        0.469887
   2 C       -1.031534        0.560238       -1.339844       -0.779606
   3 H        0.191372        0.091198       -0.018728        0.072469
   4 H        0.214365        0.096438       -0.014048        0.082390
   5 H        0.191372        0.091198       -0.018728        0.072469
   6 H        0.214365        0.096438       -0.014048        0.082390
   7 H       -1.000000        0.000269       -0.000269        0.000000
  --------------------------------------------------------------------
  Sum:       -1.000000        1.422387       -1.422387       -0.000000
  
  Multipole moment analysis of the density matrix
    Molecular charge:                      -1.000000
    Number of electrons:                   18.000000
      Center of electronic charge [Ang]: [  0.000000,  -0.000000,  -0.573998]
    Total nuclear charge:                  17.000000
      Center of nuclear charge [Ang]:    [ -0.000000,   0.000000,  -0.000000]
    Dipole moment [D]:                     49.626551
      Cartesian components [D]:          [ -0.000000,   0.000000,  49.626551]
    RMS size of the density [Ang]:         3.617220
      Cartesian components [Ang]:        [  0.711044,   0.554280,   3.503066]
  
  Exciton analysis of the difference density matrix
    <r_h> [Ang]:                  [  0.000000,  -0.000000,   0.621615]
    <r_e> [Ang]:                  [  0.000000,  -0.000000,   0.384456]
    |<r_e - r_h>| [Ang]:            0.237159
    Hole size [Ang]:                1.562796
      Cartesian components [Ang]: [  0.783073,   0.853730,   1.048940]
    Electron size [Ang]:            2.914521
      Cartesian components [Ang]: [  1.442683,   1.307549,   2.168735]

  Transition density matrix analysis:
  -----------------------------------
  
  CT numbers (Mulliken)
    omega =     0.9208
    <Phe> =    -0.0006
  
  Exciton analysis of the transition density matrix
    Trans. dipole moment [D]:             0.076955
      Cartesian components [D]:         [ -0.000000,   0.076955,  -0.000000]
    <r_h> [Ang]:                        [  0.000000,  -0.000000,   0.637566]
    <r_e> [Ang]:                        [  0.000000,  -0.000000,   0.281985]
    |<r_e - r_h>| [Ang]:                  0.355581
    Hole size [Ang]:                      1.254930
      Cartesian components [Ang]:       [  0.509031,   0.862432,   0.756272]
    Electron size [Ang]:                  3.364392
      Cartesian components [Ang]:       [  1.662698,   1.523044,   2.496979]
    RMS electron-hole separation [Ang]:   3.603330
      Cartesian components [Ang]:       [  1.738232,   1.747546,   2.628425]
    Covariance(r_h, r_e) [Ang^2]:         0.018215
    Correlation coefficient:              0.004314
    Center-of-mass size [Ang]:            1.797944
      Cartesian components [Ang]:       [  0.869756,   0.876497,   1.306859]

  Decomposition into state-averaged NTOs
    H- 0 -> L+ 5:  0.6730 ( 90.6%)
                   omega =  92.1%
  ----------------------------------------------------------------------------


--------------------------------------------------------------------------------
  Time of ADC calculation:  CPU 110.43 s  wall 33.30 s
================================================================================
 
 --------------------------------------------------------------
             Orbital Energies (a.u.) and Symmetries
 --------------------------------------------------------------
 
 Alpha MOs, Restricted
 -- Occupied --                  
-11.187 -11.185  -0.992  -0.732  -0.610  -0.517  -0.465  -0.327
  1 A1    2 A1    3 A1    4 A1    1 B1    5 A1    2 B1    1 B2                 
  0.022
  6 A1                                                                         
 -- Virtual --                   
  0.138   0.151   0.157   0.159   0.169   0.194   0.207   0.261
  7 A1    3 B1    2 B2    8 A1    3 B2    4 B1    9 A1   10 A1                 
  0.261   0.311   0.377   0.387   0.439   0.460   0.466   0.481
  4 B2   11 A1    5 B1   12 A1   13 A1    6 B1   14 A1    5 B2                 
  0.497   0.570   0.606   0.668   0.891   0.898   0.966   1.052
  7 B1    6 B2    8 B1   15 A1   16 A1    9 B1   17 A1   18 A1                 
  1.058   1.100   1.164   1.189   1.202   1.220   1.275   1.335
 19 A1   10 B1    1 A2   20 A1   21 A1   11 B1    7 B2    2 A2                 
  1.340   1.363   1.451   1.549   1.678   1.795   1.855   1.933
  8 B2    9 B2   22 A1   12 B1   23 A1   13 B1   14 B1   10 B2                 
  1.967   1.967   1.967   1.996   2.030   2.067   2.150   2.158
 24 A1   15 B1   11 B2   12 B2   25 A1    3 A2   26 A1   16 B1                 
  2.236   2.376   2.462   2.533   2.603   2.634   2.935   2.941
 13 B2   27 A1    4 A2   28 A1   17 B1   29 A1   30 A1   18 B1                 
  3.364   3.409
 31 A1   19 B1                                                                 
 
 Beta MOs, Restricted
 -- Occupied --                  
-11.187 -11.185  -0.992  -0.732  -0.610  -0.517  -0.465  -0.327
  1 A1    2 A1    3 A1    4 A1    1 B1    5 A1    2 B1    1 B2                 
  0.022
  6 A1                                                                         
 -- Virtual --                   
  0.138   0.151   0.157   0.159   0.169   0.194   0.207   0.261
  7 A1    3 B1    2 B2    8 A1    3 B2    4 B1    9 A1   10 A1                 
  0.261   0.311   0.377   0.387   0.439   0.460   0.466   0.481
  4 B2   11 A1    5 B1   12 A1   13 A1    6 B1   14 A1    5 B2                 
  0.497   0.570   0.606   0.668   0.891   0.898   0.966   1.052
  7 B1    6 B2    8 B1   15 A1   16 A1    9 B1   17 A1   18 A1                 
  1.058   1.100   1.164   1.189   1.202   1.220   1.275   1.335
 19 A1   10 B1    1 A2   20 A1   21 A1   11 B1    7 B2    2 A2                 
  1.340   1.363   1.451   1.549   1.678   1.795   1.855   1.933
  8 B2    9 B2   22 A1   12 B1   23 A1   13 B1   14 B1   10 B2                 
  1.967   1.967   1.967   1.996   2.030   2.067   2.150   2.158
 24 A1   15 B1   11 B2   12 B2   25 A1    3 A2   26 A1   16 B1                 
  2.236   2.376   2.462   2.533   2.603   2.634   2.935   2.941
 13 B2   27 A1    4 A2   28 A1   17 B1   29 A1   30 A1   18 B1                 
  3.364   3.409
 31 A1   19 B1                                                                 
 --------------------------------------------------------------
 
          Ground-State Mulliken Net Atomic Charges

     Atom                 Charge (a.u.)
  ----------------------------------------
      1 C                    -0.237540
      2 C                    -0.231432
      3 H                     0.110671
      4 H                     0.123815
      5 H                     0.110671
      6 H                     0.123815
      7 H                    -1.000000
  ----------------------------------------
  Sum of atomic charges =    -1.000000

 -----------------------------------------------------------------
                    Cartesian Multipole Moments
 -----------------------------------------------------------------
    Charge (ESU x 10^10)
                -4.8032
    Dipole Moment (Debye)
         X      -0.0000      Y       0.0000      Z      47.9916
       Tot      47.9916
    Quadrupole Moments (Debye-Ang)
        XX     -15.9091     XY      -0.0000     YY     -20.1210
        XZ       0.0000     YZ      -0.0000     ZZ    -500.9956
    Octopole Moments (Debye-Ang^2)
       XXX      -0.0000    XXY       0.0000    XYY      -0.0000
       YYY      -0.0000    XXZ      31.9666    XYZ      -0.0000
       YYZ      29.3562    XZZ      -0.0000    YZZ      -0.0000
       ZZZ    4950.8839
    Hexadecapole Moments (Debye-Ang^3)
      XXXX     -32.6884   XXXY      -0.0000   XXYY     -11.0031
      XYYY      -0.0000   YYYY     -27.6697   XXXZ      -0.0000
      XXYZ      -0.0000   XYYZ      -0.0000   YYYZ      -0.0000
      XXZZ    -418.3650   XYZZ      -0.0000   YYZZ    -422.5417
      XZZZ       0.0000   YZZZ       0.0000   ZZZZ  -51245.8320
 -----------------------------------------------------------------
 Total job time:  115.98s(wall), 156.03s(cpu) 
 Fri Mar 25 20:00:52 2022

        *************************************************************
        *                                                           *
        *  Thank you very much for using Q-Chem.  Have a nice day.  *
        *                                                           *
        *************************************************************


