/src/tsommerfeld/qchem/exe/qcprog.exe .input0.805556.5429.qcin.1 /src/jdavis/qchem.scratch/qchem5429/

                  Welcome to Q-Chem
     A Quantum Leap Into The Future Of Chemistry


 Q-Chem 5.4 (devel), Q-Chem, Inc., Pleasanton, CA (2021)

 E. Epifanovsky,  A. T. B. Gilbert,  Xintian Feng,  Joonho Lee,  Yuezhi Mao,  
 N. Mardirossian,  P. Pokhilko,  A. White,  M. Wormit,  M. P. Coons,  
 A. L. Dempwolff,  Zhengting Gan,  D. Hait,  P. R. Horn,  L. D. Jacobson,  
 I. Kaliman,  J. Kussmann,  A. W. Lange,  Ka Un Lao,  D. S. Levine,  Jie Liu,  
 S. C. McKenzie,  A. F. Morrison,  K. Nanda,  F. Plasser,  D. R. Rehn,  
 M. L. Vidal,  Zhi-Qiang You,  Ying Zhu,  B. Alam,  B. Albrecht,  
 A. Aldossary,  E. Alguire,  J. H. Andersen,  D. Barton,  K. Begam,  A. Behn,  
 Y. A. Bernard,  E. J. Berquist,  H. Burton,  A. Carreras,  K. Carter-Fenk,  
 R. Chakraborty,  A. D. Chien,  K. D. Closser,  V. Cofer-Shabica,  
 S. Dasgupta,  Jia Deng,  M. de Wergifosse,  M. Diedenhofen,  Hainam Do,  
 S. Ehlert,  Po-Tung Fang,  S. Fatehi,  Qingguo Feng,  T. Friedhoff,  
 J. Gayvert,  Qinghui Ge,  G. Gidofalvi,  M. Goldey,  J. Gomes,  
 C. Gonzalez-Espinoza,  S. Gulania,  A. Gunina,  M. W. D. Hanson-Heine,  
 P. H. P. Harbach,  A. W. Hauser,  M. F. Herbst,  M. Hernandez Vera,  
 M. Hodecker,  Z. C. Holden,  S. Houck,  Xunkun Huang,  Kerwin Hui,  
 B. C. Huynh,  M. Ivanov,  Hyunjun Ji,  Hanjie Jiang,  B. Kaduk,  S. Kaehler,  
 K. Khistyaev,  Jaehoon Kim,  P. Klunzinger,  Z. Koczor-Benda,  
 Joong Hoon Koh,  D. Kosenkov,  L. Koulias,  T. Kowalczyk,  C. M. Krauter,  
 K. Kue,  A. Kunitsa,  T. Kus,  A. Landau,  K. V. Lawler,  D. Lefrancois,  
 S. Lehtola,  Rain Li,  Yi-Pei Li,  Jiashu Liang,  M. Liebenthal,  
 Hung-Hsuan Lin,  You-Sheng Lin,  Fenglai Liu,  Kuan-Yu Liu,  
 M. Loipersberger,  A. Luenser,  A. Manjanath,  P. Manohar,  E. Mansoor,  
 S. F. Manzer,  Shan-Ping Mao,  A. V. Marenich,  T. Markovich,  S. Mason,  
 S. A. Maurer,  P. F. McLaughlin,  M. F. S. J. Menger,  J.-M. Mewes,  
 S. A. Mewes,  P. Morgante,  J. W. Mullinax,  K. J. Oosterbaan,  G. Paran,  
 Alexander C. Paul,  Suranjan K. Paul,  F. Pavosevic,  Zheng Pei,  S. Prager,  
 E. I. Proynov,  E. Ramos,  B. Rana,  A. E. Rask,  A. Rettig,  R. M. Richard,  
 F. Rob,  E. Rossomme,  T. Scheele,  M. Scheurer,  M. Schneider,  
 N. Sergueev,  S. M. Sharada,  W. Skomorowski,  D. W. Small,  C. J. Stein,  
 Yu-Chuan Su,  E. J. Sundstrom,  Zhen Tao,  J. Thirman,  T. Tsuchimochi,  
 N. M. Tubman,  S. P. Veccham,  O. Vydrov,  J. Wenzel,  J. Witte,  A. Yamada,  
 Kun Yao,  S. Yeganeh,  S. R. Yost,  A. Zech,  Igor Ying Zhang,  Xing Zhang,  
 Yu Zhang,  D. Zuev,  A. Aspuru-Guzik,  A. T. Bell,  N. A. Besley,  
 K. B. Bravaya,  B. R. Brooks,  D. Casanova,  Jeng-Da Chai,  S. Coriani,  
 C. J. Cramer,  A. E. DePrince, III,  R. A. DiStasio Jr.,  A. Dreuw,  
 B. D. Dunietz,  T. R. Furlani,  W. A. Goddard III,  S. Grimme,  
 S. Hammes-Schiffer,  T. Head-Gordon,  W. J. Hehre,  Chao-Ping Hsu,  
 T.-C. Jagau,  Yousung Jung,  A. Klamt,  Jing Kong,  D. S. Lambrecht,  
 WanZhen Liang,  N. J. Mayhall,  C. W. McCurdy,  J. B. Neaton,  
 C. Ochsenfeld,  J. A. Parkhill,  R. Peverati,  V. A. Rassolov,  Yihan Shao,  
 L. V. Slipchenko,  T. Stauch,  R. P. Steele,  J. E. Subotnik,  
 A. J. W. Thom,  A. Tkatchenko,  D. G. Truhlar,  T. Van Voorhis,  
 T. A. Wesolowski,  K. B. Whaley,  H. L. Woodcock III,  P. M. Zimmerman,  
 S. Faraji,  P. M. W. Gill,  M. Head-Gordon,  J. M. Herbert,  A. I. Krylov

 Additional authors for Version 5.4.1: 
 S. Kotaru,  Shaozhi Li,  Xiangyuan Li,  F. Matz,  A. Molle,  Haisheng Ren,  
 Yingli Su,  Hung-Yi Tsai,  C. Utku,  Fang Wang

 Contributors to earlier versions of Q-Chem not listed above: 
 R. D. Adamson,  B. Austin,  R. Baer,  J. Baker,  G. J. O. Beran,  
 K. Brandhorst,  S. T. Brown,  E. F. C. Byrd,  A. K. Chakraborty,  
 G. K. L. Chan,  Chun-Min Chang,  Yunqing Chen,  C.-L. Cheng,  
 Siu Hung Chien,  D. M. Chipman,  D. L. Crittenden,  H. Dachsel,  
 R. J. Doerksen,  A. D. Dutoi,  R. G. Edgar,  J. Fosso-Tande,  
 L. Fusti-Molnar,  D. Ghosh,  A. Ghysels,  A. Golubeva-Zadorozhnaya,  
 J. Gonthier,  M. S. Gordon,  S. R. Gwaltney,  G. Hawkins,  J. E. Herr,  
 A. Heyden,  S. Hirata,  E. G. Hohenstein,  G. Kedziora,  F. J. Keil,  
 C. Kelley,  Jihan Kim,  R. A. King,  R. Z. Khaliullin,  P. P. Korambath,  
 W. Kurlancheek,  A. Laurent,  A. M. Lee,  M. S. Lee,  S. V. Levchenko,  
 Ching Yeh Lin,  D. Liotard,  E. Livshits,  R. C. Lochan,  I. Lotan,  
 L. A. Martinez-Martinez,  P. E. Maslen,  N. Nair,  D. P. O'Neill,  
 D. Neuhauser,  E. Neuscamman,  C. M. Oana,  R. Olivares-Amaya,  R. Olson,  
 T. M. Perrine,  B. Peters,  P. A. Pieniazek,  A. Prociuk,  Y. M. Rhee,  
 J. Ritchie,  M. A. Rohrdanz,  E. Rosta,  N. J. Russ,  H. F. Schaefer III,  
 M. W. Schmidt,  N. E. Schultz,  S. Sharma,  N. Shenvi,  C. D. Sherrill,  
 A. C. Simmonett,  A. Sodt,  T. Stein,  D. Stuck,  K. S. Thanthiriwatte,  
 V. Vanovschi,  L. Vogt,  Tao Wang,  A. Warshel,  M. A. Watson,  
 C. F. Williams,  Q. Wu,  X. Xu,  Jun Yang,  W. Zhang,  Yan Zhao

 Please cite Q-Chem as follows:
 Y. Shao et al., Mol. Phys. 113, 184-215 (2015)
 DOI: 10.1080/00268976.2014.952696

 Q-Chem 5.4.1 for Intel X86 EM64T Linux

 Parts of Q-Chem use Armadillo 9.900.5 (Nocturnal Misbehaviour).
 http://arma.sourceforge.net/

 Q-Chem begins on Fri Mar 25 16:33:23 2022  

 Host: node01
0

     Scratch files written to /src/jdavis/qchem.scratch/qchem5429//
 Processing $rem in /src/tsommerfeld/qchem/config/preferences:
 Processing $rem in /home/jdavis/.qchemrc:

 Checking the input file for inconsistencies... 	...done.

--------------------------------------------------------------
User input:
--------------------------------------------------------------
$molecule
-1 1
C         0.0000000000    0.0000000000    0.8417902907
C         0.0000000000    0.0000000000   -0.4872097093
H         0.9623488518    0.0000000000    1.3363703127
H         0.9623489048    0.0000000000   -0.9817896873
H        -0.9623488518    0.0000000000    1.3363703127
H        -0.9623489048    0.0000000000   -0.9817896873
H         0.0000000000    0.0000000000   -10.4872097093
$end

$rem
   METHOD adc(2)
   BASIS gen
   PURECART 11
   EE_STATES [0,0,0,10]
   scf_convergence 8
   ADC_DAVIDSON_MAXITER 120
   ADC_DAVIDSON_MAXSUBSPACE 200
   adc_nguess_singles 100
   THRESH 14
   S2THRESH 14
   adc_davidson_conv 5
   adc_davidson_thresh 14
   THREADS 10
   MEM_TOTAL 95000
   STATE_ANALYSIS TRUE
$end
$basis
C 1
S   9   1.00
      6.665000D+03           6.920000D-04
      1.000000D+03           5.329000D-03
      2.280000D+02           2.707700D-02
      6.471000D+01           1.017180D-01
      2.106000D+01           2.747400D-01
      7.495000D+00           4.485640D-01
      2.797000D+00           2.850740D-01
      5.215000D-01           1.520400D-02
      1.596000D-01          -3.191000D-03
S   9   1.00
      6.665000D+03          -1.460000D-04
      1.000000D+03          -1.154000D-03
      2.280000D+02          -5.725000D-03
      6.471000D+01          -2.331200D-02
      2.106000D+01          -6.395500D-02
      7.495000D+00          -1.499810D-01
      2.797000D+00          -1.272620D-01
      5.215000D-01           5.445290D-01
      1.596000D-01           5.804960D-01
S   1   1.00
      1.596000D-01           1.000000D+00
S   1   1.00
      0.0469000              1.0000000
P   4   1.00
      9.439000D+00           3.810900D-02
      2.002000D+00           2.094800D-01
      5.456000D-01           5.085570D-01
      1.517000D-01           4.688420D-01
P   1   1.00
      1.517000D-01           1.000000D+00
P   1   1.00
      0.0488811      1.0000000
P   1   1.00
      0.0244406      1.0000000
D   1   1.00
      5.500000D-01           1.0000000
****
C 2
S   9   1.00
      6.665000D+03           6.920000D-04
      1.000000D+03           5.329000D-03
      2.280000D+02           2.707700D-02
      6.471000D+01           1.017180D-01
      2.106000D+01           2.747400D-01
      7.495000D+00           4.485640D-01
      2.797000D+00           2.850740D-01
      5.215000D-01           1.520400D-02
      1.596000D-01          -3.191000D-03
S   9   1.00
      6.665000D+03          -1.460000D-04
      1.000000D+03          -1.154000D-03
      2.280000D+02          -5.725000D-03
      6.471000D+01          -2.331200D-02
      2.106000D+01          -6.395500D-02
      7.495000D+00          -1.499810D-01
      2.797000D+00          -1.272620D-01
      5.215000D-01           5.445290D-01
      1.596000D-01           5.804960D-01
S   1   1.00
      1.596000D-01           1.000000D+00
S   1   1.00
      0.0469000              1.0000000
P   4   1.00
      9.439000D+00           3.810900D-02
      2.002000D+00           2.094800D-01
      5.456000D-01           5.085570D-01
      1.517000D-01           4.688420D-01
P   1   1.00
      1.517000D-01           1.000000D+00
P   1   1.00
      0.0488811      1.0000000
P   1   1.00
      0.0244406      1.0000000
D   1   1.00
      5.500000D-01           1.0000000
****
H 3
cc-pVDZ
****
H 4
cc-pVDZ
****
H 5
cc-pVDZ
****
H 6
cc-pVDZ
****
H 7
aug-cc-pVDZ
****
$end
--------------------------------------------------------------
 ----------------------------------------------------------------
             Standard Nuclear Orientation (Angstroms)
    I     Atom           X                Y                Z
 ----------------------------------------------------------------
    1      C       0.0000000000     0.0000000000     1.2918235242
    2      C       0.0000000000     0.0000000000    -0.0371764758
    3      H       0.9623488518     0.0000000000     1.7864035462
    4      H       0.9623489048     0.0000000000    -0.5317564538
    5      H      -0.9623488518     0.0000000000     1.7864035462
    6      H      -0.9623489048     0.0000000000    -0.5317564538
    7      H       0.0000000000     0.0000000000   -10.0371764758
 ----------------------------------------------------------------
 Molecular Point Group                 C2v   NOp =  4
 Largest Abelian Subgroup              C2v   NOp =  4
 Nuclear Repulsion Energy =          34.38697142 hartrees
 There are        9 alpha and        9 beta electrons
 Requested basis set is non-standard
 There are 33 shells and 67 basis functions
 Total memory of 95000 MB is distributed as follows: 
   MEM_STATIC is set to 192 MB
   QALLOC/CCMAN JOB total memory use is  94808 MB
 Warning: actual memory use might exceed 95000 MB

 Total QAlloc Memory Limit  95000 MB
 Mega-Array Size       188 MB
 MEM_STATIC part       192 MB

                       Distance Matrix (Angstroms)
             C (  1)   C (  2)   H (  3)   H (  4)   H (  5)   H (  6)
   C (  2)  1.329000
   H (  3)  1.082000  2.061931
   H (  4)  2.061931  1.082000  2.318160
   H (  5)  1.082000  2.061931  1.924698  3.013026
   H (  6)  2.061931  1.082000  3.013026  1.924698  2.318160
   H (  7) 11.329000 10.000000 11.862679  9.554011 11.862679  9.554011

 
 A cutoff of  1.0D-14 yielded    495 shell pairs
 There are      2107 function pairs (      2244 Cartesian)
 Smallest overlap matrix eigenvalue = 1.71E-04

 Scale SEOQF with 1.000000e-01/1.000000e-01/1.000000e-02

 Standard Electronic Orientation quadrupole field applied
 Nucleus-field energy     =    -0.0000000011 hartrees
 ================ Generating on-the-fly SAD Guess ================
Attempting to make child job directory: /src/jdavis/qchem.scratch/qchem5429//Frg1/
Attempting to make child job directory: /src/jdavis/qchem.scratch/qchem5429//Frg2/
Creating input file /src/jdavis/qchem.scratch/qchem5429/Frg1.input
using default PutDataFrgm: nothing
calling putenv with: QCSCRATCH=/src/jdavis/qchem.scratch/qchem5429/ 
Spawning Job For Fragment 0
Done Job For Fragment 0
calling putenv with: QCSCRATCH=/src/jdavis/qchem.scratch 
calling putenv with: QCTHREADS=1 
Creating input file /src/jdavis/qchem.scratch/qchem5429/Frg2.input
using default PutDataFrgm: nothing
calling putenv with: QCSCRATCH=/src/jdavis/qchem.scratch/qchem5429/ 
Spawning Job For Fragment 1
Done Job For Fragment 1
calling putenv with: QCSCRATCH=/src/jdavis/qchem.scratch 
calling putenv with: QCTHREADS=1 
 Time for running child jobs:  CPU 1.81 s  wall 54.32 s
 ============= Method Specific SAD Guess Constructed =============
 Guess from on-the-fly superposition of atomic densities
 Warning: Energy on first SCF cycle will be non-variational
 A restricted Hartree-Fock SCF calculation will be
 performed using Pulay DIIS extrapolation
 SCF converges when DIIS error is below 1.0E-08
 using 10 threads for integral computing
 -------------------------------------------------------
 OpenMP Integral computing Module                
 Release: version 1.0, May 2013, Q-Chem Inc. Pittsburgh 
 -------------------------------------------------------
 ---------------------------------------
  Cycle       Energy         DIIS Error
 ---------------------------------------
    1     -78.7999192726      7.36E-02
    2     -78.4465496612      6.48E-03
    3     -78.4845775616      1.48E-03
    4     -78.4865216559      4.80E-04
    5     -78.4867000113      7.76E-05
    6     -78.4867097467      1.87E-05
    7     -78.4867106594      9.45E-06
    8     -78.4867110116      2.59E-06
    9     -78.4867111224      1.21E-06
   10     -78.4867111616      2.99E-07
   11     -78.4867111640      9.31E-08
   12     -78.4867111641      1.83E-08
   13     -78.4867111641      2.46E-09 Convergence criterion met
 ---------------------------------------
 SCF time:  CPU 12.51 s  wall 1.26 s
 SCF   energy in the final basis set = -78.48671116
 Total energy in the final basis set = -78.48671116
================================================================================
|                                                                              |
|                                 A D C  M A N                                 |
|                                                                              |
 ------------------------------------------------------------------------------ 
|                                                                              |
| Components:                                                                  |
|                                                                              |
| - libvmm - 1.3-trunk                                                         |
|   Authors:                                                                   |
|   Evgeny Epifanovsky, Ilya Kaliman                                           |
|                                                                              |
| - libtensor - 2.5-trunk                                                      |
|   Authors:                                                                   |
|   Evgeny Epifanovsky, Michael Wormit, Dmitry Zuev, Sam Manzer,               |
|   Ilya Kaliman                                                               |
|                                                                              |
| - libwfa - 1.1-trunk                                                         |
|   Authors:                                                                   |
|   Felix Plasser, Stefanie Mewes (Baeppler), Benjamin Thomitzni,              |
|   Michael Wormit, Feng Chen, Anna I. Krylov, Pavel Pokhilko                  |
|                                                                              |
| - libadc - 1.1-trunk                                                         |
|   Authors:                                                                   |
|   Michael Wormit, Adrian L. Dempwolff, Philipp H. P. Harbach,                |
|   Caroline Krauter, Dirk Rehn, Matthias Schneider, Jan Wenzel                |
|                                                                              |
| - adcman - 2.6-trunk                                                         |
|   Authors:                                                                   |
|   Michael Wormit, Adrian L. Dempwolff, Philipp H. P. Harbach,                |
|   Caroline Krauter, Daniel Lefrancois, Jan-Michael Mewes, Dirk Rehn,         |
|   Matthias Schneider, Jan Wenzel, Andreas Dreuw                              |
|                                                                              |
| Authors of earlier versions of ADCMAN:                                       |
| Andreas Dreuw, Jan Hendrik Starcke, Dirk Rehn, Michael Wormit                |
|                                                                              |
================================================================================

 
 Alpha MOs, Restricted
 -- Occupied --                  
-11.187 -11.185  -0.992  -0.732  -0.611  -0.517  -0.465  -0.327
  1 A1    2 A1    3 A1    4 A1    1 B1    5 A1    2 B1    1 B2                 
  0.021
  6 A1                                                                         
 -- Virtual --                   
  0.094   0.095   0.101   0.123   0.124   0.134   0.157   0.192
  7 A1    3 B1    2 B2    4 B1    3 B2    8 A1    9 A1    4 B2                 
  0.243   0.249   0.271   0.271   0.278   0.286   0.316   0.356
 10 A1    5 B1    6 B1   11 A1    5 B2   12 A1   13 A1    6 B2                 
  0.392   0.401   0.554   0.598   0.789   0.875   0.914   0.942
  7 B1   14 A1    8 B1   15 A1   16 A1    9 B1   17 A1   10 B1                 
  0.975   0.979   1.025   1.038   1.057   1.081   1.117   1.164
  7 B2   18 A1    8 B2   19 A1   20 A1   21 A1   11 B1    1 A2                 
  1.334   1.334   1.367   1.398   1.660   1.665   1.755   1.906
  9 B2    2 A2   22 A1   12 B1   23 A1   13 B1   14 B1   10 B2                 
  1.966   1.966   1.966   1.966   1.990   2.057   2.067   2.107
 24 A1   15 B1   11 B2   25 A1   12 B2   26 A1    3 A2   16 B1                 
  2.223   2.365   2.462   2.498   2.616   2.620   2.849   2.855
 13 B2   27 A1    4 A2   28 A1   17 B1   29 A1   18 B1   30 A1                 
  3.294   3.390
 31 A1   19 B1                                                                 
 
 Beta MOs, Restricted
 -- Occupied --                  
-11.187 -11.185  -0.992  -0.732  -0.611  -0.517  -0.465  -0.327
  1 A1    2 A1    3 A1    4 A1    1 B1    5 A1    2 B1    1 B2                 
  0.021
  6 A1                                                                         
 -- Virtual --                   
  0.094   0.095   0.101   0.123   0.124   0.134   0.157   0.192
  7 A1    3 B1    2 B2    4 B1    3 B2    8 A1    9 A1    4 B2                 
  0.243   0.249   0.271   0.271   0.278   0.286   0.316   0.356
 10 A1    5 B1    6 B1   11 A1    5 B2   12 A1   13 A1    6 B2                 
  0.392   0.401   0.554   0.598   0.789   0.875   0.914   0.942
  7 B1   14 A1    8 B1   15 A1   16 A1    9 B1   17 A1   10 B1                 
  0.975   0.979   1.025   1.038   1.057   1.081   1.117   1.164
  7 B2   18 A1    8 B2   19 A1   20 A1   21 A1   11 B1    1 A2                 
  1.334   1.334   1.367   1.398   1.660   1.665   1.755   1.906
  9 B2    2 A2   22 A1   12 B1   23 A1   13 B1   14 B1   10 B2                 
  1.966   1.966   1.966   1.966   1.990   2.057   2.067   2.107
 24 A1   15 B1   11 B2   25 A1   12 B2   26 A1    3 A2   16 B1                 
  2.223   2.365   2.462   2.498   2.616   2.620   2.849   2.855
 13 B2   27 A1    4 A2   28 A1   17 B1   29 A1   18 B1   30 A1                 
  3.294   3.390
 31 A1   19 B1                                                                 

--------------------------------------------------------------------------------
                                   HF Summary                                   
--------------------------------------------------------------------------------
  Energy:                                                  -78.4867111641 a.u.
  Dip. moment [a.u.]:                  [   0.000000,    0.000000,   18.856918]
  Total dipole [Debye]:                                              47.929513
  <r^2> [a.u.]:                        [  25.091965,   14.956371,  792.290433]
  Total <r^2> [a.u.]:                                               832.338770
--------------------------------------------------------------------------------

--------------------------------------------------------------------------------
                                 MP(2) Summary                                  
--------------------------------------------------------------------------------
  MP energy contribution:                                   -0.2979353867 a.u.
  Total energy:                                            -78.7846465508 a.u.
  Dip. moment [a.u.]:                  [   0.000000,    0.000000,   18.860949]
  Total dipole [Debye]:                                              47.939760
  <r^2> [a.u.]:                        [  25.082513,   14.767319,  792.299328]
  Total <r^2> [a.u.]:                                               832.149160

  Density matrix analysis:
  ------------------------
  NOs
    Occupation of frontier NOs:
       0.0446   1.9372
    Number of electrons: 18.000000
    Number of unpaired electrons: n_u =  0.43172, n_u,nl =  0.04666
    NO participation ratio (PR_NO): 15.333039
  
  
  Mulliken Population Analysis
  Atom      Charge (e)              h+              e-           Del q
  --------------------------------------------------------------------
   1 C       -0.169163        0.091037       -0.100893       -0.009856
   2 C       -0.175667        0.085108       -0.104082       -0.018975
   3 H        0.079558        0.017696       -0.010500        0.007196
   4 H        0.091817        0.017485       -0.010330        0.007156
   5 H        0.079558        0.017696       -0.010500        0.007196
   6 H        0.091817        0.017485       -0.010330        0.007156
   7 H       -0.997919        0.022090       -0.021962        0.000128
  --------------------------------------------------------------------
  Sum:       -1.000000        0.268597       -0.268597        0.000000
  
  Multipole moment analysis of the density matrix
    Molecular charge:                      -1.000000
    Number of electrons:                   18.000000
      Center of electronic charge [Ang]: [ -0.000000,  -0.000000,  -0.554488]
    Total nuclear charge:                  17.000000
      Center of nuclear charge [Ang]:    [ -0.000000,   0.000000,  -0.000000]
    Dipole moment [D]:                     47.939746
      Cartesian components [D]:          [  0.000000,   0.000000,  47.939746]
    RMS size of the density [Ang]:         3.555053
      Cartesian components [Ang]:        [  0.624670,   0.479309,   3.466764]
  
  Exciton analysis of the difference density matrix
    <r_h> [Ang]:                  [ -0.000000,  -0.000000,  -0.237419]
    <r_e> [Ang]:                  [ -0.000000,  -0.000000,  -0.245361]
    |<r_e - r_h>| [Ang]:            0.007943
    Hole size [Ang]:                3.262827
      Cartesian components [Ang]: [  0.739429,   0.756548,   3.086571]
    Electron size [Ang]:            3.231800
      Cartesian components [Ang]: [  0.732735,   0.612590,   3.087452]
--------------------------------------------------------------------------------
  Starting Davidson for singlet states of irrep B2 ... 
--------------------------------------------------------------------------------
   It NVec Conv  Avg. Norm  Max. Norm  Conv. states           Remark
--------------------------------------------------------------------------------
       100    0  9.956e-02  4.589e-01  0.0519 n n n n n n n n Guess.
    1  110    0  5.309e-03  2.779e-02  0.0305 n n n n n n n n 
    2  120    0  3.242e-02  2.786e-01  0.0305 n n n n n n n n 
    3  130    3  9.485e-03  7.957e-02  0.0305 y y y n n n n n 
    4  140    4  2.803e-03  2.719e-02  0.0305 y y y n n y n n 
    5  150    5  4.100e-04  4.036e-03  0.0305 y y y n n y y n 
    6  160    8  1.708e-05  1.680e-04  0.0305 y y y y y y y n 
    7  170   10  5.884e-07  5.842e-06  0.0305 y y y y y y y y Converged.
--------------------------------------------------------------------------------
  Davidson Summary: 
 ------------------------------------------------------------
  State  0: excitation energy =   0.0305 a.u.   (converged)
  State  1: excitation energy =   0.0408 a.u.   (converged)
  State  2: excitation energy =   0.0840 a.u.   (converged)
  State  3: excitation energy =   0.1528 a.u.   (converged)
  State  4: excitation energy =   0.1753 a.u.   (converged)
  State  5: excitation energy =   0.1909 a.u.   (converged)
  State  6: excitation energy =   0.1935 a.u.   (converged)
  State  7: excitation energy =   0.2158 a.u.   (converged)
  State  8: excitation energy =   0.2160 a.u.   (converged)
  State  9: excitation energy =   0.2383 a.u.   (converged)
 ------------------------------------------------------------


--------------------------------------------------------------------------------
                   State-averaged natural transition orbitals
--------------------------------------------------------------------------------
--------------------------------------------------------------------------------

--------------------------------------------------------------------------------
                             Excited State Summary
--------------------------------------------------------------------------------
--------------------------------------------------------------------------------

  Excited state 1 (singlet, B2)                                    [converged]
  ----------------------------------------------------------------------------
  Term symbol:  1 (1) B2                                    R^2 =  1.06571e-12

  Total energy:                                            -78.7541610935 a.u.
  Excitation energy:                                               0.829551 eV

  Osc. strength:                                                      0.000004
  Trans. dip. moment [a.u.]:           [   0.000000,   -0.013582,    0.000000]
  <i|r^2|0> [a.u.]:                    [   0.000000,    0.000000,    0.000000]

  Dip. moment [a.u.]:                  [  -0.000000,    0.000000,   -1.284293]
  Total dipole [Debye]:                                               3.264347
  <r^2> [a.u.]:                        [  38.142026,   57.123904,  447.109717]
  Total <r^2> [a.u.]:                                               542.375647

  V1^2 = 0.9740, V2^2 = 0.0260

  Important amplitudes:
      occ i      occ j       vir a       vir b          v   
    ---------------------------------------------------------
     6 (A1) A               2 (B2) A                 -0.6439
     6 (A1) A               3 (B2) A                 -0.2675
    ---------------------------------------------------------

  Density matrix analysis:
  ------------------------
  NOs
    Occupation of frontier NOs:
       0.9978   1.0017
    Number of electrons: 18.000000
    Number of unpaired electrons: n_u =  2.40866, n_u,nl =  2.04703
    NO participation ratio (PR_NO):  2.894438
  
  
  Mulliken Population Analysis
  Atom      Charge (e)              h+              e-           Del q
  --------------------------------------------------------------------
   1 C       -0.656373        0.013918       -0.501128       -0.487210
   2 C       -0.651346        0.042563       -0.518242       -0.475679
   3 H        0.073560       -0.000589       -0.005408       -0.005997
   4 H        0.078573       -0.000822       -0.012422       -0.013244
   5 H        0.073560       -0.000589       -0.005408       -0.005997
   6 H        0.078573       -0.000822       -0.012422       -0.013244
   7 H        0.003452        1.023410       -0.022038        1.001371
  --------------------------------------------------------------------
  Sum:       -1.000000        1.077070       -1.077070       -0.000000
  
  Multipole moment analysis of the density matrix
    Molecular charge:                      -1.000000
    Number of electrons:                   18.000000
      Center of electronic charge [Ang]: [  0.000000,  -0.000000,   0.037757]
    Total nuclear charge:                  17.000000
      Center of nuclear charge [Ang]:    [ -0.000000,   0.000000,  -0.000000]
    Dipole moment [D]:                     3.264346
      Cartesian components [D]:          [ -0.000000,   0.000000,  -3.264346]
    RMS size of the density [Ang]:         2.904546
      Cartesian components [Ang]:        [  0.770312,   0.942701,   2.637105]
  
  Exciton analysis of the difference density matrix
    <r_h> [Ang]:                  [ -0.000000,  -0.000000,  -9.549271]
    <r_e> [Ang]:                  [  0.000000,   0.000000,   0.348325]
    |<r_e - r_h>| [Ang]:            9.897596
    Hole size [Ang]:                2.517236
      Cartesian components [Ang]: [  0.738800,   0.739808,   2.289833]
    Electron size [Ang]:            4.697362
      Cartesian components [Ang]: [  1.985241,   3.399948,   2.562105]

  Transition density matrix analysis:
  -----------------------------------
  
  CT numbers (Mulliken)
    omega =     0.9680
    <Phe> =     0.0003
  
  Exciton analysis of the transition density matrix
    Trans. dipole moment [D]:             0.017261
      Cartesian components [D]:         [  0.000000,  -0.017261,   0.000000]
    <r_h> [Ang]:                        [ -0.000000,  -0.000000, -10.029699]
    <r_e> [Ang]:                        [ -0.000000,   0.000000,   0.638242]
    |<r_e - r_h>| [Ang]:                 10.667940
    Hole size [Ang]:                      1.140005
      Cartesian components [Ang]:       [  0.644158,   0.644071,   0.685451]
    Electron size [Ang]:                  4.559383
      Cartesian components [Ang]:       [  2.030365,   3.516738,   2.073197]
    RMS electron-hole separation [Ang]:  11.657484
      Cartesian components [Ang]:       [  2.130099,   3.575229,  10.889323]
    Covariance(r_h, r_e) [Ang^2]:        -0.002199
    Correlation coefficient:             -0.000423
    Center-of-mass size [Ang]:            2.349637
      Cartesian components [Ang]:       [  1.065049,   1.787616,   1.091281]

  Decomposition into state-averaged NTOs
    H- 0 -> L+ 0: -0.5130 ( 52.6%)
    H- 0 -> L+ 1: -0.4292 ( 36.8%)
    H- 0 -> L+ 2:  0.1911 (  7.3%)
                   omega =  96.8%
  ----------------------------------------------------------------------------


  Excited state 2 (singlet, B2)                                    [converged]
  ----------------------------------------------------------------------------
  Term symbol:  2 (1) B2                                    R^2 =  1.68165e-12

  Total energy:                                            -78.7438891164 a.u.
  Excitation energy:                                               1.109066 eV

  Osc. strength:                                                      0.000308
  Trans. dip. moment [a.u.]:           [   0.000000,    0.106415,    0.000000]
  <i|r^2|0> [a.u.]:                    [  -0.000000,   -0.000000,    0.000000]

  Dip. moment [a.u.]:                  [  -0.000000,   -0.000000,   -1.232041]
  Total dipole [Debye]:                                               3.131536
  <r^2> [a.u.]:                        [  33.642235,   43.060120,  462.545906]
  Total <r^2> [a.u.]:                                               539.248261

  V1^2 = 0.9681, V2^2 = 0.0319

  Important amplitudes:
      occ i      occ j       vir a       vir b          v   
    ---------------------------------------------------------
     6 (A1) A               3 (B2) A                 -0.6315
     6 (A1) A               2 (B2) A                  0.2574
    ---------------------------------------------------------

  Density matrix analysis:
  ------------------------
  NOs
    Occupation of frontier NOs:
       0.9950   1.0015
    Number of electrons: 18.000000
    Number of unpaired electrons: n_u =  2.41136, n_u,nl =  2.04627
    NO participation ratio (PR_NO):  2.908640
  
  
  Mulliken Population Analysis
  Atom      Charge (e)              h+              e-           Del q
  --------------------------------------------------------------------
   1 C       -0.628314        0.038802       -0.497953       -0.459151
   2 C       -0.661424        0.057843       -0.543599       -0.485756
   3 H        0.068877        0.001647       -0.012328       -0.010681
   4 H        0.074372        0.001339       -0.018784       -0.017445
   5 H        0.068877        0.001647       -0.012328       -0.010681
   6 H        0.074372        0.001339       -0.018784       -0.017445
   7 H        0.003239        1.022524       -0.021366        1.001158
  --------------------------------------------------------------------
  Sum:       -1.000000        1.125141       -1.125141       -0.000000
  
  Multipole moment analysis of the density matrix
    Molecular charge:                      -1.000000
    Number of electrons:                   18.000000
      Center of electronic charge [Ang]: [  0.000000,   0.000000,   0.036220]
    Total nuclear charge:                  17.000000
      Center of nuclear charge [Ang]:    [ -0.000000,   0.000000,  -0.000000]
    Dipole moment [D]:                     3.131535
      Cartesian components [D]:          [ -0.000000,  -0.000000,  -3.131535]
    RMS size of the density [Ang]:         2.896178
      Cartesian components [Ang]:        [  0.723448,   0.818469,   2.682271]
  
  Exciton analysis of the difference density matrix
    <r_h> [Ang]:                  [ -0.000000,  -0.000000,  -9.106429]
    <r_e> [Ang]:                  [  0.000000,  -0.000000,   0.343722]
    |<r_e - r_h>| [Ang]:            9.450152
    Hole size [Ang]:                3.236413
      Cartesian components [Ang]: [  0.742439,   0.747483,   3.060135]
    Electron size [Ang]:            4.514998
      Cartesian components [Ang]: [  1.637555,   2.756870,   3.178568]

  Transition density matrix analysis:
  -----------------------------------
  
  CT numbers (Mulliken)
    omega =     0.9594
    <Phe> =     0.0004
  
  Exciton analysis of the transition density matrix
    Trans. dipole moment [D]:             0.135239
      Cartesian components [D]:         [  0.000000,   0.135239,   0.000000]
    <r_h> [Ang]:                        [ -0.000000,  -0.000000, -10.029896]
    <r_e> [Ang]:                        [ -0.000000,   0.000000,   0.607249]
    |<r_e - r_h>| [Ang]:                 10.637146
    Hole size [Ang]:                      1.139007
      Cartesian components [Ang]:       [  0.644123,   0.644030,   0.683862]
    Electron size [Ang]:                  4.460755
      Cartesian components [Ang]:       [  1.676863,   2.902382,   2.943237]
    RMS electron-hole separation [Ang]:  11.590713
      Cartesian components [Ang]:       [  1.796319,   2.972971,  11.057998]
    Covariance(r_h, r_e) [Ang^2]:        -0.000052
    Correlation coefficient:             -0.000010
    Center-of-mass size [Ang]:            2.301932
      Cartesian components [Ang]:       [  0.898160,   1.486492,   1.510809]

  Decomposition into state-averaged NTOs
    H- 0 -> L+ 1:  0.4814 ( 46.4%)
    H- 0 -> L+ 0: -0.4073 ( 33.2%)
    H- 0 -> L+ 3:  0.2864 ( 16.4%)
                   omega =  95.9%
  ----------------------------------------------------------------------------


  Excited state 3 (singlet, B2)                                    [converged]
  ----------------------------------------------------------------------------
  Term symbol:  3 (1) B2                                    R^2 =  2.79518e-12

  Total energy:                                            -78.7006217396 a.u.
  Excitation energy:                                               2.286431 eV

  Osc. strength:                                                      0.000212
  Trans. dip. moment [a.u.]:           [   0.000000,    0.061539,    0.000000]
  <i|r^2|0> [a.u.]:                    [  -0.000000,   -0.000000,    0.000000]

  Dip. moment [a.u.]:                  [  -0.000000,   -0.000000,   -1.251708]
  Total dipole [Debye]:                                               3.181524
  <r^2> [a.u.]:                        [  30.014154,   29.994858,  450.486546]
  Total <r^2> [a.u.]:                                               510.495558

  V1^2 = 0.9448, V2^2 = 0.0552

  Important amplitudes:
      occ i      occ j       vir a       vir b          v   
    ---------------------------------------------------------
     6 (A1) A               4 (B2) A                  0.6614
     6 (A1) A               3 (B2) A                 -0.1280
    ---------------------------------------------------------

  Density matrix analysis:
  ------------------------
  NOs
    Occupation of frontier NOs:
       0.9901   1.0006
    Number of electrons: 18.000000
    Number of unpaired electrons: n_u =  2.41467, n_u,nl =  2.04362
    NO participation ratio (PR_NO):  2.929172
  
  
  Mulliken Population Analysis
  Atom      Charge (e)              h+              e-           Del q
  --------------------------------------------------------------------
   1 C       -0.557296        0.136704       -0.524837       -0.388133
   2 C       -0.569586        0.166637       -0.560556       -0.393919
   3 H        0.028072        0.005313       -0.056798       -0.051485
   4 H        0.034299        0.005028       -0.062547       -0.057519
   5 H        0.028072        0.005313       -0.056798       -0.051485
   6 H        0.034299        0.005028       -0.062547       -0.057519
   7 H        0.002140        1.019119       -0.019060        1.000059
  --------------------------------------------------------------------
  Sum:       -1.000000        1.343143       -1.343143       -0.000000
  
  Multipole moment analysis of the density matrix
    Molecular charge:                      -1.000000
    Number of electrons:                   18.000000
      Center of electronic charge [Ang]: [  0.000000,   0.000000,   0.036799]
    Total nuclear charge:                  17.000000
      Center of nuclear charge [Ang]:    [ -0.000000,   0.000000,  -0.000000]
    Dipole moment [D]:                     3.181523
      Cartesian components [D]:          [ -0.000000,  -0.000000,  -3.181523]
    RMS size of the density [Ang]:         2.817889
      Cartesian components [Ang]:        [  0.683326,   0.683106,   2.647060]
  
  Exciton analysis of the difference density matrix
    <r_h> [Ang]:                  [ -0.000000,  -0.000000,  -7.497030]
    <r_e> [Ang]:                  [  0.000000,  -0.000000,   0.427038]
    |<r_e - r_h>| [Ang]:            7.924068
    Hole size [Ang]:                4.697590
      Cartesian components [Ang]: [  0.724197,   0.710484,   4.586731]
    Electron size [Ang]:            3.321100
      Cartesian components [Ang]: [  1.246052,   1.918212,   2.407805]

  Transition density matrix analysis:
  -----------------------------------
  
  CT numbers (Mulliken)
    omega =     0.9274
    <Phe> =     0.0001
  
  Exciton analysis of the transition density matrix
    Trans. dipole moment [D]:             0.078208
      Cartesian components [D]:         [  0.000000,   0.078208,   0.000000]
    <r_h> [Ang]:                        [ -0.000000,  -0.000000, -10.029912]
    <r_e> [Ang]:                        [ -0.000000,   0.000000,   0.620005]
    |<r_e - r_h>| [Ang]:                 10.649917
    Hole size [Ang]:                      1.138749
      Cartesian components [Ang]:       [  0.644001,   0.643907,   0.683664]
    Electron size [Ang]:                  3.361846
      Cartesian components [Ang]:       [  1.261299,   2.172236,   2.234397]
    RMS electron-hole separation [Ang]:  11.225849
      Cartesian components [Ang]:       [  1.416196,   2.265655,  10.903251]
    Covariance(r_h, r_e) [Ang^2]:        -0.000091
    Correlation coefficient:             -0.000024
    Center-of-mass size [Ang]:            1.774724
      Cartesian components [Ang]:       [  0.708099,   1.132834,   1.168301]

  Decomposition into state-averaged NTOs
    H- 0 -> L+ 3: -0.6134 ( 75.3%)
    H- 0 -> L+ 1:  0.2267 ( 10.3%)
    H- 0 -> L+ 0: -0.1889 (  7.1%)
                   omega =  92.7%
  ----------------------------------------------------------------------------


  Excited state 4 (singlet, B2)                                    [converged]
  ----------------------------------------------------------------------------
  Term symbol:  4 (1) B2                                    R^2 =  1.44932e-07

  Total energy:                                            -78.6318400640 a.u.
  Excitation energy:                                               4.158076 eV

  Osc. strength:                                                      0.000000
  Trans. dip. moment [a.u.]:           [  -0.000000,   -0.000888,   -0.000000]
  <i|r^2|0> [a.u.]:                    [   0.000000,    0.000000,   -0.000000]

  Dip. moment [a.u.]:                  [   0.000000,   -0.000000,  -29.369555]
  Total dipole [Debye]:                                              74.649976
  <r^2> [a.u.]:                        [  52.013011,   70.677935,  163.884388]
  Total <r^2> [a.u.]:                                               286.575334

  V1^2 = 0.0012, V2^2 = 0.9988

  Important amplitudes:
      occ i      occ j       vir a       vir b          v   
    ---------------------------------------------------------
     6 (A1) A   6 (A1) B    7 (A1) A    2 (B2) B     -0.3533
     6 (A1) A               2 (B2) A                 -0.0246
    ---------------------------------------------------------

  Density matrix analysis:
  ------------------------
  NOs
    Occupation of frontier NOs:
       1.0005   1.0008
    Number of electrons: 18.000000
    Number of unpaired electrons: n_u =  2.40623, n_u,nl =  2.04900
    NO participation ratio (PR_NO):  2.880285
  
  
  Mulliken Population Analysis
  Atom      Charge (e)              h+              e-           Del q
  --------------------------------------------------------------------
   1 C       -2.881448       -0.000172       -2.712113       -2.712285
   2 C        0.573510        0.002096        0.747082        0.749178
   3 H        0.074794        0.000002       -0.004765       -0.004763
   4 H        0.079480        0.000001       -0.012338       -0.012337
   5 H        0.074794        0.000002       -0.004765       -0.004763
   6 H        0.079480        0.000001       -0.012338       -0.012337
   7 H        0.999388        1.997340       -0.000032        1.997308
  --------------------------------------------------------------------
  Sum:       -1.000000        1.999269       -1.999269       -0.000000
  
  Multipole moment analysis of the density matrix
    Molecular charge:                      -1.000000
    Number of electrons:                   18.000000
      Center of electronic charge [Ang]: [ -0.000000,   0.000000,   0.863428]
    Total nuclear charge:                  17.000000
      Center of nuclear charge [Ang]:    [ -0.000000,   0.000000,  -0.000000]
    Dipole moment [D]:                     74.649954
      Cartesian components [D]:          [  0.000000,  -0.000000, -74.649954]
    RMS size of the density [Ang]:         1.926859
      Cartesian components [Ang]:        [  0.899541,   1.048593,   1.343155]
  
  Exciton analysis of the difference density matrix
    <r_h> [Ang]:                  [  0.000000,   0.000000, -10.029744]
    <r_e> [Ang]:                  [ -0.000000,  -0.000000,   2.736161]
    |<r_e - r_h>| [Ang]:           12.765906
    Hole size [Ang]:                1.145439
      Cartesian components [Ang]: [  0.643963,   0.643934,   0.694759]
    Electron size [Ang]:            4.243252
      Cartesian components [Ang]: [  2.046148,   2.871549,   2.360651]

  Transition density matrix analysis:
  -----------------------------------
  
  CT numbers (Mulliken)
    omega =     0.0012
    <Phe> =     0.0003
  
  Exciton analysis of the transition density matrix
    Trans. dipole moment [D]:             0.001129
      Cartesian components [D]:         [ -0.000000,  -0.001129,  -0.000000]
    <r_h> [Ang]:                        [  0.000000,   0.000000, -10.036112]
    <r_e> [Ang]:                        [ -0.000000,   0.000000,   2.229395]
    |<r_e - r_h>| [Ang]:                 12.265507
    Hole size [Ang]:                      1.088033
      Cartesian components [Ang]:       [  0.625531,   0.625534,   0.633431]
    Electron size [Ang]:                  4.302577
      Cartesian components [Ang]:       [  1.967082,   3.407130,   1.741904]
    RMS electron-hole separation [Ang]:  13.043984
      Cartesian components [Ang]:       [  2.064146,   3.464084,  12.405037]
    Covariance(r_h, r_e) [Ang^2]:        -0.003438
    Correlation coefficient:             -0.000734
    Center-of-mass size [Ang]:            2.218621
      Cartesian components [Ang]:       [  1.032073,   1.732034,   0.925829]

  Decomposition into state-averaged NTOs
                   omega =   0.1%
  ----------------------------------------------------------------------------


  Excited state 5 (singlet, B2)                                    [converged]
  ----------------------------------------------------------------------------
  Term symbol:  5 (1) B2                                    R^2 =  2.47050e-08

  Total energy:                                            -78.6093723704 a.u.
  Excitation energy:                                               4.769453 eV

  Osc. strength:                                                      0.000000
  Trans. dip. moment [a.u.]:           [  -0.000000,   -0.000696,   -0.000000]
  <i|r^2|0> [a.u.]:                    [   0.000000,    0.000000,   -0.000000]

  Dip. moment [a.u.]:                  [   0.000000,   -0.000000,  -23.922492]
  Total dipole [Debye]:                                              60.804922
  <r^2> [a.u.]:                        [  49.529969,   63.217490,  164.871571]
  Total <r^2> [a.u.]:                                               277.619030

  V1^2 = 0.0011, V2^2 = 0.9989

  Important amplitudes:
      occ i      occ j       vir a       vir b          v   
    ---------------------------------------------------------
     6 (A1) A   6 (A1) B    7 (A1) A    3 (B2) B      0.3533
     6 (A1) A               3 (B2) A                  0.0231
    ---------------------------------------------------------

  Density matrix analysis:
  ------------------------
  NOs
    Occupation of frontier NOs:
       1.0005   1.0020
    Number of electrons: 18.000000
    Number of unpaired electrons: n_u =  2.40375, n_u,nl =  2.04848
    NO participation ratio (PR_NO):  2.878153
  
  
  Mulliken Population Analysis
  Atom      Charge (e)              h+              e-           Del q
  --------------------------------------------------------------------
   1 C       -1.042484       -0.000274       -0.873047       -0.873321
   2 C       -1.264850        0.002133       -1.091316       -1.089183
   3 H        0.074516        0.000001       -0.005043       -0.005042
   4 H        0.079404        0.000002       -0.012416       -0.012413
   5 H        0.074516        0.000001       -0.005043       -0.005042
   6 H        0.079404        0.000002       -0.012416       -0.012413
   7 H        0.999496        1.997441       -0.000026        1.997415
  --------------------------------------------------------------------
  Sum:       -1.000000        1.999307       -1.999307       -0.000000
  
  Multipole moment analysis of the density matrix
    Molecular charge:                      -1.000000
    Number of electrons:                   18.000000
      Center of electronic charge [Ang]: [ -0.000000,   0.000000,   0.703291]
    Total nuclear charge:                  17.000000
      Center of nuclear charge [Ang]:    [ -0.000000,   0.000000,  -0.000000]
    Dipole moment [D]:                     60.804904
      Cartesian components [D]:          [  0.000000,  -0.000000, -60.804904]
    RMS size of the density [Ang]:         1.955592
      Cartesian components [Ang]:        [  0.877807,   0.991707,   1.438858]
  
  Exciton analysis of the difference density matrix
    <r_h> [Ang]:                  [  0.000000,   0.000000, -10.030171]
    <r_e> [Ang]:                  [ -0.000000,   0.000000,   1.293763]
    |<r_e - r_h>| [Ang]:           11.323934
    Hole size [Ang]:                1.142980
      Cartesian components [Ang]: [  0.643965,   0.643932,   0.690698]
    Electron size [Ang]:            4.750566
      Cartesian components [Ang]: [  1.959303,   2.683415,   3.395335]

  Transition density matrix analysis:
  -----------------------------------
  
  CT numbers (Mulliken)
    omega =     0.0011
    <Phe> =     0.0005
  
  Exciton analysis of the transition density matrix
    Trans. dipole moment [D]:             0.000885
      Cartesian components [D]:         [ -0.000000,  -0.000885,  -0.000000]
    <r_h> [Ang]:                        [  0.000000,   0.000000, -10.036459]
    <r_e> [Ang]:                        [  0.000000,   0.000000,  -0.723171]
    |<r_e - r_h>| [Ang]:                  9.313289
    Hole size [Ang]:                      1.084755
      Cartesian components [Ang]:       [  0.624461,   0.624475,   0.629898]
    Electron size [Ang]:                  4.831785
      Cartesian components [Ang]:       [  1.928597,   3.340254,   2.910217]
    RMS electron-hole separation [Ang]:  10.548072
      Cartesian components [Ang]:       [  2.027175,   3.398297,   9.777728]
    Covariance(r_h, r_e) [Ang^2]:        -0.000818
    Correlation coefficient:             -0.000156
    Center-of-mass size [Ang]:            2.475945
      Cartesian components [Ang]:       [  1.013588,   1.698979,   1.488762]

  Decomposition into state-averaged NTOs
                   omega =   0.1%
  ----------------------------------------------------------------------------


  Excited state 6 (singlet, B2)                                    [converged]
  ----------------------------------------------------------------------------
  Term symbol:  6 (1) B2                                    R^2 =  5.33201e-11

  Total energy:                                            -78.5937655588 a.u.
  Excitation energy:                                               5.194136 eV

  Osc. strength:                                                      0.000007
  Trans. dip. moment [a.u.]:           [  -0.000000,   -0.007603,   -0.000000]
  <i|r^2|0> [a.u.]:                    [   0.000000,    0.000000,    0.000000]

  Dip. moment [a.u.]:                  [  -0.000000,    0.000000,   -1.560710]
  Total dipole [Debye]:                                               3.966929
  <r^2> [a.u.]:                        [  32.761612,   39.654446,  436.065899]
  Total <r^2> [a.u.]:                                               508.481957

  V1^2 = 0.9459, V2^2 = 0.0541

  Important amplitudes:
      occ i      occ j       vir a       vir b          v   
    ---------------------------------------------------------
     6 (A1) A               5 (B2) A                 -0.6855
     6 (A1) A   6 (A1) B    8 (A1) A    2 (B2) B     -0.0472
    ---------------------------------------------------------

  Density matrix analysis:
  ------------------------
  NOs
    Occupation of frontier NOs:
       0.9720   0.9839
    Number of electrons: 18.000000
    Number of unpaired electrons: n_u =  2.42724, n_u,nl =  2.05329
    NO participation ratio (PR_NO):  3.056709
  
  
  Mulliken Population Analysis
  Atom      Charge (e)              h+              e-           Del q
  --------------------------------------------------------------------
   1 C       -0.609567        0.059464       -0.499868       -0.440404
   2 C       -0.628987        0.081503       -0.534822       -0.453320
   3 H        0.051560       -0.001201       -0.026796       -0.027997
   4 H        0.057539       -0.001253       -0.033025       -0.034278
   5 H        0.051560       -0.001201       -0.026796       -0.027997
   6 H        0.057539       -0.001253       -0.033025       -0.034278
   7 H        0.020354        1.037802       -0.019529        1.018273
  --------------------------------------------------------------------
  Sum:       -1.000000        1.173861       -1.173861       -0.000000
  
  Multipole moment analysis of the density matrix
    Molecular charge:                      -1.000000
    Number of electrons:                   18.000000
      Center of electronic charge [Ang]: [  0.000000,  -0.000000,   0.045883]
    Total nuclear charge:                  17.000000
      Center of nuclear charge [Ang]:    [ -0.000000,   0.000000,  -0.000000]
    Dipole moment [D]:                     3.966928
      Cartesian components [D]:          [ -0.000000,   0.000000,  -3.966928]
    RMS size of the density [Ang]:         2.812191
      Cartesian components [Ang]:        [  0.713917,   0.785436,   2.604195]
  
  Exciton analysis of the difference density matrix
    <r_h> [Ang]:                  [ -0.000000,  -0.000000,  -8.836440]
    <r_e> [Ang]:                  [  0.000000,  -0.000000,   0.369653]
    |<r_e - r_h>| [Ang]:            9.206093
    Hole size [Ang]:                3.574392
      Cartesian components [Ang]: [  0.733801,   0.724705,   3.422370]
    Electron size [Ang]:            3.675652
      Cartesian components [Ang]: [  1.539591,   2.542067,   2.162862]

  Transition density matrix analysis:
  -----------------------------------
  
  CT numbers (Mulliken)
    omega =     0.9385
    <Phe> =     0.0002
  
  Exciton analysis of the transition density matrix
    Trans. dipole moment [D]:             0.009663
      Cartesian components [D]:         [ -0.000000,  -0.009663,  -0.000000]
    <r_h> [Ang]:                        [ -0.000000,  -0.000000, -10.028319]
    <r_e> [Ang]:                        [  0.000000,  -0.000000,   0.609809]
    |<r_e - r_h>| [Ang]:                 10.638129
    Hole size [Ang]:                      1.146369
      Cartesian components [Ang]:       [  0.644087,   0.644049,   0.696071]
    Electron size [Ang]:                  3.487458
      Cartesian components [Ang]:       [  1.556026,   2.693650,   1.576513]
    RMS electron-hole separation [Ang]:  11.255225
      Cartesian components [Ang]:       [  1.684062,   2.769572,  10.778381]
    Covariance(r_h, r_e) [Ang^2]:        -0.016891
    Correlation coefficient:             -0.004225
    Center-of-mass size [Ang]:            1.833217
      Cartesian components [Ang]:       [  0.842031,   1.384790,   0.856753]

  Decomposition into state-averaged NTOs
    H- 0 -> L+ 2:  0.6591 ( 86.9%)
    H- 0 -> L+ 0:  0.1399 (  3.9%)
    H- 0 -> L+ 1:  0.1226 (  3.0%)
                   omega =  93.9%
  ----------------------------------------------------------------------------


  Excited state 7 (singlet, B2)                                    [converged]
  ----------------------------------------------------------------------------
  Term symbol:  7 (1) B2                                    R^2 =  8.76416e-10

  Total energy:                                            -78.5911050541 a.u.
  Excitation energy:                                               5.266532 eV

  Osc. strength:                                                      0.000000
  Trans. dip. moment [a.u.]:           [  -0.000000,    0.000102,   -0.000000]
  <i|r^2|0> [a.u.]:                    [   0.000000,    0.000000,    0.000000]

  Dip. moment [a.u.]:                  [   0.000000,    0.000000,  -19.158792]
  Total dipole [Debye]:                                              48.696801
  <r^2> [a.u.]:                        [  49.623537,   68.369718,  152.463092]
  Total <r^2> [a.u.]:                                               270.456347

  V1^2 = 0.0238, V2^2 = 0.9762

  Important amplitudes:
      occ i      occ j       vir a       vir b          v   
    ---------------------------------------------------------
     6 (A1) A   6 (A1) B    8 (A1) A    2 (B2) B      0.3492
     6 (A1) A               5 (B2) A                 -0.0908
    ---------------------------------------------------------

  Density matrix analysis:
  ------------------------
  NOs
    Occupation of frontier NOs:
       0.9834   0.9837
    Number of electrons: 18.000000
    Number of unpaired electrons: n_u =  2.40901, n_u,nl =  2.04976
    NO participation ratio (PR_NO):  2.979316
  
  
  Mulliken Population Analysis
  Atom      Charge (e)              h+              e-           Del q
  --------------------------------------------------------------------
   1 C       -1.143336        0.000963       -0.975136       -0.974173
   2 C       -1.189768        0.001235       -1.015336       -1.014101
   3 H        0.076660       -0.000022       -0.002876       -0.002898
   4 H        0.100035       -0.000033        0.008251        0.008218
   5 H        0.076660       -0.000022       -0.002876       -0.002898
   6 H        0.100035       -0.000033        0.008251        0.008218
   7 H        0.979715        1.977819       -0.000185        1.977634
  --------------------------------------------------------------------
  Sum:       -1.000000        1.979909       -1.979909       -0.000000
  
  Multipole moment analysis of the density matrix
    Molecular charge:                      -1.000000
    Number of electrons:                   18.000000
      Center of electronic charge [Ang]: [ -0.000000,  -0.000000,   0.563244]
    Total nuclear charge:                  17.000000
      Center of nuclear charge [Ang]:    [ -0.000000,   0.000000,  -0.000000]
    Dipole moment [D]:                     48.696787
      Cartesian components [D]:          [  0.000000,   0.000000, -48.696787]
    RMS size of the density [Ang]:         1.972380
      Cartesian components [Ang]:        [  0.878635,   1.031328,   1.433403]
  
  Exciton analysis of the difference density matrix
    <r_h> [Ang]:                  [ -0.000000,   0.000000, -10.025926]
    <r_e> [Ang]:                  [ -0.000000,  -0.000000,   0.135743]
    |<r_e - r_h>| [Ang]:           10.161669
    Hole size [Ang]:                1.167112
      Cartesian components [Ang]: [  0.642690,   0.642635,   0.732203]
    Electron size [Ang]:            4.734963
      Cartesian components [Ang]: [  1.970790,   2.827408,   3.246787]

  Transition density matrix analysis:
  -----------------------------------
  
  CT numbers (Mulliken)
    omega =     0.0237
    <Phe> =     0.0002
  
  Exciton analysis of the transition density matrix
    Trans. dipole moment [D]:             0.000129
      Cartesian components [D]:         [ -0.000000,   0.000129,  -0.000000]
    <r_h> [Ang]:                        [  0.000000,   0.000000, -10.031485]
    <r_e> [Ang]:                        [  0.000000,  -0.000000,   1.293036]
    |<r_e - r_h>| [Ang]:                 11.324521
    Hole size [Ang]:                      1.123376
      Cartesian components [Ang]:       [  0.636669,   0.636628,   0.671811]
    Electron size [Ang]:                  4.525842
      Cartesian components [Ang]:       [  2.029265,   3.513926,   2.004409]
    RMS electron-hole separation [Ang]:  12.247981
      Cartesian components [Ang]:       [  2.126796,   3.571130,  11.521146]
    Covariance(r_h, r_e) [Ang^2]:        -0.011518
    Correlation coefficient:             -0.002265
    Center-of-mass size [Ang]:            2.330353
      Cartesian components [Ang]:       [  1.063398,   1.785566,   1.054270]

  Decomposition into state-averaged NTOs
    H- 0 -> L+ 2:  0.0746 (  1.1%)
                   omega =   2.4%
  ----------------------------------------------------------------------------


  Excited state 8 (singlet, B2)                                    [converged]
  ----------------------------------------------------------------------------
  Term symbol:  8 (1) B2                                    R^2 =  5.84237e-06

  Total energy:                                            -78.5688031562 a.u.
  Excitation energy:                                               5.873397 eV

  Osc. strength:                                                      0.000000
  Trans. dip. moment [a.u.]:           [   0.000000,    0.000293,    0.000000]
  <i|r^2|0> [a.u.]:                    [  -0.000000,   -0.000000,   -0.000000]

  Dip. moment [a.u.]:                  [  -0.000000,   -0.000000,  -24.477190]
  Total dipole [Debye]:                                              62.214824
  <r^2> [a.u.]:                        [  47.098487,   69.258591,  112.058558]
  Total <r^2> [a.u.]:                                               228.415637

  V1^2 = 0.0002, V2^2 = 0.9998

  Important amplitudes:
      occ i      occ j       vir a       vir b          v   
    ---------------------------------------------------------
     6 (A1) A   6 (A1) B    9 (A1) A    2 (B2) B      0.3533
     6 (A1) A   6 (A1) B    8 (A1) A    3 (B2) B      0.0121
    ---------------------------------------------------------

  Density matrix analysis:
  ------------------------
  NOs
    Occupation of frontier NOs:
       0.9996   1.0018
    Number of electrons: 18.000000
    Number of unpaired electrons: n_u =  2.40515, n_u,nl =  2.04885
    NO participation ratio (PR_NO):  2.880389
  
  
  Mulliken Population Analysis
  Atom      Charge (e)              h+              e-           Del q
  --------------------------------------------------------------------
   1 C       -2.246989       -0.000910       -2.076916       -2.077826
   2 C       -0.388503        0.002818       -0.215653       -0.212836
   3 H        0.165325        0.000006        0.085762        0.085768
   4 H        0.152416        0.000010        0.060590        0.060599
   5 H        0.165325        0.000006        0.085762        0.085768
   6 H        0.152416        0.000010        0.060590        0.060599
   7 H        1.000009        1.997929       -0.000001        1.997928
  --------------------------------------------------------------------
  Sum:       -1.000000        1.999868       -1.999868       -0.000000
  
  Multipole moment analysis of the density matrix
    Molecular charge:                      -1.000000
    Number of electrons:                   18.000000
      Center of electronic charge [Ang]: [  0.000000,   0.000000,   0.719598]
    Total nuclear charge:                  17.000000
      Center of nuclear charge [Ang]:    [ -0.000000,   0.000000,  -0.000000]
    Dipole moment [D]:                     62.214806
      Cartesian components [D]:          [ -0.000000,  -0.000000, -62.214806]
    RMS size of the density [Ang]:         1.742318
      Cartesian components [Ang]:        [  0.855989,   1.038010,   1.107018]
  
  Exciton analysis of the difference density matrix
    <r_h> [Ang]:                  [  0.000000,   0.000000, -10.030719]
    <r_e> [Ang]:                  [  0.000000,   0.000000,   1.436816]
    |<r_e - r_h>| [Ang]:           11.467536
    Hole size [Ang]:                1.136026
      Cartesian components [Ang]: [  0.644227,   0.644167,   0.678657]
    Electron size [Ang]:            3.912104
      Cartesian components [Ang]: [  1.870236,   2.836373,   1.939527]

  Transition density matrix analysis:
  -----------------------------------
  
  CT numbers (Mulliken)
    omega =     0.0002
    <Phe> =     0.0004
  
  Exciton analysis of the transition density matrix
    Trans. dipole moment [D]:             0.000373
      Cartesian components [D]:         [  0.000000,   0.000373,   0.000000]
    <r_h> [Ang]:                        [  0.000000,   0.000000, -10.031444]
    <r_e> [Ang]:                        [ -0.000000,  -0.000000,   0.914718]
    |<r_e - r_h>| [Ang]:                 10.946162
    Hole size [Ang]:                      1.112003
      Cartesian components [Ang]:       [  0.625364,   0.625499,   0.673960]
    Electron size [Ang]:                  3.980434
      Cartesian components [Ang]:       [  1.710998,   2.963393,   2.033382]
    RMS electron-hole separation [Ang]:  11.704371
      Cartesian components [Ang]:       [  1.821701,   3.028730,  11.157979]
    Covariance(r_h, r_e) [Ang^2]:        -0.046715
    Correlation coefficient:             -0.010554
    Center-of-mass size [Ang]:            2.060763
      Cartesian components [Ang]:       [  0.910850,   1.514322,   1.060152]

  Decomposition into state-averaged NTOs
                   omega =   0.0%
  ----------------------------------------------------------------------------


  Excited state 9 (singlet, B2)                                    [converged]
  ----------------------------------------------------------------------------
  Term symbol:  9 (1) B2                                    R^2 =  3.43122e-08

  Total energy:                                            -78.5686605170 a.u.
  Excitation energy:                                               5.877279 eV

  Osc. strength:                                                      0.000000
  Trans. dip. moment [a.u.]:           [   0.000000,    0.001555,    0.000000]
  <i|r^2|0> [a.u.]:                    [  -0.000000,   -0.000000,    0.000000]

  Dip. moment [a.u.]:                  [   0.000000,   -0.000000,  -14.043682]
  Total dipole [Debye]:                                              35.695486
  <r^2> [a.u.]:                        [  47.449049,   61.407241,  148.277838]
  Total <r^2> [a.u.]:                                               257.134129

  V1^2 = 0.0065, V2^2 = 0.9935

  Important amplitudes:
      occ i      occ j       vir a       vir b          v   
    ---------------------------------------------------------
     6 (A1) A   6 (A1) B    8 (A1) A    3 (B2) B     -0.3521
     6 (A1) A               3 (B2) A                 -0.0552
    ---------------------------------------------------------

  Density matrix analysis:
  ------------------------
  NOs
    Occupation of frontier NOs:
       0.9989   1.0005
    Number of electrons: 18.000000
    Number of unpaired electrons: n_u =  2.40794, n_u,nl =  2.04852
    NO participation ratio (PR_NO):  2.885384
  
  
  Mulliken Population Analysis
  Atom      Charge (e)              h+              e-           Del q
  --------------------------------------------------------------------
   1 C        0.680887        0.000097        0.849953        0.850050
   2 C       -3.032406        0.000612       -2.857350       -2.856738
   3 H        0.076628        0.000005       -0.002934       -0.002929
   4 H        0.100555       -0.000009        0.008747        0.008738
   5 H        0.076628        0.000005       -0.002934       -0.002929
   6 H        0.100555       -0.000009        0.008747        0.008738
   7 H        0.997153        1.995150       -0.000079        1.995072
  --------------------------------------------------------------------
  Sum:       -1.000000        1.995850       -1.995850       -0.000000
  
  Multipole moment analysis of the density matrix
    Molecular charge:                      -1.000000
    Number of electrons:                   18.000000
      Center of electronic charge [Ang]: [ -0.000000,   0.000000,   0.412866]
    Total nuclear charge:                  17.000000
      Center of nuclear charge [Ang]:    [ -0.000000,   0.000000,  -0.000000]
    Dipole moment [D]:                     35.695476
      Cartesian components [D]:          [  0.000000,  -0.000000, -35.695476]
    RMS size of the density [Ang]:         1.956991
      Cartesian components [Ang]:        [  0.859169,   0.977405,   1.461616]
  
  Exciton analysis of the difference density matrix
    <r_h> [Ang]:                  [  0.000000,   0.000000, -10.033595]
    <r_e> [Ang]:                  [ -0.000000,  -0.000000,  -1.309303]
    |<r_e - r_h>| [Ang]:            8.724292
    Hole size [Ang]:                1.129762
      Cartesian components [Ang]: [  0.642056,   0.642039,   0.672244]
    Electron size [Ang]:            4.422377
      Cartesian components [Ang]: [  1.884245,   2.637431,   3.008487]

  Transition density matrix analysis:
  -----------------------------------
  
  CT numbers (Mulliken)
    omega =     0.0065
    <Phe> =     0.0004
  
  Exciton analysis of the transition density matrix
    Trans. dipole moment [D]:             0.001976
      Cartesian components [D]:         [  0.000000,   0.001976,   0.000000]
    <r_h> [Ang]:                        [  0.000000,   0.000000, -10.037257]
    <r_e> [Ang]:                        [  0.000000,   0.000000,  -0.677287]
    |<r_e - r_h>| [Ang]:                  9.359971
    Hole size [Ang]:                      1.074861
      Cartesian components [Ang]:       [  0.618656,   0.618656,   0.624385]
    Electron size [Ang]:                  4.901592
      Cartesian components [Ang]:       [  1.949850,   3.376954,   2.969827]
    RMS electron-hole separation [Ang]:  10.620331
      Cartesian components [Ang]:       [  2.045642,   3.433185,   9.839717]
    Covariance(r_h, r_e) [Ang^2]:        -0.000725
    Correlation coefficient:             -0.000138
    Center-of-mass size [Ang]:            2.508958
      Cartesian components [Ang]:       [  1.022821,   1.716562,   1.517275]

  Decomposition into state-averaged NTOs
                   omega =   0.6%
  ----------------------------------------------------------------------------


  Excited state 10 (singlet, B2)                                    [converged]
  ----------------------------------------------------------------------------
  Term symbol:  10 (1) B2                                   R^2 =  6.85006e-07

  Total energy:                                            -78.5463472064 a.u.
  Excitation energy:                                               6.484455 eV

  Osc. strength:                                                      0.000000
  Trans. dip. moment [a.u.]:           [   0.000000,    0.000129,    0.000000]
  <i|r^2|0> [a.u.]:                    [  -0.000000,   -0.000000,    0.000000]

  Dip. moment [a.u.]:                  [  -0.000000,   -0.000000,  -19.035083]
  Total dipole [Debye]:                                              48.382365
  <r^2> [a.u.]:                        [  44.603138,   61.797609,  113.026967]
  Total <r^2> [a.u.]:                                               219.427713

  V1^2 = 0.0002, V2^2 = 0.9998

  Important amplitudes:
      occ i      occ j       vir a       vir b          v   
    ---------------------------------------------------------
     6 (A1) A   6 (A1) B    9 (A1) A    3 (B2) B     -0.3535
     6 (A1) A               6 (B2) A                 -0.0064
    ---------------------------------------------------------

  Density matrix analysis:
  ------------------------
  NOs
    Occupation of frontier NOs:
       1.0020   1.0029
    Number of electrons: 18.000000
    Number of unpaired electrons: n_u =  2.39902, n_u,nl =  2.04830
    NO participation ratio (PR_NO):  2.873577
  
  
  Mulliken Population Analysis
  Atom      Charge (e)              h+              e-           Del q
  --------------------------------------------------------------------
   1 C       -0.409868       -0.000916       -0.239789       -0.240705
   2 C       -2.225459        0.002824       -2.052615       -2.049792
   3 H        0.165180        0.000011        0.085612        0.085623
   4 H        0.152482        0.000010        0.060654        0.060665
   5 H        0.165180        0.000011        0.085612        0.085623
   6 H        0.152482        0.000010        0.060654        0.060665
   7 H        1.000003        1.997923       -0.000001        1.997922
  --------------------------------------------------------------------
  Sum:       -1.000000        1.999872       -1.999872       -0.000000
  
  Multipole moment analysis of the density matrix
    Molecular charge:                      -1.000000
    Number of electrons:                   18.000000
      Center of electronic charge [Ang]: [  0.000000,   0.000000,   0.559607]
    Total nuclear charge:                  17.000000
      Center of nuclear charge [Ang]:    [ -0.000000,   0.000000,  -0.000000]
    Dipole moment [D]:                     48.382351
      Cartesian components [D]:          [ -0.000000,  -0.000000, -48.382351]
    RMS size of the density [Ang]:         1.760826
      Cartesian components [Ang]:        [  0.833005,   0.980507,   1.202171]
  
  Exciton analysis of the difference density matrix
    <r_h> [Ang]:                  [ -0.000000,   0.000000, -10.030658]
    <r_e> [Ang]:                  [  0.000000,   0.000000,  -0.003159]
    |<r_e - r_h>| [Ang]:           10.027499
    Hole size [Ang]:                1.136493
      Cartesian components [Ang]: [  0.644275,   0.644208,   0.679355]
    Electron size [Ang]:            4.013786
      Cartesian components [Ang]: [  1.774382,   2.645815,   2.441662]

  Transition density matrix analysis:
  -----------------------------------
  
  CT numbers (Mulliken)
    omega =     0.0002
    <Phe> =     0.0003
  
  Exciton analysis of the transition density matrix
    Trans. dipole moment [D]:             0.000164
      Cartesian components [D]:         [  0.000000,   0.000164,   0.000000]
    <r_h> [Ang]:                        [  0.000000,   0.000000, -10.029626]
    <r_e> [Ang]:                        [  0.000000,   0.000000,   0.572812]
    |<r_e - r_h>| [Ang]:                 10.602437
    Hole size [Ang]:                      1.125254
      Cartesian components [Ang]:       [  0.630212,   0.630415,   0.686736]
    Electron size [Ang]:                  3.498696
      Cartesian components [Ang]:       [  1.354297,   2.345485,   2.214825]
    RMS electron-hole separation [Ang]:  11.224388
      Cartesian components [Ang]:       [  1.493749,   2.428832,  10.856168]
    Covariance(r_h, r_e) [Ang^2]:        -0.034074
    Correlation coefficient:             -0.008655
    Center-of-mass size [Ang]:            1.832957
      Cartesian components [Ang]:       [  0.746875,   1.214313,   1.152108]

  Decomposition into state-averaged NTOs
                   omega =   0.0%
  ----------------------------------------------------------------------------


--------------------------------------------------------------------------------
  Time of ADC calculation:  CPU 153.40 s  wall 45.47 s
================================================================================
 
 --------------------------------------------------------------
             Orbital Energies (a.u.) and Symmetries
 --------------------------------------------------------------
 
 Alpha MOs, Restricted
 -- Occupied --                  
-11.187 -11.185  -0.992  -0.732  -0.611  -0.517  -0.465  -0.327
  1 A1    2 A1    3 A1    4 A1    1 B1    5 A1    2 B1    1 B2                 
  0.021
  6 A1                                                                         
 -- Virtual --                   
  0.094   0.095   0.101   0.123   0.124   0.134   0.157   0.192
  7 A1    3 B1    2 B2    4 B1    3 B2    8 A1    9 A1    4 B2                 
  0.243   0.249   0.271   0.271   0.278   0.286   0.316   0.356
 10 A1    5 B1    6 B1   11 A1    5 B2   12 A1   13 A1    6 B2                 
  0.392   0.401   0.554   0.598   0.789   0.875   0.914   0.942
  7 B1   14 A1    8 B1   15 A1   16 A1    9 B1   17 A1   10 B1                 
  0.975   0.979   1.025   1.038   1.057   1.081   1.117   1.164
  7 B2   18 A1    8 B2   19 A1   20 A1   21 A1   11 B1    1 A2                 
  1.334   1.334   1.367   1.398   1.660   1.665   1.755   1.906
  9 B2    2 A2   22 A1   12 B1   23 A1   13 B1   14 B1   10 B2                 
  1.966   1.966   1.966   1.966   1.990   2.057   2.067   2.107
 24 A1   15 B1   11 B2   25 A1   12 B2   26 A1    3 A2   16 B1                 
  2.223   2.365   2.462   2.498   2.616   2.620   2.849   2.855
 13 B2   27 A1    4 A2   28 A1   17 B1   29 A1   18 B1   30 A1                 
  3.294   3.390
 31 A1   19 B1                                                                 
 
 Beta MOs, Restricted
 -- Occupied --                  
-11.187 -11.185  -0.992  -0.732  -0.611  -0.517  -0.465  -0.327
  1 A1    2 A1    3 A1    4 A1    1 B1    5 A1    2 B1    1 B2                 
  0.021
  6 A1                                                                         
 -- Virtual --                   
  0.094   0.095   0.101   0.123   0.124   0.134   0.157   0.192
  7 A1    3 B1    2 B2    4 B1    3 B2    8 A1    9 A1    4 B2                 
  0.243   0.249   0.271   0.271   0.278   0.286   0.316   0.356
 10 A1    5 B1    6 B1   11 A1    5 B2   12 A1   13 A1    6 B2                 
  0.392   0.401   0.554   0.598   0.789   0.875   0.914   0.942
  7 B1   14 A1    8 B1   15 A1   16 A1    9 B1   17 A1   10 B1                 
  0.975   0.979   1.025   1.038   1.057   1.081   1.117   1.164
  7 B2   18 A1    8 B2   19 A1   20 A1   21 A1   11 B1    1 A2                 
  1.334   1.334   1.367   1.398   1.660   1.665   1.755   1.906
  9 B2    2 A2   22 A1   12 B1   23 A1   13 B1   14 B1   10 B2                 
  1.966   1.966   1.966   1.966   1.990   2.057   2.067   2.107
 24 A1   15 B1   11 B2   25 A1   12 B2   26 A1    3 A2   16 B1                 
  2.223   2.365   2.462   2.498   2.616   2.620   2.849   2.855
 13 B2   27 A1    4 A2   28 A1   17 B1   29 A1   18 B1   30 A1                 
  3.294   3.390
 31 A1   19 B1                                                                 
 --------------------------------------------------------------
 
          Ground-State Mulliken Net Atomic Charges

     Atom                 Charge (a.u.)
  ----------------------------------------
      1 C                    -0.159306
      2 C                    -0.156693
      3 H                     0.072362
      4 H                     0.084661
      5 H                     0.072362
      6 H                     0.084661
      7 H                    -0.998047
  ----------------------------------------
  Sum of atomic charges =    -1.000000

 -----------------------------------------------------------------
                    Cartesian Multipole Moments
 -----------------------------------------------------------------
    Charge (ESU x 10^10)
                -4.8032
    Dipole Moment (Debye)
         X       0.0000      Y       0.0000      Z      47.9295
       Tot      47.9295
    Quadrupole Moments (Debye-Ang)
        XX     -15.9563     XY      -0.0000     YY     -20.1168
        XZ       0.0000     YZ      -0.0000     ZZ    -500.2531
    Octopole Moments (Debye-Ang^2)
       XXX       0.0000    XXY       0.0000    XYY      -0.0000
       YYY       0.0000    XXZ      31.9959    XYZ      -0.0000
       YYZ      29.4195    XZZ      -0.0000    YZZ      -0.0000
       ZZZ    4942.0071
    Hexadecapole Moments (Debye-Ang^3)
      XXXX     -33.2261   XXXY      -0.0000   XXYY     -11.0363
      XYYY      -0.0000   YYYY     -27.6996   XXXZ      -0.0000
      XXYZ      -0.0000   XYYZ      -0.0000   YYYZ      -0.0000
      XXZZ    -418.5641   XYZZ      -0.0000   YYZZ    -422.4663
      XZZZ       0.0000   YZZZ       0.0000   ZZZZ  -51152.1886
 -----------------------------------------------------------------
 Total job time:  128.20s(wall), 200.00s(cpu) 
 Fri Mar 25 16:35:31 2022

        *************************************************************
        *                                                           *
        *  Thank you very much for using Q-Chem.  Have a nice day.  *
        *                                                           *
        *************************************************************


