/src/tsommerfeld/qchem/exe/qcprog.exe .input1.5.7424.qcin.1 /src/jdavis/qchem.scratch/qchem7424/

                  Welcome to Q-Chem
     A Quantum Leap Into The Future Of Chemistry


 Q-Chem 5.4 (devel), Q-Chem, Inc., Pleasanton, CA (2021)

 E. Epifanovsky,  A. T. B. Gilbert,  Xintian Feng,  Joonho Lee,  Yuezhi Mao,  
 N. Mardirossian,  P. Pokhilko,  A. White,  M. Wormit,  M. P. Coons,  
 A. L. Dempwolff,  Zhengting Gan,  D. Hait,  P. R. Horn,  L. D. Jacobson,  
 I. Kaliman,  J. Kussmann,  A. W. Lange,  Ka Un Lao,  D. S. Levine,  Jie Liu,  
 S. C. McKenzie,  A. F. Morrison,  K. Nanda,  F. Plasser,  D. R. Rehn,  
 M. L. Vidal,  Zhi-Qiang You,  Ying Zhu,  B. Alam,  B. Albrecht,  
 A. Aldossary,  E. Alguire,  J. H. Andersen,  D. Barton,  K. Begam,  A. Behn,  
 Y. A. Bernard,  E. J. Berquist,  H. Burton,  A. Carreras,  K. Carter-Fenk,  
 R. Chakraborty,  A. D. Chien,  K. D. Closser,  V. Cofer-Shabica,  
 S. Dasgupta,  Jia Deng,  M. de Wergifosse,  M. Diedenhofen,  Hainam Do,  
 S. Ehlert,  Po-Tung Fang,  S. Fatehi,  Qingguo Feng,  T. Friedhoff,  
 J. Gayvert,  Qinghui Ge,  G. Gidofalvi,  M. Goldey,  J. Gomes,  
 C. Gonzalez-Espinoza,  S. Gulania,  A. Gunina,  M. W. D. Hanson-Heine,  
 P. H. P. Harbach,  A. W. Hauser,  M. F. Herbst,  M. Hernandez Vera,  
 M. Hodecker,  Z. C. Holden,  S. Houck,  Xunkun Huang,  Kerwin Hui,  
 B. C. Huynh,  M. Ivanov,  Hyunjun Ji,  Hanjie Jiang,  B. Kaduk,  S. Kaehler,  
 K. Khistyaev,  Jaehoon Kim,  P. Klunzinger,  Z. Koczor-Benda,  
 Joong Hoon Koh,  D. Kosenkov,  L. Koulias,  T. Kowalczyk,  C. M. Krauter,  
 K. Kue,  A. Kunitsa,  T. Kus,  A. Landau,  K. V. Lawler,  D. Lefrancois,  
 S. Lehtola,  Rain Li,  Yi-Pei Li,  Jiashu Liang,  M. Liebenthal,  
 Hung-Hsuan Lin,  You-Sheng Lin,  Fenglai Liu,  Kuan-Yu Liu,  
 M. Loipersberger,  A. Luenser,  A. Manjanath,  P. Manohar,  E. Mansoor,  
 S. F. Manzer,  Shan-Ping Mao,  A. V. Marenich,  T. Markovich,  S. Mason,  
 S. A. Maurer,  P. F. McLaughlin,  M. F. S. J. Menger,  J.-M. Mewes,  
 S. A. Mewes,  P. Morgante,  J. W. Mullinax,  K. J. Oosterbaan,  G. Paran,  
 Alexander C. Paul,  Suranjan K. Paul,  F. Pavosevic,  Zheng Pei,  S. Prager,  
 E. I. Proynov,  E. Ramos,  B. Rana,  A. E. Rask,  A. Rettig,  R. M. Richard,  
 F. Rob,  E. Rossomme,  T. Scheele,  M. Scheurer,  M. Schneider,  
 N. Sergueev,  S. M. Sharada,  W. Skomorowski,  D. W. Small,  C. J. Stein,  
 Yu-Chuan Su,  E. J. Sundstrom,  Zhen Tao,  J. Thirman,  T. Tsuchimochi,  
 N. M. Tubman,  S. P. Veccham,  O. Vydrov,  J. Wenzel,  J. Witte,  A. Yamada,  
 Kun Yao,  S. Yeganeh,  S. R. Yost,  A. Zech,  Igor Ying Zhang,  Xing Zhang,  
 Yu Zhang,  D. Zuev,  A. Aspuru-Guzik,  A. T. Bell,  N. A. Besley,  
 K. B. Bravaya,  B. R. Brooks,  D. Casanova,  Jeng-Da Chai,  S. Coriani,  
 C. J. Cramer,  A. E. DePrince, III,  R. A. DiStasio Jr.,  A. Dreuw,  
 B. D. Dunietz,  T. R. Furlani,  W. A. Goddard III,  S. Grimme,  
 S. Hammes-Schiffer,  T. Head-Gordon,  W. J. Hehre,  Chao-Ping Hsu,  
 T.-C. Jagau,  Yousung Jung,  A. Klamt,  Jing Kong,  D. S. Lambrecht,  
 WanZhen Liang,  N. J. Mayhall,  C. W. McCurdy,  J. B. Neaton,  
 C. Ochsenfeld,  J. A. Parkhill,  R. Peverati,  V. A. Rassolov,  Yihan Shao,  
 L. V. Slipchenko,  T. Stauch,  R. P. Steele,  J. E. Subotnik,  
 A. J. W. Thom,  A. Tkatchenko,  D. G. Truhlar,  T. Van Voorhis,  
 T. A. Wesolowski,  K. B. Whaley,  H. L. Woodcock III,  P. M. Zimmerman,  
 S. Faraji,  P. M. W. Gill,  M. Head-Gordon,  J. M. Herbert,  A. I. Krylov

 Additional authors for Version 5.4.1: 
 S. Kotaru,  Shaozhi Li,  Xiangyuan Li,  F. Matz,  A. Molle,  Haisheng Ren,  
 Yingli Su,  Hung-Yi Tsai,  C. Utku,  Fang Wang

 Contributors to earlier versions of Q-Chem not listed above: 
 R. D. Adamson,  B. Austin,  R. Baer,  J. Baker,  G. J. O. Beran,  
 K. Brandhorst,  S. T. Brown,  E. F. C. Byrd,  A. K. Chakraborty,  
 G. K. L. Chan,  Chun-Min Chang,  Yunqing Chen,  C.-L. Cheng,  
 Siu Hung Chien,  D. M. Chipman,  D. L. Crittenden,  H. Dachsel,  
 R. J. Doerksen,  A. D. Dutoi,  R. G. Edgar,  J. Fosso-Tande,  
 L. Fusti-Molnar,  D. Ghosh,  A. Ghysels,  A. Golubeva-Zadorozhnaya,  
 J. Gonthier,  M. S. Gordon,  S. R. Gwaltney,  G. Hawkins,  J. E. Herr,  
 A. Heyden,  S. Hirata,  E. G. Hohenstein,  G. Kedziora,  F. J. Keil,  
 C. Kelley,  Jihan Kim,  R. A. King,  R. Z. Khaliullin,  P. P. Korambath,  
 W. Kurlancheek,  A. Laurent,  A. M. Lee,  M. S. Lee,  S. V. Levchenko,  
 Ching Yeh Lin,  D. Liotard,  E. Livshits,  R. C. Lochan,  I. Lotan,  
 L. A. Martinez-Martinez,  P. E. Maslen,  N. Nair,  D. P. O'Neill,  
 D. Neuhauser,  E. Neuscamman,  C. M. Oana,  R. Olivares-Amaya,  R. Olson,  
 T. M. Perrine,  B. Peters,  P. A. Pieniazek,  A. Prociuk,  Y. M. Rhee,  
 J. Ritchie,  M. A. Rohrdanz,  E. Rosta,  N. J. Russ,  H. F. Schaefer III,  
 M. W. Schmidt,  N. E. Schultz,  S. Sharma,  N. Shenvi,  C. D. Sherrill,  
 A. C. Simmonett,  A. Sodt,  T. Stein,  D. Stuck,  K. S. Thanthiriwatte,  
 V. Vanovschi,  L. Vogt,  Tao Wang,  A. Warshel,  M. A. Watson,  
 C. F. Williams,  Q. Wu,  X. Xu,  Jun Yang,  W. Zhang,  Yan Zhao

 Please cite Q-Chem as follows:
 Y. Shao et al., Mol. Phys. 113, 184-215 (2015)
 DOI: 10.1080/00268976.2014.952696

 Q-Chem 5.4.1 for Intel X86 EM64T Linux

 Parts of Q-Chem use Armadillo 9.900.5 (Nocturnal Misbehaviour).
 http://arma.sourceforge.net/

 Q-Chem begins on Fri Mar 25 18:52:06 2022  

 Host: node01
0

     Scratch files written to /src/jdavis/qchem.scratch/qchem7424//
 Processing $rem in /src/tsommerfeld/qchem/config/preferences:
 Processing $rem in /home/jdavis/.qchemrc:

 Checking the input file for inconsistencies... 	...done.

--------------------------------------------------------------
User input:
--------------------------------------------------------------
$molecule
-1 1
C         0.0000000000    0.0000000000    0.8417902907
C         0.0000000000    0.0000000000   -0.4872097093
H         0.9623488518    0.0000000000    1.3363703127
H         0.9623489048    0.0000000000   -0.9817896873
H        -0.9623488518    0.0000000000    1.3363703127
H        -0.9623489048    0.0000000000   -0.9817896873
H         0.0000000000    0.0000000000   -10.4872097093
$end

$rem
   METHOD adc(2)
   BASIS gen
   PURECART 11
   EE_STATES [0,0,0,10]
   scf_convergence 8
   ADC_DAVIDSON_MAXITER 120
   ADC_DAVIDSON_MAXSUBSPACE 200
   adc_nguess_singles 100
   THRESH 14
   S2THRESH 14
   adc_davidson_conv 5
   adc_davidson_thresh 14
   THREADS 10
   MEM_TOTAL 95000
   STATE_ANALYSIS TRUE
$end
$basis
C 1
S   9   1.00
      6.665000D+03           6.920000D-04
      1.000000D+03           5.329000D-03
      2.280000D+02           2.707700D-02
      6.471000D+01           1.017180D-01
      2.106000D+01           2.747400D-01
      7.495000D+00           4.485640D-01
      2.797000D+00           2.850740D-01
      5.215000D-01           1.520400D-02
      1.596000D-01          -3.191000D-03
S   9   1.00
      6.665000D+03          -1.460000D-04
      1.000000D+03          -1.154000D-03
      2.280000D+02          -5.725000D-03
      6.471000D+01          -2.331200D-02
      2.106000D+01          -6.395500D-02
      7.495000D+00          -1.499810D-01
      2.797000D+00          -1.272620D-01
      5.215000D-01           5.445290D-01
      1.596000D-01           5.804960D-01
S   1   1.00
      1.596000D-01           1.000000D+00
S   1   1.00
      0.0469000              1.0000000
P   4   1.00
      9.439000D+00           3.810900D-02
      2.002000D+00           2.094800D-01
      5.456000D-01           5.085570D-01
      1.517000D-01           4.688420D-01
P   1   1.00
      1.517000D-01           1.000000D+00
P   1   1.00
      0.09102      1.0000000
P   1   1.00
      0.04551      1.0000000
D   1   1.00
      5.500000D-01           1.0000000
****
C 2
S   9   1.00
      6.665000D+03           6.920000D-04
      1.000000D+03           5.329000D-03
      2.280000D+02           2.707700D-02
      6.471000D+01           1.017180D-01
      2.106000D+01           2.747400D-01
      7.495000D+00           4.485640D-01
      2.797000D+00           2.850740D-01
      5.215000D-01           1.520400D-02
      1.596000D-01          -3.191000D-03
S   9   1.00
      6.665000D+03          -1.460000D-04
      1.000000D+03          -1.154000D-03
      2.280000D+02          -5.725000D-03
      6.471000D+01          -2.331200D-02
      2.106000D+01          -6.395500D-02
      7.495000D+00          -1.499810D-01
      2.797000D+00          -1.272620D-01
      5.215000D-01           5.445290D-01
      1.596000D-01           5.804960D-01
S   1   1.00
      1.596000D-01           1.000000D+00
S   1   1.00
      0.0469000              1.0000000
P   4   1.00
      9.439000D+00           3.810900D-02
      2.002000D+00           2.094800D-01
      5.456000D-01           5.085570D-01
      1.517000D-01           4.688420D-01
P   1   1.00
      1.517000D-01           1.000000D+00
P   1   1.00
      0.09102      1.0000000
P   1   1.00
      0.04551      1.0000000
D   1   1.00
      5.500000D-01           1.0000000
****
H 3
cc-pVDZ
****
H 4
cc-pVDZ
****
H 5
cc-pVDZ
****
H 6
cc-pVDZ
****
H 7
aug-cc-pVDZ
****
$end
--------------------------------------------------------------
 ----------------------------------------------------------------
             Standard Nuclear Orientation (Angstroms)
    I     Atom           X                Y                Z
 ----------------------------------------------------------------
    1      C       0.0000000000     0.0000000000     1.2918235242
    2      C       0.0000000000     0.0000000000    -0.0371764758
    3      H       0.9623488518     0.0000000000     1.7864035462
    4      H       0.9623489048     0.0000000000    -0.5317564538
    5      H      -0.9623488518     0.0000000000     1.7864035462
    6      H      -0.9623489048     0.0000000000    -0.5317564538
    7      H       0.0000000000     0.0000000000   -10.0371764758
 ----------------------------------------------------------------
 Molecular Point Group                 C2v   NOp =  4
 Largest Abelian Subgroup              C2v   NOp =  4
 Nuclear Repulsion Energy =          34.38697142 hartrees
 There are        9 alpha and        9 beta electrons
 Requested basis set is non-standard
 There are 33 shells and 67 basis functions
 Total memory of 95000 MB is distributed as follows: 
   MEM_STATIC is set to 192 MB
   QALLOC/CCMAN JOB total memory use is  94808 MB
 Warning: actual memory use might exceed 95000 MB

 Total QAlloc Memory Limit  95000 MB
 Mega-Array Size       188 MB
 MEM_STATIC part       192 MB

                       Distance Matrix (Angstroms)
             C (  1)   C (  2)   H (  3)   H (  4)   H (  5)   H (  6)
   C (  2)  1.329000
   H (  3)  1.082000  2.061931
   H (  4)  2.061931  1.082000  2.318160
   H (  5)  1.082000  2.061931  1.924698  3.013026
   H (  6)  2.061931  1.082000  3.013026  1.924698  2.318160
   H (  7) 11.329000 10.000000 11.862679  9.554011 11.862679  9.554011

 
 A cutoff of  1.0D-14 yielded    493 shell pairs
 There are      2095 function pairs (      2232 Cartesian)
 Smallest overlap matrix eigenvalue = 1.93E-04

 Scale SEOQF with 1.000000e-01/1.000000e-01/1.000000e-02

 Standard Electronic Orientation quadrupole field applied
 Nucleus-field energy     =    -0.0000000011 hartrees
 ================ Generating on-the-fly SAD Guess ================
Attempting to make child job directory: /src/jdavis/qchem.scratch/qchem7424//Frg1/
Attempting to make child job directory: /src/jdavis/qchem.scratch/qchem7424//Frg2/
Creating input file /src/jdavis/qchem.scratch/qchem7424/Frg1.input
using default PutDataFrgm: nothing
calling putenv with: QCSCRATCH=/src/jdavis/qchem.scratch/qchem7424/ 
Spawning Job For Fragment 0
Done Job For Fragment 0
calling putenv with: QCSCRATCH=/src/jdavis/qchem.scratch 
calling putenv with: QCTHREADS=1 
Creating input file /src/jdavis/qchem.scratch/qchem7424/Frg2.input
using default PutDataFrgm: nothing
calling putenv with: QCSCRATCH=/src/jdavis/qchem.scratch/qchem7424/ 
Spawning Job For Fragment 1
Done Job For Fragment 1
calling putenv with: QCSCRATCH=/src/jdavis/qchem.scratch 
calling putenv with: QCTHREADS=1 
 Time for running child jobs:  CPU 1.77 s  wall 54.33 s
 ============= Method Specific SAD Guess Constructed =============
 Guess from on-the-fly superposition of atomic densities
 Warning: Energy on first SCF cycle will be non-variational
 A restricted Hartree-Fock SCF calculation will be
 performed using Pulay DIIS extrapolation
 SCF converges when DIIS error is below 1.0E-08
 using 10 threads for integral computing
 -------------------------------------------------------
 OpenMP Integral computing Module                
 Release: version 1.0, May 2013, Q-Chem Inc. Pittsburgh 
 -------------------------------------------------------
 ---------------------------------------
  Cycle       Energy         DIIS Error
 ---------------------------------------
    1     -78.8020997474      7.36E-02
    2     -78.4468909976      6.48E-03
    3     -78.4848244789      1.49E-03
    4     -78.4867626246      4.81E-04
    5     -78.4869390203      7.70E-05
    6     -78.4869473021      1.81E-05
    7     -78.4869477675      8.83E-06
    8     -78.4869478626      1.72E-06
    9     -78.4869478692      5.58E-07
   10     -78.4869478698      1.15E-07
   11     -78.4869478698      1.20E-08
   12     -78.4869478698      1.51E-09 Convergence criterion met
 ---------------------------------------
 SCF time:  CPU 11.63 s  wall 1.17 s
 SCF   energy in the final basis set = -78.48694787
 Total energy in the final basis set = -78.48694787
================================================================================
|                                                                              |
|                                 A D C  M A N                                 |
|                                                                              |
 ------------------------------------------------------------------------------ 
|                                                                              |
| Components:                                                                  |
|                                                                              |
| - libvmm - 1.3-trunk                                                         |
|   Authors:                                                                   |
|   Evgeny Epifanovsky, Ilya Kaliman                                           |
|                                                                              |
| - libtensor - 2.5-trunk                                                      |
|   Authors:                                                                   |
|   Evgeny Epifanovsky, Michael Wormit, Dmitry Zuev, Sam Manzer,               |
|   Ilya Kaliman                                                               |
|                                                                              |
| - libwfa - 1.1-trunk                                                         |
|   Authors:                                                                   |
|   Felix Plasser, Stefanie Mewes (Baeppler), Benjamin Thomitzni,              |
|   Michael Wormit, Feng Chen, Anna I. Krylov, Pavel Pokhilko                  |
|                                                                              |
| - libadc - 1.1-trunk                                                         |
|   Authors:                                                                   |
|   Michael Wormit, Adrian L. Dempwolff, Philipp H. P. Harbach,                |
|   Caroline Krauter, Dirk Rehn, Matthias Schneider, Jan Wenzel                |
|                                                                              |
| - adcman - 2.6-trunk                                                         |
|   Authors:                                                                   |
|   Michael Wormit, Adrian L. Dempwolff, Philipp H. P. Harbach,                |
|   Caroline Krauter, Daniel Lefrancois, Jan-Michael Mewes, Dirk Rehn,         |
|   Matthias Schneider, Jan Wenzel, Andreas Dreuw                              |
|                                                                              |
| Authors of earlier versions of ADCMAN:                                       |
| Andreas Dreuw, Jan Hendrik Starcke, Dirk Rehn, Michael Wormit                |
|                                                                              |
================================================================================

 
 Alpha MOs, Restricted
 -- Occupied --                  
-11.187 -11.185  -0.992  -0.732  -0.610  -0.517  -0.465  -0.327
  1 A1    2 A1    3 A1    4 A1    1 B1    5 A1    2 B1    1 B2                 
  0.022
  6 A1                                                                         
 -- Virtual --                   
  0.128   0.141   0.149   0.153   0.160   0.181   0.198   0.248
  7 A1    3 B1    2 B2    8 A1    3 B2    4 B1    9 A1    4 B2                 
  0.269   0.311   0.375   0.388   0.408   0.428   0.433   0.445
 10 A1   11 A1    5 B1   12 A1   13 A1    6 B1   14 A1    5 B2                 
  0.465   0.532   0.596   0.670   0.889   0.898   0.980   1.038
  7 B1    6 B2    8 B1   15 A1   16 A1    9 B1   17 A1   18 A1                 
  1.058   1.080   1.140   1.162   1.164   1.199   1.228   1.278
 19 A1   10 B1   20 A1   11 B1    1 A2   21 A1    7 B2    8 B2                 
  1.334   1.347   1.378   1.531   1.675   1.788   1.793   1.929
  2 A2    9 B2   22 A1   12 B1   23 A1   13 B1   14 B1   10 B2                 
  1.967   1.967   1.967   1.995   2.020   2.067   2.137   2.153
 24 A1   15 B1   11 B2   12 B2   25 A1    3 A2   26 A1   16 B1                 
  2.234   2.384   2.462   2.529   2.608   2.632   2.913   2.914
 13 B2   27 A1    4 A2   28 A1   17 B1   29 A1   30 A1   18 B1                 
  3.333   3.400
 31 A1   19 B1                                                                 
 
 Beta MOs, Restricted
 -- Occupied --                  
-11.187 -11.185  -0.992  -0.732  -0.610  -0.517  -0.465  -0.327
  1 A1    2 A1    3 A1    4 A1    1 B1    5 A1    2 B1    1 B2                 
  0.022
  6 A1                                                                         
 -- Virtual --                   
  0.128   0.141   0.149   0.153   0.160   0.181   0.198   0.248
  7 A1    3 B1    2 B2    8 A1    3 B2    4 B1    9 A1    4 B2                 
  0.269   0.311   0.375   0.388   0.408   0.428   0.433   0.445
 10 A1   11 A1    5 B1   12 A1   13 A1    6 B1   14 A1    5 B2                 
  0.465   0.532   0.596   0.670   0.889   0.898   0.980   1.038
  7 B1    6 B2    8 B1   15 A1   16 A1    9 B1   17 A1   18 A1                 
  1.058   1.080   1.140   1.162   1.164   1.199   1.228   1.278
 19 A1   10 B1   20 A1   11 B1    1 A2   21 A1    7 B2    8 B2                 
  1.334   1.347   1.378   1.531   1.675   1.788   1.793   1.929
  2 A2    9 B2   22 A1   12 B1   23 A1   13 B1   14 B1   10 B2                 
  1.967   1.967   1.967   1.995   2.020   2.067   2.137   2.153
 24 A1   15 B1   11 B2   12 B2   25 A1    3 A2   26 A1   16 B1                 
  2.234   2.384   2.462   2.529   2.608   2.632   2.913   2.914
 13 B2   27 A1    4 A2   28 A1   17 B1   29 A1   30 A1   18 B1                 
  3.333   3.400
 31 A1   19 B1                                                                 

--------------------------------------------------------------------------------
                                   HF Summary                                   
--------------------------------------------------------------------------------
  Energy:                                                  -78.4869478698 a.u.
  Dip. moment [a.u.]:                  [  -0.000000,    0.000000,   18.881257]
  Total dipole [Debye]:                                              47.991376
  <r^2> [a.u.]:                        [  25.059919,   14.956393,  792.847675]
  Total <r^2> [a.u.]:                                               832.863987
--------------------------------------------------------------------------------

--------------------------------------------------------------------------------
                                 MP(2) Summary                                  
--------------------------------------------------------------------------------
  MP energy contribution:                                   -0.2997416610 a.u.
  Total energy:                                            -78.7866895308 a.u.
  Dip. moment [a.u.]:                  [   0.000000,    0.000000,   18.887039]
  Total dipole [Debye]:                                              48.006073
  <r^2> [a.u.]:                        [  25.046065,   14.763628,  792.895897]
  Total <r^2> [a.u.]:                                               832.705589

  Density matrix analysis:
  ------------------------
  NOs
    Occupation of frontier NOs:
       0.0447   1.9370
    Number of electrons: 18.000000
    Number of unpaired electrons: n_u =  0.43255, n_u,nl =  0.04682
    NO participation ratio (PR_NO): 15.338866
  
  
  Mulliken Population Analysis
  Atom      Charge (e)              h+              e-           Del q
  --------------------------------------------------------------------
   1 C       -0.238177        0.089816       -0.101570       -0.011754
   2 C       -0.238456        0.084167       -0.103889       -0.019722
   3 H        0.112526        0.018455       -0.010553        0.007902
   4 H        0.125789        0.018216       -0.010380        0.007836
   5 H        0.112526        0.018455       -0.010553        0.007902
   6 H        0.125789        0.018216       -0.010380        0.007836
   7 H       -0.999998        0.021953       -0.021953        0.000000
  --------------------------------------------------------------------
  Sum:       -1.000000        0.269277       -0.269277        0.000000
  
  Multipole moment analysis of the density matrix
    Molecular charge:                      -1.000000
    Number of electrons:                   18.000000
      Center of electronic charge [Ang]: [ -0.000000,  -0.000000,  -0.555255]
    Total nuclear charge:                  17.000000
      Center of nuclear charge [Ang]:    [ -0.000000,   0.000000,  -0.000000]
    Dipole moment [D]:                     48.006059
      Cartesian components [D]:          [  0.000000,   0.000000,  48.006059]
    RMS size of the density [Ang]:         3.556151
      Cartesian components [Ang]:        [  0.624216,   0.479249,   3.467980]
  
  Exciton analysis of the difference density matrix
    <r_h> [Ang]:                  [  0.000000,   0.000000,  -0.229886]
    <r_e> [Ang]:                  [ -0.000000,  -0.000000,  -0.241250]
    |<r_e - r_h>| [Ang]:            0.011363
    Hole size [Ang]:                3.247238
      Cartesian components [Ang]: [  0.731714,   0.753812,   3.072607]
    Electron size [Ang]:            3.220944
      Cartesian components [Ang]: [  0.721801,   0.606441,   3.079888]
--------------------------------------------------------------------------------
  Starting Davidson for singlet states of irrep B2 ... 
--------------------------------------------------------------------------------
   It NVec Conv  Avg. Norm  Max. Norm  Conv. states           Remark
--------------------------------------------------------------------------------
       100    0  1.044e-01  4.630e-01  0.1024 n n n n n n n n Guess.
    1  110    0  5.642e-03  3.273e-02  0.0594 n n n n n n n n 
    2  120    0  4.572e-04  3.152e-03  0.0592 n n n n n n n n 
    3  130    5  5.238e-05  4.001e-04  0.0592 y y y n n y n n 
    4  140    7  7.214e-06  6.570e-05  0.0592 y y y y y y n n 
    5  150    9  3.614e-02  3.614e-01  0.0592 y y y y y y y y 
    6  160    9  1.977e-02  1.977e-01  0.0592 y y y y y n y y 
    7  170    9  1.985e-02  1.985e-01  0.0592 y y y y y n y y 
    8  171    9  1.941e-02  1.941e-01  0.0592 y y y y y n y y 
    9  179    9  1.902e-02  1.902e-01  0.0592 y y y y y n y y 
   10  182    9  1.911e-02  1.911e-01  0.0592 y y y y y n y y 
   11  182    9  1.911e-02  1.911e-01  0.0592 y y y y y n y y 
   12  182    9  1.911e-02  1.911e-01  0.0592 y y y y y n y y 
   13  192    8  2.013e-02  1.977e-01  0.0592 y y y y y n n y 
   14  193    8  2.007e-02  1.987e-01  0.0592 y y y y y n n y 
   15  195    8  2.002e-02  1.978e-01  0.0592 y y y y y n n y 
   16  197    7  1.998e-02  1.982e-01  0.0592 y y y y y n n n 
   17  200    1  2.097e-02  2.052e-01  0.0592 n n n y n n n n 
   18   20    6  2.129e-02  2.031e-01  0.0592 y y y y n y n n Subspace collapsed.
   19   30    6  2.108e-02  2.040e-01  0.0592 y y y y n y n n 
   20   40    7  2.047e-02  1.919e-01  0.0592 y y y y n y n n 
   21   50    7  1.992e-02  1.971e-01  0.0592 y y y y n n y n 
   22   60    7  1.375e-02  1.368e-01  0.0592 y y y n y n y n 
   23   70    7  1.301e-02  1.297e-01  0.0592 y y y n y n y n 
   24   80    6  2.484e-02  2.205e-01  0.0592 y y y n y n y n 
   25   90    6  2.379e-02  2.153e-01  0.0592 y y y n y n y n 
   26  100    1  2.947e-02  2.917e-01  0.0592 y n n n n n n n 
   27  110    0  4.281e-02  2.918e-01  0.0592 n n n n n n n n 
   28  120    0  8.175e-02  6.736e-01  0.0592 n n n n n n n n 
   29  130    0  8.114e-02  6.730e-01  0.0592 n n n n n n n n 
   30  140    0  8.216e-02  6.748e-01  0.0592 n n n n n n n n 
   31  150    0  7.321e-02  5.283e-01  0.0592 n n n n n n n n 
   32  160    0  6.912e-02  4.431e-01  0.0355 n n n n n n n n 
   33  170    0  6.690e-02  4.028e-01  0.0298 n n n n n n n n 
   34  180    0  5.862e-02  3.003e-01  0.0051 n n n n n n n n 
   35  190    0  5.897e-02  3.155e-01  0.0042 n n n n n n n n 
   36  200    0  7.009e-02  4.435e-01  0.0041 n n n n n n n n 
   37   20    0  4.430e-02  3.436e-01  0.0592 n n n n n n n n Subspace collapsed.
   38   30    0  4.325e-02  3.344e-01  0.0592 n n n n n n n n 
   39   40    0  4.184e-02  3.153e-01  0.0592 n n n n n n n n 
   40   50    0  4.118e-02  3.069e-01  0.0592 n n n n n n n n 
   41   60    0  4.034e-02  2.979e-01  0.0592 n n n n n n n n 
   42   70    0  4.071e-02  2.916e-01  0.0592 n n n n n n n n 
   43   80    0  4.029e-02  2.584e-01  0.0592 n n n n n n n n 
   44   90    1  4.017e-02  2.804e-01  0.0592 y n n n n n n n 
   45  100    1  4.005e-02  3.098e-01  0.0592 y n n n n n n n 
   46  110    4  4.035e-02  3.474e-01  0.0592 y y y n n n y n 
   47  120    5  4.035e-02  3.596e-01  0.0592 y y y n n n y n 
   48  130    5  4.020e-02  3.651e-01  0.0592 y y y n n n y n 
   49  140    5  3.993e-02  3.660e-01  0.0592 y y y n n n y n 
   50  150    5  3.982e-02  3.684e-01  0.0592 y y y n n n y n 
   51  160    5  3.928e-02  3.647e-01  0.0592 y y y n n n y n 
   52  170    5  3.894e-02  3.635e-01  0.0592 y y y n n n y n 
   53  180    1  3.843e-02  3.586e-01  0.0592 y n n n n n n n 
   54  190    0  7.395e-02  6.693e-01  0.0592 n n n n n n n n 
   55  200    0  2.988e-02  1.946e-01  0.0060 n n n n n n n n 
   56   20    3  3.840e-02  3.599e-01  0.0592 y y n n n n n n Subspace collapsed.
   57   30    3  3.836e-02  3.599e-01  0.0592 y y n n n n n n 
   58   40    3  3.822e-02  3.587e-01  0.0592 y y n n n n n n 
   59   50    3  3.779e-02  3.552e-01  0.0592 y y n n n n n n 
   60   60    3  3.765e-02  3.539e-01  0.0592 y y n n n n n n 
   61   70    3  3.742e-02  3.518e-01  0.0592 y y n n n n n n 
   62   80    3  3.743e-02  3.524e-01  0.0592 y y n n n n n n 
   63   90    3  3.731e-02  3.514e-01  0.0592 y y n n n n n n 
   64  100    5  3.750e-02  3.532e-01  0.0592 y y y n n n y n 
   65  110    5  3.737e-02  3.518e-01  0.0592 y y y n n n y n 
   66  120    5  3.748e-02  3.530e-01  0.0592 y y y n n n y n 
   67  130    5  3.709e-02  3.490e-01  0.0592 y y y n n n y n 
   68  140    5  3.717e-02  3.503e-01  0.0592 y y y n n n y n 
   69  150    5  3.671e-02  3.454e-01  0.0592 y y y n n n y n 
   70  160    5  3.675e-02  3.466e-01  0.0592 y y y n n n y n 
   71  170    3  3.590e-02  3.383e-01  0.0592 y y n n n n n n 
   72  180    0  3.623e-02  3.401e-01  0.0592 n n n n n n n n 
   73  190    0  6.487e-02  5.417e-01  0.0508 n n n n n n n n 
   74  200    0  5.197e-02  3.497e-01  0.0086 n n n n n n n n 
   75   20    0  3.866e-02  3.409e-01  0.0592 n n n n n n n n Subspace collapsed.
   76   30    0  3.813e-02  3.383e-01  0.0592 n n n n n n n n 
   77   40    0  3.743e-02  3.376e-01  0.0592 n n n n n n n n 
   78   50    0  3.686e-02  3.340e-01  0.0592 n n n n n n n n 
   79   60    0  3.668e-02  3.336e-01  0.0592 n n n n n n n n 
   80   70    0  3.631e-02  3.309e-01  0.0592 n n n n n n n n 
   81   80    1  3.593e-02  3.283e-01  0.0592 y n n n n n n n 
   82   90    1  3.569e-02  3.274e-01  0.0592 y n n n n n n n 
   83  100    3  3.546e-02  3.266e-01  0.0592 y y y n n n n n 
   84  110    5  3.519e-02  3.256e-01  0.0592 y y y n n n n y 
   85  120    5  3.500e-02  3.248e-01  0.0592 y y y n n n n y 
   86  130    5  3.468e-02  3.233e-01  0.0592 y y y n n n n y 
   87  140    5  3.442e-02  3.225e-01  0.0592 y y y n n n n y 
   88  150    5  3.416e-02  3.208e-01  0.0592 y y y n n n n y 
   89  160    5  3.397e-02  3.205e-01  0.0592 y y y n n n n y 
   90  170    5  3.352e-02  3.164e-01  0.0592 y y y n n n n y 
   91  180    3  3.323e-02  3.149e-01  0.0592 y y n n n n n n 
   92  190    0  3.314e-02  3.123e-01  0.0592 n n n n n n n n 
   93  200    0  6.766e-02  5.800e-01  0.0577 n n n n n n n n 
   94   20    0  3.286e-02  3.120e-01  0.0592 n n n n n n n n Subspace collapsed.
   95   30    1  3.265e-02  3.103e-01  0.0592 y n n n n n n n 
   96   40    1  3.220e-02  3.066e-01  0.0592 y n n n n n n n 
   97   50    2  3.186e-02  3.034e-01  0.0592 y y n n n n n n 
   98   60    2  3.137e-02  2.985e-01  0.0592 y y n n n n n n 
   99   70    2  3.081e-02  2.929e-01  0.0592 y y n n n n n n 
  100   80    2  3.059e-02  2.909e-01  0.0592 y y n n n n n n 
  101   90    2  3.008e-02  2.858e-01  0.0592 y y n n n n n n 
  102  100    4  2.999e-02  2.851e-01  0.0592 y y y n n n n n 
  103  110    5  2.960e-02  2.814e-01  0.0592 y y y n n n n y 
  104  120    5  2.940e-02  2.798e-01  0.0592 y y y n n n n y 
  105  130    5  2.947e-02  2.811e-01  0.0592 y y y n n n n y 
  106  140    5  2.974e-02  2.841e-01  0.0592 y y y n n n n y 
  107  150    5  2.938e-02  2.806e-01  0.0592 y y y n n n n y 
  108  160    5  2.945e-02  2.814e-01  0.0592 y y y n n n n y 
  109  170    4  2.872e-02  2.738e-01  0.0592 y y y n n n n n 
  110  180    0  2.865e-02  2.731e-01  0.0592 n n n n n n n n 
  111  190    0  3.165e-02  2.482e-01  0.0592 n n n n n n n n 
  112  200    0  9.098e-02  7.331e-01  0.0341 n n n n n n n n 
  113   20    0  2.803e-02  2.666e-01  0.0592 n n n n n n n n Subspace collapsed.
  114   30    1  2.770e-02  2.652e-01  0.0592 n n n n n n n n 
  115   40    1  2.763e-02  2.647e-01  0.0592 n n n n n n n n 
  116   50    1  2.744e-02  2.630e-01  0.0592 n n n n n n n n 
  117   60    1  2.735e-02  2.621e-01  0.0592 n n n n n n n n 
  118   70    2  2.727e-02  2.615e-01  0.0592 n n n n n n n n 
  119   80    2  2.716e-02  2.605e-01  0.0592 n n n n n n n n 
--------------------------------------------------------------------------------
  Davidson Summary: 
 ------------------------------------------------------------
  State  0: excitation energy =   0.0592 a.u.   (not converged)
  State  1: excitation energy =   0.0770 a.u.   (not converged)
  State  2: excitation energy =   0.1408 a.u.   (not converged)
  State  3: excitation energy =   0.2353 a.u.   (not converged)
  State  4: excitation energy =   0.2589 a.u.   (not converged)
  State  5: excitation energy =   0.2656 a.u.   (not converged)
  State  6: excitation energy =   0.2692 a.u.   (not converged)
  State  7: excitation energy =   0.2847 a.u.   (not converged)
  State  8: excitation energy =   0.3036 a.u.   (converged)
  State  9: excitation energy =   0.3050 a.u.   (converged)
 ------------------------------------------------------------


--------------------------------------------------------------------------------
                   State-averaged natural transition orbitals
--------------------------------------------------------------------------------
--------------------------------------------------------------------------------

--------------------------------------------------------------------------------
                             Excited State Summary
--------------------------------------------------------------------------------
--------------------------------------------------------------------------------

  Excited state 1 (singlet, B2)                                [not converged]
  ----------------------------------------------------------------------------
  Term symbol:  1 (1) B2                                    R^2 =  5.99511e-05

  Total energy:                                            -78.7275063286 a.u.
  Excitation energy:                                               1.610457 eV



  V1^2 = 0.9554, V2^2 = 0.0446

  Important amplitudes:
      occ i      occ j       vir a       vir b          v   
    ---------------------------------------------------------
     6 (A1) A               2 (B2) A                  0.4928
     6 (A1) A               3 (B2) A                 -0.4500
    ---------------------------------------------------------
  ----------------------------------------------------------------------------


  Excited state 2 (singlet, B2)                                [not converged]
  ----------------------------------------------------------------------------
  Term symbol:  2 (1) B2                                    R^2 =  2.65038e-05

  Total energy:                                            -78.7097386534 a.u.
  Excitation energy:                                               2.093940 eV



  V1^2 = 0.9774, V2^2 = 0.0226

  Important amplitudes:
      occ i      occ j       vir a       vir b          v   
    ---------------------------------------------------------
     6 (A1) A               3 (B2) A                 -0.5211
     6 (A1) A               2 (B2) A                 -0.4643
    ---------------------------------------------------------
  ----------------------------------------------------------------------------


  Excited state 3 (singlet, B2)                                [not converged]
  ----------------------------------------------------------------------------
  Term symbol:  3 (1) B2                                    R^2 =  1.58571e-05

  Total energy:                                            -78.6459356678 a.u.
  Excitation energy:                                               3.830107 eV



  V1^2 = 0.9571, V2^2 = 0.0429

  Important amplitudes:
      occ i      occ j       vir a       vir b          v   
    ---------------------------------------------------------
     6 (A1) A               4 (B2) A                 -0.6597
     6 (A1) A               2 (B2) A                  0.1647
    ---------------------------------------------------------
  ----------------------------------------------------------------------------


  Excited state 4 (singlet, B2)                                [not converged]
  ----------------------------------------------------------------------------
  Term symbol:  4 (1) B2                                    R^2 =  7.64609e-02

  Total energy:                                            -78.5513410877 a.u.
  Excitation energy:                                               6.404157 eV



  V1^2 = 0.0000, V2^2 = 1.0000

  Important amplitudes:
      occ i      occ j       vir a       vir b          v   
    ---------------------------------------------------------
     6 (A1) A   6 (A1) B    7 (A1) A    2 (B2) B      0.3527
     6 (A1) A   6 (A1) B    7 (A1) A    3 (B2) B      0.0169
    ---------------------------------------------------------
  ----------------------------------------------------------------------------


  Excited state 5 (singlet, B2)                                [not converged]
  ----------------------------------------------------------------------------
  Term symbol:  5 (1) B2                                    R^2 =  7.61277e-03

  Total energy:                                            -78.5277410011 a.u.
  Excitation energy:                                               7.046348 eV



  V1^2 = 0.0000, V2^2 = 1.0000

  Important amplitudes:
      occ i      occ j       vir a       vir b          v   
    ---------------------------------------------------------
     6 (A1) A   6 (A1) B    8 (A1) A    2 (B2) B     -0.3535
     6 (A1) A   6 (A1) B    7 (A1) A    3 (B2) B      0.0049
    ---------------------------------------------------------
  ----------------------------------------------------------------------------


  Excited state 6 (singlet, B2)                                [not converged]
  ----------------------------------------------------------------------------
  Term symbol:  6 (1) B2                                    R^2 =  2.60495e-01

  Total energy:                                            -78.5210675952 a.u.
  Excitation energy:                                               7.227940 eV



  V1^2 = 0.0003, V2^2 = 0.9997

  Important amplitudes:
      occ i      occ j       vir a       vir b          v   
    ---------------------------------------------------------
     6 (A1) A   6 (A1) B    7 (A1) A    3 (B2) B      0.3472
     6 (A1) A   6 (A1) B   10 (A1) A    3 (B2) B     -0.0354
    ---------------------------------------------------------
  ----------------------------------------------------------------------------


  Excited state 7 (singlet, B2)                                [not converged]
  ----------------------------------------------------------------------------
  Term symbol:  7 (1) B2                                    R^2 =  2.92813e-05

  Total energy:                                            -78.5174961256 a.u.
  Excitation energy:                                               7.325125 eV



  V1^2 = 0.0000, V2^2 = 1.0000

  Important amplitudes:
      occ i      occ j       vir a       vir b          v   
    ---------------------------------------------------------
     6 (A1) A   6 (A1) B    8 (A1) A    3 (B2) B     -0.3536
     6 (A1) A               3 (B2) A                 -0.0013
    ---------------------------------------------------------
  ----------------------------------------------------------------------------


  Excited state 8 (singlet, B2)                                [not converged]
  ----------------------------------------------------------------------------
  Term symbol:  8 (1) B2                                    R^2 =  8.52773e-05

  Total energy:                                            -78.5020338161 a.u.
  Excitation energy:                                               7.745876 eV



  V1^2 = 0.9518, V2^2 = 0.0482

  Important amplitudes:
      occ i      occ j       vir a       vir b          v   
    ---------------------------------------------------------
     1 (B2) A               7 (A1) A                  0.5116
     1 (B2) A               8 (A1) A                 -0.3399
    ---------------------------------------------------------
  ----------------------------------------------------------------------------


  Excited state 9 (singlet, B2)                                    [converged]
  ----------------------------------------------------------------------------
  Term symbol:  9 (1) B2                                    R^2 =  6.21140e-07

  Total energy:                                            -78.4830519149 a.u.
  Excitation energy:                                               8.262400 eV

  Osc. strength:                                                      0.000000
  Trans. dip. moment [a.u.]:           [  -0.000000,    0.000000,    0.000000]
  <i|r^2|0> [a.u.]:                    [  -0.000000,   -0.000000,    0.000000]

  Dip. moment [a.u.]:                  [   0.000000,    0.000000,  -23.847861]
  Total dipole [Debye]:                                              60.615227
  <r^2> [a.u.]:                        [  38.638898,   44.206002,  109.873468]
  Total <r^2> [a.u.]:                                               192.718369

  V1^2 = 0.0000, V2^2 = 1.0000

  Important amplitudes:
      occ i      occ j       vir a       vir b          v   
    ---------------------------------------------------------
     6 (A1) A   6 (A1) B    9 (A1) A    2 (B2) B     -0.3536
     6 (A1) A               2 (B2) A                 -0.0004
    ---------------------------------------------------------

  Density matrix analysis:
  ------------------------
  NOs
    Occupation of frontier NOs:
       1.0018   1.0071
    Number of electrons: 18.000000
    Number of unpaired electrons: n_u =  2.39184, n_u,nl =  2.04712
    NO participation ratio (PR_NO):  2.868314
  
  
  Mulliken Population Analysis
  Atom      Charge (e)              h+              e-           Del q
  --------------------------------------------------------------------
   1 C       -3.160922        0.000008       -2.922753       -2.922745
   2 C        0.554130       -0.000006        0.792592        0.792586
   3 H        0.152109       -0.000000        0.039583        0.039583
   4 H        0.151287        0.000000        0.025498        0.025498
   5 H        0.152109       -0.000000        0.039583        0.039583
   6 H        0.151287        0.000000        0.025498        0.025498
   7 H        1.000000        1.999998       -0.000000        1.999998
  --------------------------------------------------------------------
  Sum:       -1.000000        2.000000       -2.000000        0.000000
  
  Multipole moment analysis of the density matrix
    Molecular charge:                      -1.000000
    Number of electrons:                   18.000000
      Center of electronic charge [Ang]: [ -0.000000,  -0.000000,   0.701097]
    Total nuclear charge:                  17.000000
      Center of nuclear charge [Ang]:    [ -0.000000,   0.000000,  -0.000000]
    Dipole moment [D]:                     60.615209
      Cartesian components [D]:          [  0.000000,   0.000000, -60.615209]
    RMS size of the density [Ang]:         1.583228
      Cartesian components [Ang]:        [  0.775313,   0.829288,   1.103531]
  
  Exciton analysis of the difference density matrix
    <r_h> [Ang]:                  [ -0.000000,   0.000000, -10.037160]
    <r_e> [Ang]:                  [ -0.000000,  -0.000000,   1.270009]
    |<r_e - r_h>| [Ang]:           11.307169
    Hole size [Ang]:                1.111242
      Cartesian components [Ang]: [  0.641560,   0.641560,   0.641607]
    Electron size [Ang]:            3.280117
      Cartesian components [Ang]: [  1.521443,   2.129308,   1.977479]

  Transition density matrix analysis:
  -----------------------------------
  
  CT numbers (Mulliken)
    omega =     0.0000
    <Phe> =    -0.0001
  
  Exciton analysis of the transition density matrix
    ... vanishing.

  Decomposition into state-averaged NTOs
                   omega =   0.0%
  ----------------------------------------------------------------------------


  Excited state 10 (singlet, B2)                                    [converged]
  ----------------------------------------------------------------------------
  Term symbol:  10 (1) B2                                   R^2 =  2.43063e-06

  Total energy:                                            -78.4816787343 a.u.
  Excitation energy:                                               8.299766 eV

  Osc. strength:                                                      0.034343
  Trans. dip. moment [a.u.]:           [   0.000000,   -0.410968,    0.000000]
  <i|r^2|0> [a.u.]:                    [  -0.000000,   -0.000000,   -0.000000]

  Dip. moment [a.u.]:                  [   0.000000,   -0.000000,   19.494672]
  Total dipole [Debye]:                                              49.550523
  <r^2> [a.u.]:                        [  31.139915,   18.979447,  812.169672]
  Total <r^2> [a.u.]:                                               862.289034

  V1^2 = 0.9500, V2^2 = 0.0500

  Important amplitudes:
      occ i      occ j       vir a       vir b          v   
    ---------------------------------------------------------
     1 (B2) A               8 (A1) A                 -0.4956
     1 (B2) A               7 (A1) A                 -0.4197
    ---------------------------------------------------------

  Density matrix analysis:
  ------------------------
  NOs
    Occupation of frontier NOs:
       0.9841   0.9896
    Number of electrons: 18.000000
    Number of unpaired electrons: n_u =  2.31987, n_u,nl =  2.02620
    NO participation ratio (PR_NO):  2.753471
  
  
  Mulliken Population Analysis
  Atom      Charge (e)              h+              e-           Del q
  --------------------------------------------------------------------
   1 C       -1.594491        0.488721       -1.845035       -1.356314
   2 C        0.915107        0.563043        0.590520        1.153563
   3 H        0.185769        0.087734       -0.014491        0.073243
   4 H        0.153922        0.084912       -0.056779        0.028133
   5 H        0.185769        0.087734       -0.014491        0.073243
   6 H        0.153922        0.084912       -0.056779        0.028133
   7 H       -0.999998        0.000247       -0.000247       -0.000000
  --------------------------------------------------------------------
  Sum:       -1.000000        1.397301       -1.397301        0.000000
  
  Multipole moment analysis of the density matrix
    Molecular charge:                      -1.000000
    Number of electrons:                   18.000000
      Center of electronic charge [Ang]: [ -0.000000,   0.000000,  -0.573119]
    Total nuclear charge:                  17.000000
      Center of nuclear charge [Ang]:    [ -0.000000,   0.000000,  -0.000000]
    Dipole moment [D]:                     49.550508
      Cartesian components [D]:          [  0.000000,  -0.000000,  49.550508]
    RMS size of the density [Ang]:         3.617497
      Cartesian components [Ang]:        [  0.696023,   0.543384,   3.508072]
  
  Exciton analysis of the difference density matrix
    <r_h> [Ang]:                  [  0.000000,   0.000000,   0.616696]
    <r_e> [Ang]:                  [ -0.000000,   0.000000,   0.386577]
    |<r_e - r_h>| [Ang]:            0.230119
    Hole size [Ang]:                1.561516
      Cartesian components [Ang]: [  0.775776,   0.860453,   1.046960]
    Electron size [Ang]:            2.932222
      Cartesian components [Ang]: [  1.350214,   1.259070,   2.278068]

  Transition density matrix analysis:
  -----------------------------------
  
  CT numbers (Mulliken)
    omega =     0.9192
    <Phe> =    -0.0064
  
  Exciton analysis of the transition density matrix
    Trans. dipole moment [D]:             0.522288
      Cartesian components [D]:         [  0.000000,  -0.522288,   0.000000]
    <r_h> [Ang]:                        [  0.000000,  -0.000000,   0.634455]
    <r_e> [Ang]:                        [ -0.000000,   0.000000,   0.269917]
    |<r_e - r_h>| [Ang]:                  0.364538
    Hole size [Ang]:                      1.255165
      Cartesian components [Ang]:       [  0.509440,   0.861604,   0.757330]
    Electron size [Ang]:                  3.353963
      Cartesian components [Ang]:       [  1.538261,   1.449186,   2.604358]
    RMS electron-hole separation [Ang]:   3.589581
      Cartesian components [Ang]:       [  1.619588,   1.676501,   2.729720]
    Covariance(r_h, r_e) [Ang^2]:         0.036151
    Correlation coefficient:              0.008587
    Center-of-mass size [Ang]:            1.795606
      Cartesian components [Ang]:       [  0.810631,   0.847695,   1.359593]

  Decomposition into state-averaged NTOs
    H- 0 -> L+ 0: -0.6771 ( 91.7%)
                   omega =  91.9%
  ----------------------------------------------------------------------------


--------------------------------------------------------------------------------
  Time of ADC calculation:  CPU 2224.79 s  wall 574.78 s
================================================================================
 
 --------------------------------------------------------------
             Orbital Energies (a.u.) and Symmetries
 --------------------------------------------------------------
 
 Alpha MOs, Restricted
 -- Occupied --                  
-11.187 -11.185  -0.992  -0.732  -0.610  -0.517  -0.465  -0.327
  1 A1    2 A1    3 A1    4 A1    1 B1    5 A1    2 B1    1 B2                 
  0.022
  6 A1                                                                         
 -- Virtual --                   
  0.128   0.141   0.149   0.153   0.160   0.181   0.198   0.248
  7 A1    3 B1    2 B2    8 A1    3 B2    4 B1    9 A1    4 B2                 
  0.269   0.311   0.375   0.388   0.408   0.428   0.433   0.445
 10 A1   11 A1    5 B1   12 A1   13 A1    6 B1   14 A1    5 B2                 
  0.465   0.532   0.596   0.670   0.889   0.898   0.980   1.038
  7 B1    6 B2    8 B1   15 A1   16 A1    9 B1   17 A1   18 A1                 
  1.058   1.080   1.140   1.162   1.164   1.199   1.228   1.278
 19 A1   10 B1   20 A1   11 B1    1 A2   21 A1    7 B2    8 B2                 
  1.334   1.347   1.378   1.531   1.675   1.788   1.793   1.929
  2 A2    9 B2   22 A1   12 B1   23 A1   13 B1   14 B1   10 B2                 
  1.967   1.967   1.967   1.995   2.020   2.067   2.137   2.153
 24 A1   15 B1   11 B2   12 B2   25 A1    3 A2   26 A1   16 B1                 
  2.234   2.384   2.462   2.529   2.608   2.632   2.913   2.914
 13 B2   27 A1    4 A2   28 A1   17 B1   29 A1   30 A1   18 B1                 
  3.333   3.400
 31 A1   19 B1                                                                 
 
 Beta MOs, Restricted
 -- Occupied --                  
-11.187 -11.185  -0.992  -0.732  -0.610  -0.517  -0.465  -0.327
  1 A1    2 A1    3 A1    4 A1    1 B1    5 A1    2 B1    1 B2                 
  0.022
  6 A1                                                                         
 -- Virtual --                   
  0.128   0.141   0.149   0.153   0.160   0.181   0.198   0.248
  7 A1    3 B1    2 B2    8 A1    3 B2    4 B1    9 A1    4 B2                 
  0.269   0.311   0.375   0.388   0.408   0.428   0.433   0.445
 10 A1   11 A1    5 B1   12 A1   13 A1    6 B1   14 A1    5 B2                 
  0.465   0.532   0.596   0.670   0.889   0.898   0.980   1.038
  7 B1    6 B2    8 B1   15 A1   16 A1    9 B1   17 A1   18 A1                 
  1.058   1.080   1.140   1.162   1.164   1.199   1.228   1.278
 19 A1   10 B1   20 A1   11 B1    1 A2   21 A1    7 B2    8 B2                 
  1.334   1.347   1.378   1.531   1.675   1.788   1.793   1.929
  2 A2    9 B2   22 A1   12 B1   23 A1   13 B1   14 B1   10 B2                 
  1.967   1.967   1.967   1.995   2.020   2.067   2.137   2.153
 24 A1   15 B1   11 B2   12 B2   25 A1    3 A2   26 A1   16 B1                 
  2.234   2.384   2.462   2.529   2.608   2.632   2.913   2.914
 13 B2   27 A1    4 A2   28 A1   17 B1   29 A1   30 A1   18 B1                 
  3.333   3.400
 31 A1   19 B1                                                                 
 --------------------------------------------------------------
 
          Ground-State Mulliken Net Atomic Charges

     Atom                 Charge (a.u.)
  ----------------------------------------
      1 C                    -0.226422
      2 C                    -0.218734
      3 H                     0.104624
      4 H                     0.117953
      5 H                     0.104624
      6 H                     0.117953
      7 H                    -0.999998
  ----------------------------------------
  Sum of atomic charges =    -1.000000

 -----------------------------------------------------------------
                    Cartesian Multipole Moments
 -----------------------------------------------------------------
    Charge (ESU x 10^10)
                -4.8032
    Dipole Moment (Debye)
         X      -0.0000      Y       0.0000      Z      47.9914
       Tot      47.9914
    Quadrupole Moments (Debye-Ang)
        XX     -15.9132     XY      -0.0000     YY     -20.1169
        XZ       0.0000     YZ       0.0000     ZZ    -501.0026
    Octopole Moments (Debye-Ang^2)
       XXX      -0.0000    XXY       0.0000    XYY      -0.0000
       YYY       0.0000    XXZ      31.9630    XYZ      -0.0000
       YYZ      29.3580    XZZ      -0.0000    YZZ      -0.0000
       ZZZ    4950.8589
    Hexadecapole Moments (Debye-Ang^3)
      XXXX     -32.7450   XXXY      -0.0000   XXYY     -11.0093
      XYYY      -0.0000   YYYY     -27.7154   XXXZ      -0.0000
      XXYZ      -0.0000   XYYZ      -0.0000   YYYZ       0.0000
      XXZZ    -418.4128   XYZZ      -0.0000   YYZZ    -422.5491
      XZZZ       0.0000   YZZZ       0.0000   ZZZZ  -51245.8656
 -----------------------------------------------------------------
 Total job time:  657.47s(wall), 2270.42s(cpu) 
 Fri Mar 25 19:03:03 2022

        *************************************************************
        *                                                           *
        *  Thank you very much for using Q-Chem.  Have a nice day.  *
        *                                                           *
        *************************************************************


