/src/tsommerfeld/qchem/exe/qcprog.exe .input1.027778.6013.qcin.1 /src/jdavis/qchem.scratch/qchem6013/

                  Welcome to Q-Chem
     A Quantum Leap Into The Future Of Chemistry


 Q-Chem 5.4 (devel), Q-Chem, Inc., Pleasanton, CA (2021)

 E. Epifanovsky,  A. T. B. Gilbert,  Xintian Feng,  Joonho Lee,  Yuezhi Mao,  
 N. Mardirossian,  P. Pokhilko,  A. White,  M. Wormit,  M. P. Coons,  
 A. L. Dempwolff,  Zhengting Gan,  D. Hait,  P. R. Horn,  L. D. Jacobson,  
 I. Kaliman,  J. Kussmann,  A. W. Lange,  Ka Un Lao,  D. S. Levine,  Jie Liu,  
 S. C. McKenzie,  A. F. Morrison,  K. Nanda,  F. Plasser,  D. R. Rehn,  
 M. L. Vidal,  Zhi-Qiang You,  Ying Zhu,  B. Alam,  B. Albrecht,  
 A. Aldossary,  E. Alguire,  J. H. Andersen,  D. Barton,  K. Begam,  A. Behn,  
 Y. A. Bernard,  E. J. Berquist,  H. Burton,  A. Carreras,  K. Carter-Fenk,  
 R. Chakraborty,  A. D. Chien,  K. D. Closser,  V. Cofer-Shabica,  
 S. Dasgupta,  Jia Deng,  M. de Wergifosse,  M. Diedenhofen,  Hainam Do,  
 S. Ehlert,  Po-Tung Fang,  S. Fatehi,  Qingguo Feng,  T. Friedhoff,  
 J. Gayvert,  Qinghui Ge,  G. Gidofalvi,  M. Goldey,  J. Gomes,  
 C. Gonzalez-Espinoza,  S. Gulania,  A. Gunina,  M. W. D. Hanson-Heine,  
 P. H. P. Harbach,  A. W. Hauser,  M. F. Herbst,  M. Hernandez Vera,  
 M. Hodecker,  Z. C. Holden,  S. Houck,  Xunkun Huang,  Kerwin Hui,  
 B. C. Huynh,  M. Ivanov,  Hyunjun Ji,  Hanjie Jiang,  B. Kaduk,  S. Kaehler,  
 K. Khistyaev,  Jaehoon Kim,  P. Klunzinger,  Z. Koczor-Benda,  
 Joong Hoon Koh,  D. Kosenkov,  L. Koulias,  T. Kowalczyk,  C. M. Krauter,  
 K. Kue,  A. Kunitsa,  T. Kus,  A. Landau,  K. V. Lawler,  D. Lefrancois,  
 S. Lehtola,  Rain Li,  Yi-Pei Li,  Jiashu Liang,  M. Liebenthal,  
 Hung-Hsuan Lin,  You-Sheng Lin,  Fenglai Liu,  Kuan-Yu Liu,  
 M. Loipersberger,  A. Luenser,  A. Manjanath,  P. Manohar,  E. Mansoor,  
 S. F. Manzer,  Shan-Ping Mao,  A. V. Marenich,  T. Markovich,  S. Mason,  
 S. A. Maurer,  P. F. McLaughlin,  M. F. S. J. Menger,  J.-M. Mewes,  
 S. A. Mewes,  P. Morgante,  J. W. Mullinax,  K. J. Oosterbaan,  G. Paran,  
 Alexander C. Paul,  Suranjan K. Paul,  F. Pavosevic,  Zheng Pei,  S. Prager,  
 E. I. Proynov,  E. Ramos,  B. Rana,  A. E. Rask,  A. Rettig,  R. M. Richard,  
 F. Rob,  E. Rossomme,  T. Scheele,  M. Scheurer,  M. Schneider,  
 N. Sergueev,  S. M. Sharada,  W. Skomorowski,  D. W. Small,  C. J. Stein,  
 Yu-Chuan Su,  E. J. Sundstrom,  Zhen Tao,  J. Thirman,  T. Tsuchimochi,  
 N. M. Tubman,  S. P. Veccham,  O. Vydrov,  J. Wenzel,  J. Witte,  A. Yamada,  
 Kun Yao,  S. Yeganeh,  S. R. Yost,  A. Zech,  Igor Ying Zhang,  Xing Zhang,  
 Yu Zhang,  D. Zuev,  A. Aspuru-Guzik,  A. T. Bell,  N. A. Besley,  
 K. B. Bravaya,  B. R. Brooks,  D. Casanova,  Jeng-Da Chai,  S. Coriani,  
 C. J. Cramer,  A. E. DePrince, III,  R. A. DiStasio Jr.,  A. Dreuw,  
 B. D. Dunietz,  T. R. Furlani,  W. A. Goddard III,  S. Grimme,  
 S. Hammes-Schiffer,  T. Head-Gordon,  W. J. Hehre,  Chao-Ping Hsu,  
 T.-C. Jagau,  Yousung Jung,  A. Klamt,  Jing Kong,  D. S. Lambrecht,  
 WanZhen Liang,  N. J. Mayhall,  C. W. McCurdy,  J. B. Neaton,  
 C. Ochsenfeld,  J. A. Parkhill,  R. Peverati,  V. A. Rassolov,  Yihan Shao,  
 L. V. Slipchenko,  T. Stauch,  R. P. Steele,  J. E. Subotnik,  
 A. J. W. Thom,  A. Tkatchenko,  D. G. Truhlar,  T. Van Voorhis,  
 T. A. Wesolowski,  K. B. Whaley,  H. L. Woodcock III,  P. M. Zimmerman,  
 S. Faraji,  P. M. W. Gill,  M. Head-Gordon,  J. M. Herbert,  A. I. Krylov

 Additional authors for Version 5.4.1: 
 S. Kotaru,  Shaozhi Li,  Xiangyuan Li,  F. Matz,  A. Molle,  Haisheng Ren,  
 Yingli Su,  Hung-Yi Tsai,  C. Utku,  Fang Wang

 Contributors to earlier versions of Q-Chem not listed above: 
 R. D. Adamson,  B. Austin,  R. Baer,  J. Baker,  G. J. O. Beran,  
 K. Brandhorst,  S. T. Brown,  E. F. C. Byrd,  A. K. Chakraborty,  
 G. K. L. Chan,  Chun-Min Chang,  Yunqing Chen,  C.-L. Cheng,  
 Siu Hung Chien,  D. M. Chipman,  D. L. Crittenden,  H. Dachsel,  
 R. J. Doerksen,  A. D. Dutoi,  R. G. Edgar,  J. Fosso-Tande,  
 L. Fusti-Molnar,  D. Ghosh,  A. Ghysels,  A. Golubeva-Zadorozhnaya,  
 J. Gonthier,  M. S. Gordon,  S. R. Gwaltney,  G. Hawkins,  J. E. Herr,  
 A. Heyden,  S. Hirata,  E. G. Hohenstein,  G. Kedziora,  F. J. Keil,  
 C. Kelley,  Jihan Kim,  R. A. King,  R. Z. Khaliullin,  P. P. Korambath,  
 W. Kurlancheek,  A. Laurent,  A. M. Lee,  M. S. Lee,  S. V. Levchenko,  
 Ching Yeh Lin,  D. Liotard,  E. Livshits,  R. C. Lochan,  I. Lotan,  
 L. A. Martinez-Martinez,  P. E. Maslen,  N. Nair,  D. P. O'Neill,  
 D. Neuhauser,  E. Neuscamman,  C. M. Oana,  R. Olivares-Amaya,  R. Olson,  
 T. M. Perrine,  B. Peters,  P. A. Pieniazek,  A. Prociuk,  Y. M. Rhee,  
 J. Ritchie,  M. A. Rohrdanz,  E. Rosta,  N. J. Russ,  H. F. Schaefer III,  
 M. W. Schmidt,  N. E. Schultz,  S. Sharma,  N. Shenvi,  C. D. Sherrill,  
 A. C. Simmonett,  A. Sodt,  T. Stein,  D. Stuck,  K. S. Thanthiriwatte,  
 V. Vanovschi,  L. Vogt,  Tao Wang,  A. Warshel,  M. A. Watson,  
 C. F. Williams,  Q. Wu,  X. Xu,  Jun Yang,  W. Zhang,  Yan Zhao

 Please cite Q-Chem as follows:
 Y. Shao et al., Mol. Phys. 113, 184-215 (2015)
 DOI: 10.1080/00268976.2014.952696

 Q-Chem 5.4.1 for Intel X86 EM64T Linux

 Parts of Q-Chem use Armadillo 9.900.5 (Nocturnal Misbehaviour).
 http://arma.sourceforge.net/

 Q-Chem begins on Fri Mar 25 16:55:16 2022  

 Host: node01
0

     Scratch files written to /src/jdavis/qchem.scratch/qchem6013//
 Processing $rem in /src/tsommerfeld/qchem/config/preferences:
 Processing $rem in /home/jdavis/.qchemrc:

 Checking the input file for inconsistencies... 	...done.

--------------------------------------------------------------
User input:
--------------------------------------------------------------
$molecule
-1 1
C         0.0000000000    0.0000000000    0.8417902907
C         0.0000000000    0.0000000000   -0.4872097093
H         0.9623488518    0.0000000000    1.3363703127
H         0.9623489048    0.0000000000   -0.9817896873
H        -0.9623488518    0.0000000000    1.3363703127
H        -0.9623489048    0.0000000000   -0.9817896873
H         0.0000000000    0.0000000000   -10.4872097093
$end

$rem
   METHOD adc(2)
   BASIS gen
   PURECART 11
   EE_STATES [0,0,0,10]
   scf_convergence 8
   ADC_DAVIDSON_MAXITER 120
   ADC_DAVIDSON_MAXSUBSPACE 200
   adc_nguess_singles 100
   THRESH 14
   S2THRESH 14
   adc_davidson_conv 5
   adc_davidson_thresh 14
   THREADS 10
   MEM_TOTAL 95000
   STATE_ANALYSIS TRUE
$end
$basis
C 1
S   9   1.00
      6.665000D+03           6.920000D-04
      1.000000D+03           5.329000D-03
      2.280000D+02           2.707700D-02
      6.471000D+01           1.017180D-01
      2.106000D+01           2.747400D-01
      7.495000D+00           4.485640D-01
      2.797000D+00           2.850740D-01
      5.215000D-01           1.520400D-02
      1.596000D-01          -3.191000D-03
S   9   1.00
      6.665000D+03          -1.460000D-04
      1.000000D+03          -1.154000D-03
      2.280000D+02          -5.725000D-03
      6.471000D+01          -2.331200D-02
      2.106000D+01          -6.395500D-02
      7.495000D+00          -1.499810D-01
      2.797000D+00          -1.272620D-01
      5.215000D-01           5.445290D-01
      1.596000D-01           5.804960D-01
S   1   1.00
      1.596000D-01           1.000000D+00
S   1   1.00
      0.0469000              1.0000000
P   4   1.00
      9.439000D+00           3.810900D-02
      2.002000D+00           2.094800D-01
      5.456000D-01           5.085570D-01
      1.517000D-01           4.688420D-01
P   1   1.00
      1.517000D-01           1.000000D+00
P   1   1.00
      0.0623656      1.0000000
P   1   1.00
      0.0311828      1.0000000
D   1   1.00
      5.500000D-01           1.0000000
****
C 2
S   9   1.00
      6.665000D+03           6.920000D-04
      1.000000D+03           5.329000D-03
      2.280000D+02           2.707700D-02
      6.471000D+01           1.017180D-01
      2.106000D+01           2.747400D-01
      7.495000D+00           4.485640D-01
      2.797000D+00           2.850740D-01
      5.215000D-01           1.520400D-02
      1.596000D-01          -3.191000D-03
S   9   1.00
      6.665000D+03          -1.460000D-04
      1.000000D+03          -1.154000D-03
      2.280000D+02          -5.725000D-03
      6.471000D+01          -2.331200D-02
      2.106000D+01          -6.395500D-02
      7.495000D+00          -1.499810D-01
      2.797000D+00          -1.272620D-01
      5.215000D-01           5.445290D-01
      1.596000D-01           5.804960D-01
S   1   1.00
      1.596000D-01           1.000000D+00
S   1   1.00
      0.0469000              1.0000000
P   4   1.00
      9.439000D+00           3.810900D-02
      2.002000D+00           2.094800D-01
      5.456000D-01           5.085570D-01
      1.517000D-01           4.688420D-01
P   1   1.00
      1.517000D-01           1.000000D+00
P   1   1.00
      0.0623656      1.0000000
P   1   1.00
      0.0311828      1.0000000
D   1   1.00
      5.500000D-01           1.0000000
****
H 3
cc-pVDZ
****
H 4
cc-pVDZ
****
H 5
cc-pVDZ
****
H 6
cc-pVDZ
****
H 7
aug-cc-pVDZ
****
$end
--------------------------------------------------------------
 ----------------------------------------------------------------
             Standard Nuclear Orientation (Angstroms)
    I     Atom           X                Y                Z
 ----------------------------------------------------------------
    1      C       0.0000000000     0.0000000000     1.2918235242
    2      C       0.0000000000     0.0000000000    -0.0371764758
    3      H       0.9623488518     0.0000000000     1.7864035462
    4      H       0.9623489048     0.0000000000    -0.5317564538
    5      H      -0.9623488518     0.0000000000     1.7864035462
    6      H      -0.9623489048     0.0000000000    -0.5317564538
    7      H       0.0000000000     0.0000000000   -10.0371764758
 ----------------------------------------------------------------
 Molecular Point Group                 C2v   NOp =  4
 Largest Abelian Subgroup              C2v   NOp =  4
 Nuclear Repulsion Energy =          34.38697142 hartrees
 There are        9 alpha and        9 beta electrons
 Requested basis set is non-standard
 There are 33 shells and 67 basis functions
 Total memory of 95000 MB is distributed as follows: 
   MEM_STATIC is set to 192 MB
   QALLOC/CCMAN JOB total memory use is  94808 MB
 Warning: actual memory use might exceed 95000 MB

 Total QAlloc Memory Limit  95000 MB
 Mega-Array Size       188 MB
 MEM_STATIC part       192 MB

                       Distance Matrix (Angstroms)
             C (  1)   C (  2)   H (  3)   H (  4)   H (  5)   H (  6)
   C (  2)  1.329000
   H (  3)  1.082000  2.061931
   H (  4)  2.061931  1.082000  2.318160
   H (  5)  1.082000  2.061931  1.924698  3.013026
   H (  6)  2.061931  1.082000  3.013026  1.924698  2.318160
   H (  7) 11.329000 10.000000 11.862679  9.554011 11.862679  9.554011

 
 A cutoff of  1.0D-14 yielded    495 shell pairs
 There are      2107 function pairs (      2244 Cartesian)
 Smallest overlap matrix eigenvalue = 2.37E-04

 Scale SEOQF with 1.000000e-01/1.000000e-01/1.000000e-02

 Standard Electronic Orientation quadrupole field applied
 Nucleus-field energy     =    -0.0000000011 hartrees
 ================ Generating on-the-fly SAD Guess ================
Attempting to make child job directory: /src/jdavis/qchem.scratch/qchem6013//Frg1/
Attempting to make child job directory: /src/jdavis/qchem.scratch/qchem6013//Frg2/
Creating input file /src/jdavis/qchem.scratch/qchem6013/Frg1.input
using default PutDataFrgm: nothing
calling putenv with: QCSCRATCH=/src/jdavis/qchem.scratch/qchem6013/ 
Spawning Job For Fragment 0
Done Job For Fragment 0
calling putenv with: QCSCRATCH=/src/jdavis/qchem.scratch 
calling putenv with: QCTHREADS=1 
Creating input file /src/jdavis/qchem.scratch/qchem6013/Frg2.input
using default PutDataFrgm: nothing
calling putenv with: QCSCRATCH=/src/jdavis/qchem.scratch/qchem6013/ 
Spawning Job For Fragment 1
Done Job For Fragment 1
calling putenv with: QCSCRATCH=/src/jdavis/qchem.scratch 
calling putenv with: QCTHREADS=1 
 Time for running child jobs:  CPU 1.77 s  wall 54.32 s
 ============= Method Specific SAD Guess Constructed =============
 Guess from on-the-fly superposition of atomic densities
 Warning: Energy on first SCF cycle will be non-variational
 A restricted Hartree-Fock SCF calculation will be
 performed using Pulay DIIS extrapolation
 SCF converges when DIIS error is below 1.0E-08
 using 10 threads for integral computing
 -------------------------------------------------------
 OpenMP Integral computing Module                
 Release: version 1.0, May 2013, Q-Chem Inc. Pittsburgh 
 -------------------------------------------------------
 ---------------------------------------
  Cycle       Energy         DIIS Error
 ---------------------------------------
    1     -78.8002780158      7.36E-02
    2     -78.4465769075      6.48E-03
    3     -78.4845435937      1.48E-03
    4     -78.4864823117      4.79E-04
    5     -78.4866582901      7.72E-05
    6     -78.4866667241      1.82E-05
    7     -78.4866672221      8.88E-06
    8     -78.4866673330      1.77E-06
    9     -78.4866673446      6.05E-07
   10     -78.4866673466      1.33E-07
   11     -78.4866673468      2.96E-08
   12     -78.4866673468      1.06E-08
   13     -78.4866673468      2.18E-09 Convergence criterion met
 ---------------------------------------
 SCF time:  CPU 12.48 s  wall 1.25 s
 SCF   energy in the final basis set = -78.48666735
 Total energy in the final basis set = -78.48666735
================================================================================
|                                                                              |
|                                 A D C  M A N                                 |
|                                                                              |
 ------------------------------------------------------------------------------ 
|                                                                              |
| Components:                                                                  |
|                                                                              |
| - libvmm - 1.3-trunk                                                         |
|   Authors:                                                                   |
|   Evgeny Epifanovsky, Ilya Kaliman                                           |
|                                                                              |
| - libtensor - 2.5-trunk                                                      |
|   Authors:                                                                   |
|   Evgeny Epifanovsky, Michael Wormit, Dmitry Zuev, Sam Manzer,               |
|   Ilya Kaliman                                                               |
|                                                                              |
| - libwfa - 1.1-trunk                                                         |
|   Authors:                                                                   |
|   Felix Plasser, Stefanie Mewes (Baeppler), Benjamin Thomitzni,              |
|   Michael Wormit, Feng Chen, Anna I. Krylov, Pavel Pokhilko                  |
|                                                                              |
| - libadc - 1.1-trunk                                                         |
|   Authors:                                                                   |
|   Michael Wormit, Adrian L. Dempwolff, Philipp H. P. Harbach,                |
|   Caroline Krauter, Dirk Rehn, Matthias Schneider, Jan Wenzel                |
|                                                                              |
| - adcman - 2.6-trunk                                                         |
|   Authors:                                                                   |
|   Michael Wormit, Adrian L. Dempwolff, Philipp H. P. Harbach,                |
|   Caroline Krauter, Daniel Lefrancois, Jan-Michael Mewes, Dirk Rehn,         |
|   Matthias Schneider, Jan Wenzel, Andreas Dreuw                              |
|                                                                              |
| Authors of earlier versions of ADCMAN:                                       |
| Andreas Dreuw, Jan Hendrik Starcke, Dirk Rehn, Michael Wormit                |
|                                                                              |
================================================================================

 
 Alpha MOs, Restricted
 -- Occupied --                  
-11.187 -11.185  -0.992  -0.732  -0.611  -0.517  -0.465  -0.327
  1 A1    2 A1    3 A1    4 A1    1 B1    5 A1    2 B1    1 B2                 
  0.022
  6 A1                                                                         
 -- Virtual --                   
  0.103   0.110   0.118   0.137   0.140   0.142   0.170   0.210
  7 A1    3 B1    2 B2    3 B2    4 B1    8 A1    9 A1    4 B2                 
  0.247   0.305   0.310   0.328   0.328   0.335   0.340   0.390
 10 A1    5 B1   11 A1   12 A1    6 B1    5 B2   13 A1    7 B1                 
  0.411   0.415   0.595   0.648   0.854   0.911   0.934   0.980
 14 A1    6 B2    8 B1   15 A1   16 A1    9 B1   17 A1   18 A1                 
  0.982   1.058   1.059   1.087   1.104   1.109   1.127   1.164
 10 B1   19 A1    7 B2   20 A1    8 B2   11 B1   21 A1    1 A2                 
  1.319   1.334   1.336   1.426   1.665   1.674   1.767   1.915
 22 A1    2 A2    9 B2   12 B1   23 A1   13 B1   14 B1   10 B2                 
  1.967   1.967   1.967   1.992   1.993   2.067   2.089   2.129
 24 A1   15 B1   11 B2   12 B2   25 A1    3 A2   26 A1   16 B1                 
  2.227   2.373   2.462   2.509   2.625   2.632   2.857   2.866
 13 B2   27 A1    4 A2   28 A1   29 A1   17 B1   18 B1   30 A1                 
  3.292   3.389
 31 A1   19 B1                                                                 
 
 Beta MOs, Restricted
 -- Occupied --                  
-11.187 -11.185  -0.992  -0.732  -0.611  -0.517  -0.465  -0.327
  1 A1    2 A1    3 A1    4 A1    1 B1    5 A1    2 B1    1 B2                 
  0.022
  6 A1                                                                         
 -- Virtual --                   
  0.103   0.110   0.118   0.137   0.140   0.142   0.170   0.210
  7 A1    3 B1    2 B2    3 B2    4 B1    8 A1    9 A1    4 B2                 
  0.247   0.305   0.310   0.328   0.328   0.335   0.340   0.390
 10 A1    5 B1   11 A1   12 A1    6 B1    5 B2   13 A1    7 B1                 
  0.411   0.415   0.595   0.648   0.854   0.911   0.934   0.980
 14 A1    6 B2    8 B1   15 A1   16 A1    9 B1   17 A1   18 A1                 
  0.982   1.058   1.059   1.087   1.104   1.109   1.127   1.164
 10 B1   19 A1    7 B2   20 A1    8 B2   11 B1   21 A1    1 A2                 
  1.319   1.334   1.336   1.426   1.665   1.674   1.767   1.915
 22 A1    2 A2    9 B2   12 B1   23 A1   13 B1   14 B1   10 B2                 
  1.967   1.967   1.967   1.992   1.993   2.067   2.089   2.129
 24 A1   15 B1   11 B2   12 B2   25 A1    3 A2   26 A1   16 B1                 
  2.227   2.373   2.462   2.509   2.625   2.632   2.857   2.866
 13 B2   27 A1    4 A2   28 A1   29 A1   17 B1   18 B1   30 A1                 
  3.292   3.389
 31 A1   19 B1                                                                 

--------------------------------------------------------------------------------
                                   HF Summary                                   
--------------------------------------------------------------------------------
  Energy:                                                  -78.4866673468 a.u.
  Dip. moment [a.u.]:                  [  -0.000000,    0.000000,   18.878775]
  Total dipole [Debye]:                                              47.985068
  <r^2> [a.u.]:                        [  25.069299,   14.935694,  792.797234]
  Total <r^2> [a.u.]:                                               832.802226
--------------------------------------------------------------------------------

--------------------------------------------------------------------------------
                                 MP(2) Summary                                  
--------------------------------------------------------------------------------
  MP energy contribution:                                   -0.2984397058 a.u.
  Total energy:                                            -78.7851070526 a.u.
  Dip. moment [a.u.]:                  [  -0.000000,   -0.000000,   18.884431]
  Total dipole [Debye]:                                              47.999444
  <r^2> [a.u.]:                        [  25.058241,   14.744369,  792.844109]
  Total <r^2> [a.u.]:                                               832.646719

  Density matrix analysis:
  ------------------------
  NOs
    Occupation of frontier NOs:
       0.0447   1.9371
    Number of electrons: 18.000000
    Number of unpaired electrons: n_u =  0.43195, n_u,nl =  0.04672
    NO participation ratio (PR_NO): 15.329801
  
  
  Mulliken Population Analysis
  Atom      Charge (e)              h+              e-           Del q
  --------------------------------------------------------------------
   1 C       -0.185130        0.090483       -0.101547       -0.011064
   2 C       -0.179641        0.085181       -0.103547       -0.018365
   3 H        0.084789        0.017897       -0.010507        0.007390
   4 H        0.097482        0.017661       -0.010343        0.007318
   5 H        0.084789        0.017897       -0.010507        0.007390
   6 H        0.097482        0.017661       -0.010343        0.007318
   7 H       -0.999771        0.021967       -0.021955        0.000012
  --------------------------------------------------------------------
  Sum:       -1.000000        0.268748       -0.268748       -0.000000
  
  Multipole moment analysis of the density matrix
    Molecular charge:                      -1.000000
    Number of electrons:                   18.000000
      Center of electronic charge [Ang]: [  0.000000,   0.000000,  -0.555178]
    Total nuclear charge:                  17.000000
      Center of nuclear charge [Ang]:    [ -0.000000,   0.000000,  -0.000000]
    Dipole moment [D]:                     47.999429
      Cartesian components [D]:          [ -0.000000,  -0.000000,  47.999429]
    RMS size of the density [Ang]:         3.556034
      Cartesian components [Ang]:        [  0.624367,   0.478937,   3.467876]
  
  Exciton analysis of the difference density matrix
    <r_h> [Ang]:                  [ -0.000000,   0.000000,  -0.231982]
    <r_e> [Ang]:                  [  0.000000,   0.000000,  -0.243119]
    |<r_e - r_h>| [Ang]:            0.011137
    Hole size [Ang]:                3.253100
      Cartesian components [Ang]: [  0.735727,   0.754811,   3.077601]
    Electron size [Ang]:            3.227280
      Cartesian components [Ang]: [  0.727854,   0.608593,   3.084669]
--------------------------------------------------------------------------------
  Starting Davidson for singlet states of irrep B2 ... 
--------------------------------------------------------------------------------
   It NVec Conv  Avg. Norm  Max. Norm  Conv. states           Remark
--------------------------------------------------------------------------------
       100    0  1.014e-01  4.603e-01  0.0681 n n n n n n n n Guess.
    1  110    0  5.151e-03  2.708e-02  0.0462 n n n n n n n n 
    2  120    0  3.033e-02  2.623e-01  0.0462 n n n n n n n n 
    3  130    4  2.011e-02  1.172e-01  0.0462 y y y n n n y n 
    4  140    4  1.803e-02  1.464e-01  0.0462 y y y n n n n n 
    5  150    4  8.477e-03  6.731e-02  0.0462 y y y n n n n n 
    6  160    5  7.290e-03  5.224e-02  0.0462 y y y n n y n n 
    7  170    7  3.147e-03  2.551e-02  0.0462 y y y n n y y y 
    8  180    4  7.851e-04  7.372e-03  0.0462 y y y n n n n n 
    9  190    0  2.142e-03  1.256e-02  0.0462 n n n n n n n n 
   10  200    0  7.329e-02  6.801e-01  0.0462 n n n n n n n n 
   11   20    2  1.244e-03  1.184e-02  0.0462 y n n n n n n n Subspace collapsed.
   12   30    4  3.984e-03  3.983e-02  0.0462 y y y n n n n n 
   13   40    4  1.664e-03  1.664e-02  0.0462 y y y n n n n n 
   14   50    4  1.449e-03  1.449e-02  0.0462 y y y n n n n n 
   15   60    4  1.289e-03  1.289e-02  0.0462 y y y n n n n n 
   16   70    6  1.197e-03  1.197e-02  0.0462 y y y y n y n n 
   17   80    9  1.139e-03  1.139e-02  0.0462 y y y y y y y y 
   18   90    9  1.008e-03  1.008e-02  0.0462 y y y y y y y y 
   19  100    9  8.951e-04  8.951e-03  0.0462 y y y y y y y y 
   20  110    9  7.915e-04  7.915e-03  0.0462 y y y y y y y y 
   21  120    9  1.987e-04  1.987e-03  0.0462 y y y y y y y y 
   22  130    9  3.571e-05  3.571e-04  0.0462 y y y y y y y y 
   23  140    9  6.426e-06  6.426e-05  0.0462 y y y y y y y y 
   24  150   10  8.129e-07  8.121e-06  0.0462 y y y y y y y y Converged.
--------------------------------------------------------------------------------
  Davidson Summary: 
 ------------------------------------------------------------
  State  0: excitation energy =   0.0462 a.u.   (converged)
  State  1: excitation energy =   0.0499 a.u.   (converged)
  State  2: excitation energy =   0.1014 a.u.   (converged)
  State  3: excitation energy =   0.1774 a.u.   (converged)
  State  4: excitation energy =   0.1962 a.u.   (converged)
  State  5: excitation energy =   0.2162 a.u.   (converged)
  State  6: excitation energy =   0.2351 a.u.   (converged)
  State  7: excitation energy =   0.2443 a.u.   (converged)
  State  8: excitation energy =   0.2450 a.u.   (converged)
  State  9: excitation energy =   0.2631 a.u.   (converged)
 ------------------------------------------------------------


--------------------------------------------------------------------------------
                   State-averaged natural transition orbitals
--------------------------------------------------------------------------------
--------------------------------------------------------------------------------

--------------------------------------------------------------------------------
                             Excited State Summary
--------------------------------------------------------------------------------
--------------------------------------------------------------------------------

  Excited state 1 (singlet, B2)                                    [converged]
  ----------------------------------------------------------------------------
  Term symbol:  1 (1) B2                                    R^2 =  1.00900e-09

  Total energy:                                            -78.7389442351 a.u.
  Excitation energy:                                               1.256154 eV

  Osc. strength:                                                      0.000000
  Trans. dip. moment [a.u.]:           [  -0.000000,    0.001385,   -0.000000]
  <i|r^2|0> [a.u.]:                    [   0.000000,    0.000000,   -0.000000]

  Dip. moment [a.u.]:                  [  -0.000000,   -0.000000,   -1.232429]
  Total dipole [Debye]:                                               3.132522
  <r^2> [a.u.]:                        [  35.368974,   48.795109,  445.384350]
  Total <r^2> [a.u.]:                                               529.548433

  V1^2 = 0.9796, V2^2 = 0.0204

  Important amplitudes:
      occ i      occ j       vir a       vir b          v   
    ---------------------------------------------------------
     6 (A1) A               2 (B2) A                 -0.6418
     6 (A1) A               3 (B2) A                 -0.2770
    ---------------------------------------------------------

  Density matrix analysis:
  ------------------------
  NOs
    Occupation of frontier NOs:
       0.9968   1.0019
    Number of electrons: 18.000000
    Number of unpaired electrons: n_u =  2.41013, n_u,nl =  2.04764
    NO participation ratio (PR_NO):  2.901281
  
  
  Mulliken Population Analysis
  Atom      Charge (e)              h+              e-           Del q
  --------------------------------------------------------------------
   1 C       -0.658681        0.028489       -0.502041       -0.473552
   2 C       -0.651425        0.027114       -0.498898       -0.471783
   3 H        0.074927       -0.001067       -0.008795       -0.009862
   4 H        0.079945       -0.001180       -0.016356       -0.017536
   5 H        0.074927       -0.001067       -0.008795       -0.009862
   6 H        0.079945       -0.001180       -0.016356       -0.017536
   7 H        0.000361        1.021150       -0.021018        1.000132
  --------------------------------------------------------------------
  Sum:       -1.000000        1.072259       -1.072259        0.000000
  
  Multipole moment analysis of the density matrix
    Molecular charge:                      -1.000000
    Number of electrons:                   18.000000
      Center of electronic charge [Ang]: [  0.000000,   0.000000,   0.036232]
    Total nuclear charge:                  17.000000
      Center of nuclear charge [Ang]:    [ -0.000000,   0.000000,  -0.000000]
    Dipole moment [D]:                     3.132521
      Cartesian components [D]:          [ -0.000000,  -0.000000,  -3.132521]
    RMS size of the density [Ang]:         2.870008
      Cartesian components [Ang]:        [  0.741782,   0.871271,   2.632032]
  
  Exciton analysis of the difference density matrix
    <r_h> [Ang]:                  [  0.000000,  -0.000000,  -9.534272]
    <r_e> [Ang]:                  [  0.000000,   0.000000,   0.393720]
    |<r_e - r_h>| [Ang]:            9.927992
    Hole size [Ang]:                2.567335
      Cartesian components [Ang]: [  0.706662,   0.706607,   2.364856]
    Electron size [Ang]:            4.264055
      Cartesian components [Ang]: [  1.786644,   3.064620,   2.366045]

  Transition density matrix analysis:
  -----------------------------------
  
  CT numbers (Mulliken)
    omega =     0.9733
    <Phe> =     0.0001
  
  Exciton analysis of the transition density matrix
    Trans. dipole moment [D]:             0.001761
      Cartesian components [D]:         [ -0.000000,   0.001761,  -0.000000]
    <r_h> [Ang]:                        [ -0.000000,  -0.000000, -10.036035]
    <r_e> [Ang]:                        [ -0.000000,   0.000000,   0.636407]
    |<r_e - r_h>| [Ang]:                 10.672442
    Hole size [Ang]:                      1.114526
      Cartesian components [Ang]:       [  0.641146,   0.641151,   0.648092]
    Electron size [Ang]:                  4.113455
      Cartesian components [Ang]:       [  1.830225,   3.170126,   1.876457]
    RMS electron-hole separation [Ang]:  11.492210
      Cartesian components [Ang]:       [  1.939276,   3.234309,  10.855844]
    Covariance(r_h, r_e) [Ang^2]:        -0.003606
    Correlation coefficient:             -0.000787
    Center-of-mass size [Ang]:            2.130462
      Cartesian components [Ang]:       [  0.969638,   1.617157,   0.991701]

  Decomposition into state-averaged NTOs
    H- 0 -> L+ 0:  0.5464 ( 59.7%)
    H- 0 -> L+ 1:  0.3409 ( 23.2%)
    H- 0 -> L+ 2: -0.2681 ( 14.4%)
                   omega =  97.3%
  ----------------------------------------------------------------------------


  Excited state 2 (singlet, B2)                                    [converged]
  ----------------------------------------------------------------------------
  Term symbol:  2 (1) B2                                    R^2 =  9.53598e-10

  Total energy:                                            -78.7351580849 a.u.
  Excitation energy:                                               1.359181 eV

  Osc. strength:                                                      0.000019
  Trans. dip. moment [a.u.]:           [   0.000000,   -0.023983,   -0.000000]
  <i|r^2|0> [a.u.]:                    [   0.000000,    0.000000,   -0.000000]

  Dip. moment [a.u.]:                  [  -0.000000,   -0.000000,   -1.191076]
  Total dipole [Debye]:                                               3.027415
  <r^2> [a.u.]:                        [  30.350132,   32.536865,  453.243564]
  Total <r^2> [a.u.]:                                               516.130562

  V1^2 = 0.9666, V2^2 = 0.0334

  Important amplitudes:
      occ i      occ j       vir a       vir b          v   
    ---------------------------------------------------------
     6 (A1) A               3 (B2) A                  0.6188
     6 (A1) A               2 (B2) A                 -0.2593
    ---------------------------------------------------------

  Density matrix analysis:
  ------------------------
  NOs
    Occupation of frontier NOs:
       0.9924   1.0015
    Number of electrons: 18.000000
    Number of unpaired electrons: n_u =  2.41271, n_u,nl =  2.04548
    NO participation ratio (PR_NO):  2.919964
  
  
  Mulliken Population Analysis
  Atom      Charge (e)              h+              e-           Del q
  --------------------------------------------------------------------
   1 C       -0.617489        0.080199       -0.512558       -0.432359
   2 C       -0.641775        0.077488       -0.539622       -0.462134
   3 H        0.061793        0.002949       -0.025946       -0.022996
   4 H        0.067679        0.002774       -0.032577       -0.029802
   5 H        0.061793        0.002949       -0.025946       -0.022996
   6 H        0.067679        0.002774       -0.032577       -0.029802
   7 H        0.000319        1.019944       -0.019854        1.000090
  --------------------------------------------------------------------
  Sum:       -1.000000        1.189079       -1.189079        0.000000
  
  Multipole moment analysis of the density matrix
    Molecular charge:                      -1.000000
    Number of electrons:                   18.000000
      Center of electronic charge [Ang]: [  0.000000,   0.000000,   0.035016]
    Total nuclear charge:                  17.000000
      Center of nuclear charge [Ang]:    [ -0.000000,   0.000000,  -0.000000]
    Dipole moment [D]:                     3.027414
      Cartesian components [D]:          [ -0.000000,  -0.000000,  -3.027414]
    RMS size of the density [Ang]:         2.833424
      Cartesian components [Ang]:        [  0.687140,   0.711464,   2.655174]
  
  Exciton analysis of the difference density matrix
    <r_h> [Ang]:                  [  0.000000,  -0.000000,  -8.526188]
    <r_e> [Ang]:                  [  0.000000,   0.000000,   0.408038]
    |<r_e - r_h>| [Ang]:            8.934226
    Hole size [Ang]:                3.922576
      Cartesian components [Ang]: [  0.714317,   0.718046,   3.789560]
    Electron size [Ang]:            3.657366
      Cartesian components [Ang]: [  1.325327,   2.169269,   2.629469]

  Transition density matrix analysis:
  -----------------------------------
  
  CT numbers (Mulliken)
    omega =     0.9548
    <Phe> =     0.0000
  
  Exciton analysis of the transition density matrix
    Trans. dipole moment [D]:             0.030480
      Cartesian components [D]:         [  0.000000,  -0.030480,  -0.000000]
    <r_h> [Ang]:                        [ -0.000000,  -0.000000, -10.036369]
    <r_e> [Ang]:                        [  0.000000,   0.000000,   0.605969]
    |<r_e - r_h>| [Ang]:                 10.642338
    Hole size [Ang]:                      1.112815
      Cartesian components [Ang]:       [  0.641095,   0.641088,   0.645260]
    Electron size [Ang]:                  3.604989
      Cartesian components [Ang]:       [  1.351051,   2.334809,   2.391501]
    RMS electron-hole separation [Ang]:  11.291313
      Cartesian components [Ang]:       [  1.495440,   2.421219,  10.926806]
    Covariance(r_h, r_e) [Ang^2]:        -0.000039
    Correlation coefficient:             -0.000010
    Center-of-mass size [Ang]:            1.886414
      Cartesian components [Ang]:       [  0.747720,   1.210614,   1.238501]

  Decomposition into state-averaged NTOs
    H- 0 -> L+ 1:  0.4750 ( 45.1%)
    H- 0 -> L+ 3:  0.4003 ( 32.1%)
    H- 0 -> L+ 0: -0.3024 ( 18.3%)
                   omega =  95.5%
  ----------------------------------------------------------------------------


  Excited state 3 (singlet, B2)                                    [converged]
  ----------------------------------------------------------------------------
  Term symbol:  3 (1) B2                                    R^2 =  5.92765e-09

  Total energy:                                            -78.6836936745 a.u.
  Excitation energy:                                               2.759598 eV

  Osc. strength:                                                      0.000041
  Trans. dip. moment [a.u.]:           [   0.000000,   -0.024524,   -0.000000]
  <i|r^2|0> [a.u.]:                    [   0.000000,   -0.000000,   -0.000000]

  Dip. moment [a.u.]:                  [  -0.000000,    0.000000,   -1.224583]
  Total dipole [Debye]:                                               3.112581
  <r^2> [a.u.]:                        [  30.345171,   31.410684,  452.420778]
  Total <r^2> [a.u.]:                                               514.176633

  V1^2 = 0.9526, V2^2 = 0.0474

  Important amplitudes:
      occ i      occ j       vir a       vir b          v   
    ---------------------------------------------------------
     6 (A1) A               4 (B2) A                 -0.6557
     6 (A1) A               3 (B2) A                  0.1691
    ---------------------------------------------------------

  Density matrix analysis:
  ------------------------
  NOs
    Occupation of frontier NOs:
       0.9886   1.0011
    Number of electrons: 18.000000
    Number of unpaired electrons: n_u =  2.41966, n_u,nl =  2.04584
    NO participation ratio (PR_NO):  2.946327
  
  
  Mulliken Population Analysis
  Atom      Charge (e)              h+              e-           Del q
  --------------------------------------------------------------------
   1 C       -0.582110        0.123876       -0.520856       -0.396980
   2 C       -0.583030        0.133553       -0.536942       -0.403389
   3 H        0.038111        0.003884       -0.050562       -0.046678
   4 H        0.044324        0.003656       -0.056813       -0.053157
   5 H        0.038111        0.003884       -0.050562       -0.046678
   6 H        0.044324        0.003656       -0.056813       -0.053157
   7 H        0.000269        1.018709       -0.018668        1.000040
  --------------------------------------------------------------------
  Sum:       -1.000000        1.291217       -1.291217        0.000000
  
  Multipole moment analysis of the density matrix
    Molecular charge:                      -1.000000
    Number of electrons:                   18.000000
      Center of electronic charge [Ang]: [  0.000000,  -0.000000,   0.036001]
    Total nuclear charge:                  17.000000
      Center of nuclear charge [Ang]:    [ -0.000000,   0.000000,  -0.000000]
    Dipole moment [D]:                     3.112580
      Cartesian components [D]:          [ -0.000000,   0.000000,  -3.112580]
    RMS size of the density [Ang]:         2.828042
      Cartesian components [Ang]:        [  0.687084,   0.699042,   2.652749]
  
  Exciton analysis of the difference density matrix
    <r_h> [Ang]:                  [  0.000000,  -0.000000,  -7.795671]
    <r_e> [Ang]:                  [  0.000000,  -0.000000,   0.445573]
    |<r_e - r_h>| [Ang]:            8.241244
    Hole size [Ang]:                4.508660
      Cartesian components [Ang]: [  0.697758,   0.680038,   4.402124]
    Electron size [Ang]:            3.440171
      Cartesian components [Ang]: [  1.278066,   2.019135,   2.474756]

  Transition density matrix analysis:
  -----------------------------------
  
  CT numbers (Mulliken)
    omega =     0.9370
    <Phe> =     0.0000
  
  Exciton analysis of the transition density matrix
    Trans. dipole moment [D]:             0.031168
      Cartesian components [D]:         [  0.000000,  -0.031168,  -0.000000]
    <r_h> [Ang]:                        [ -0.000000,  -0.000000, -10.036369]
    <r_e> [Ang]:                        [  0.000000,  -0.000000,   0.624235]
    |<r_e - r_h>| [Ang]:                 10.660604
    Hole size [Ang]:                      1.112719
      Cartesian components [Ang]:       [  0.641038,   0.641031,   0.645208]
    Electron size [Ang]:                  3.508731
      Cartesian components [Ang]:       [  1.317590,   2.272352,   2.326278]
    RMS electron-hole separation [Ang]:  11.278204
      Cartesian components [Ang]:       [  1.465255,   2.361034,  10.930527]
    Covariance(r_h, r_e) [Ang^2]:        -0.000033
    Correlation coefficient:             -0.000009
    Center-of-mass size [Ang]:            1.840467
      Cartesian components [Ang]:       [  0.732628,   1.180521,   1.207039]

  Decomposition into state-averaged NTOs
    H- 0 -> L+ 3: -0.5454 ( 59.5%)
    H- 0 -> L+ 1:  0.3496 ( 24.4%)
    H- 0 -> L+ 0: -0.2204 (  9.7%)
                   omega =  93.7%
  ----------------------------------------------------------------------------


  Excited state 4 (singlet, B2)                                    [converged]
  ----------------------------------------------------------------------------
  Term symbol:  4 (1) B2                                    R^2 =  5.72574e-09

  Total energy:                                            -78.6077030101 a.u.
  Excitation energy:                                               4.827410 eV

  Osc. strength:                                                      0.000000
  Trans. dip. moment [a.u.]:           [   0.000000,   -0.000098,   -0.000000]
  <i|r^2|0> [a.u.]:                    [   0.000000,    0.000000,   -0.000000]

  Dip. moment [a.u.]:                  [   0.000000,    0.000000,  -29.232561]
  Total dipole [Debye]:                                              74.301773
  <r^2> [a.u.]:                        [  45.746520,   58.634929,  156.046676]
  Total <r^2> [a.u.]:                                               260.428124

  V1^2 = 0.0003, V2^2 = 0.9997

  Important amplitudes:
      occ i      occ j       vir a       vir b          v   
    ---------------------------------------------------------
     6 (A1) A   6 (A1) B    7 (A1) A    2 (B2) B     -0.3535
     6 (A1) A               2 (B2) A                 -0.0114
    ---------------------------------------------------------

  Density matrix analysis:
  ------------------------
  NOs
    Occupation of frontier NOs:
       1.0006   1.0015
    Number of electrons: 18.000000
    Number of unpaired electrons: n_u =  2.40480, n_u,nl =  2.04887
    NO participation ratio (PR_NO):  2.879361
  
  
  Mulliken Population Analysis
  Atom      Charge (e)              h+              e-           Del q
  --------------------------------------------------------------------
   1 C       -2.084371        0.000183       -1.899425       -1.899242
   2 C       -0.235129        0.000032       -0.055519       -0.055487
   3 H        0.074330       -0.000001       -0.010458       -0.010459
   4 H        0.085490        0.000001       -0.011992       -0.011992
   5 H        0.074330       -0.000001       -0.010458       -0.010459
   6 H        0.085490        0.000001       -0.011992       -0.011992
   7 H        0.999860        1.999636       -0.000006        1.999631
  --------------------------------------------------------------------
  Sum:       -1.000000        1.999850       -1.999850        0.000000
  
  Multipole moment analysis of the density matrix
    Molecular charge:                      -1.000000
    Number of electrons:                   18.000000
      Center of electronic charge [Ang]: [ -0.000000,  -0.000000,   0.859400]
    Total nuclear charge:                  17.000000
      Center of nuclear charge [Ang]:    [ -0.000000,   0.000000,  -0.000000]
    Dipole moment [D]:                     74.301751
      Cartesian components [D]:          [  0.000000,   0.000000, -74.301751]
    RMS size of the density [Ang]:         1.820151
      Cartesian components [Ang]:        [  0.843614,   0.955087,   1.299643]
  
  Exciton analysis of the difference density matrix
    <r_h> [Ang]:                  [  0.000000,  -0.000000, -10.036330]
    <r_e> [Ang]:                  [ -0.000000,   0.000000,   2.695836]
    |<r_e - r_h>| [Ang]:           12.732166
    Hole size [Ang]:                1.114831
      Cartesian components [Ang]: [  0.641734,   0.641738,   0.647455]
    Electron size [Ang]:            3.818173
      Cartesian components [Ang]: [  1.818982,   2.560780,   2.170750]

  Transition density matrix analysis:
  -----------------------------------
  
  CT numbers (Mulliken)
    omega =     0.0003
    <Phe> =     0.0001
  
  Exciton analysis of the transition density matrix
    Trans. dipole moment [D]:             0.000125
      Cartesian components [D]:         [  0.000000,  -0.000125,  -0.000000]
    <r_h> [Ang]:                        [  0.000000,  -0.000000, -10.037072]
    <r_e> [Ang]:                        [  0.000000,   0.000000,   2.118101]
    |<r_e - r_h>| [Ang]:                 12.155174
    Hole size [Ang]:                      1.082567
      Cartesian components [Ang]:       [  0.623759,   0.623773,   0.627522]
    Electron size [Ang]:                  3.877292
      Cartesian components [Ang]:       [  1.776973,   3.077882,   1.549970]
    RMS electron-hole separation [Ang]:  12.804793
      Cartesian components [Ang]:       [  1.883271,   3.140453,  12.270027]
    Covariance(r_h, r_e) [Ang^2]:        -0.004564
    Correlation coefficient:             -0.001087
    Center-of-mass size [Ang]:            2.012226
      Cartesian components [Ang]:       [  0.941635,   1.570227,   0.834724]

  Decomposition into state-averaged NTOs
                   omega =   0.0%
  ----------------------------------------------------------------------------


  Excited state 5 (singlet, B2)                                    [converged]
  ----------------------------------------------------------------------------
  Term symbol:  5 (1) B2                                    R^2 =  9.91337e-08

  Total energy:                                            -78.5888622232 a.u.
  Excitation energy:                                               5.340093 eV

  Osc. strength:                                                      0.000000
  Trans. dip. moment [a.u.]:           [   0.000000,   -0.000097,   -0.000000]
  <i|r^2|0> [a.u.]:                    [  -0.000000,    0.000000,   -0.000000]

  Dip. moment [a.u.]:                  [   0.000000,   -0.000000,  -24.351070]
  Total dipole [Debye]:                                              61.894259
  <r^2> [a.u.]:                        [  43.132264,   50.764376,  153.489543]
  Total <r^2> [a.u.]:                                               247.386183

  V1^2 = 0.0002, V2^2 = 0.9998

  Important amplitudes:
      occ i      occ j       vir a       vir b          v   
    ---------------------------------------------------------
     6 (A1) A   6 (A1) B    7 (A1) A    3 (B2) B      0.3535
     6 (A1) A               3 (B2) A                  0.0105
    ---------------------------------------------------------

  Density matrix analysis:
  ------------------------
  NOs
    Occupation of frontier NOs:
       1.0006   1.0046
    Number of electrons: 18.000000
    Number of unpaired electrons: n_u =  2.39874, n_u,nl =  2.04771
    NO participation ratio (PR_NO):  2.874042
  
  
  Mulliken Population Analysis
  Atom      Charge (e)              h+              e-           Del q
  --------------------------------------------------------------------
   1 C       -0.501384        0.000152       -0.316407       -0.316255
   2 C       -1.816128        0.000045       -1.636532       -1.636487
   3 H        0.073631       -0.000002       -0.011156       -0.011158
   4 H        0.085181        0.000001       -0.012302       -0.012300
   5 H        0.073631       -0.000002       -0.011156       -0.011158
   6 H        0.085181        0.000001       -0.012302       -0.012300
   7 H        0.999887        1.999662       -0.000004        1.999658
  --------------------------------------------------------------------
  Sum:       -1.000000        1.999859       -1.999859       -0.000000
  
  Multipole moment analysis of the density matrix
    Molecular charge:                      -1.000000
    Number of electrons:                   18.000000
      Center of electronic charge [Ang]: [ -0.000000,   0.000000,   0.715891]
    Total nuclear charge:                  17.000000
      Center of nuclear charge [Ang]:    [ -0.000000,   0.000000,  -0.000000]
    Dipole moment [D]:                     61.894241
      Cartesian components [D]:          [  0.000000,  -0.000000, -61.894241]
    RMS size of the density [Ang]:         1.826505
      Cartesian components [Ang]:        [  0.819155,   0.888678,   1.369437]
  
  Exciton analysis of the difference density matrix
    <r_h> [Ang]:                  [ -0.000000,  -0.000000, -10.036437]
    <r_e> [Ang]:                  [ -0.000000,   0.000000,   1.403991]
    |<r_e - r_h>| [Ang]:           11.440428
    Hole size [Ang]:                1.114223
      Cartesian components [Ang]: [  0.641734,   0.641738,   0.646408]
    Electron size [Ang]:            4.248502
      Cartesian components [Ang]: [  1.715407,   2.335701,   3.106711]

  Transition density matrix analysis:
  -----------------------------------
  
  CT numbers (Mulliken)
    omega =     0.0002
    <Phe> =     0.0001
  
  Exciton analysis of the transition density matrix
    Trans. dipole moment [D]:             0.000124
      Cartesian components [D]:         [  0.000000,  -0.000124,  -0.000000]
    <r_h> [Ang]:                        [  0.000000,  -0.000000, -10.037427]
    <r_e> [Ang]:                        [ -0.000000,   0.000000,  -0.591134]
    |<r_e - r_h>| [Ang]:                  9.446292
    Hole size [Ang]:                      1.078634
      Cartesian components [Ang]:       [  0.622439,   0.622442,   0.623367]
    Electron size [Ang]:                  4.234925
      Cartesian components [Ang]:       [  1.694599,   2.934672,   2.539807]
    RMS electron-hole separation [Ang]:  10.408255
      Cartesian components [Ang]:       [  1.805297,   3.000018,   9.801661]
    Covariance(r_h, r_e) [Ang^2]:        -0.000647
    Correlation coefficient:             -0.000142
    Center-of-mass size [Ang]:            2.184991
      Cartesian components [Ang]:       [  0.902648,   1.499947,   1.307505]

  Decomposition into state-averaged NTOs
                   omega =   0.0%
  ----------------------------------------------------------------------------


  Excited state 6 (singlet, B2)                                    [converged]
  ----------------------------------------------------------------------------
  Term symbol:  6 (1) B2                                    R^2 =  8.51444e-08

  Total energy:                                            -78.5688884168 a.u.
  Excitation energy:                                               5.883608 eV

  Osc. strength:                                                      0.000000
  Trans. dip. moment [a.u.]:           [  -0.000000,    0.000053,    0.000000]
  <i|r^2|0> [a.u.]:                    [  -0.000000,   -0.000000,    0.000000]

  Dip. moment [a.u.]:                  [  -0.000000,    0.000000,  -18.964326]
  Total dipole [Debye]:                                              48.202519
  <r^2> [a.u.]:                        [  42.970696,   56.690277,  129.751926]
  Total <r^2> [a.u.]:                                               229.412899

  V1^2 = 0.0005, V2^2 = 0.9995

  Important amplitudes:
      occ i      occ j       vir a       vir b          v   
    ---------------------------------------------------------
     6 (A1) A   6 (A1) B    8 (A1) A    2 (B2) B      0.3535
     6 (A1) A               2 (B2) A                  0.0155
    ---------------------------------------------------------

  Density matrix analysis:
  ------------------------
  NOs
    Occupation of frontier NOs:
       1.0010   1.0015
    Number of electrons: 18.000000
    Number of unpaired electrons: n_u =  2.40393, n_u,nl =  2.04883
    NO participation ratio (PR_NO):  2.878505
  
  
  Mulliken Population Analysis
  Atom      Charge (e)              h+              e-           Del q
  --------------------------------------------------------------------
   1 C       -1.685850       -0.000328       -1.500392       -1.500720
   2 C       -0.745453        0.000464       -0.566275       -0.565811
   3 H        0.100589        0.000001        0.015799        0.015800
   4 H        0.115166       -0.000004        0.017687        0.017684
   5 H        0.100589        0.000001        0.015799        0.015800
   6 H        0.115166       -0.000004        0.017687        0.017684
   7 H        0.999793        1.999570       -0.000006        1.999564
  --------------------------------------------------------------------
  Sum:       -1.000000        1.999700       -1.999700        0.000000
  
  Multipole moment analysis of the density matrix
    Molecular charge:                      -1.000000
    Number of electrons:                   18.000000
      Center of electronic charge [Ang]: [  0.000000,  -0.000000,   0.557527]
    Total nuclear charge:                  17.000000
      Center of nuclear charge [Ang]:    [ -0.000000,   0.000000,  -0.000000]
    Dipole moment [D]:                     48.202505
      Cartesian components [D]:          [ -0.000000,   0.000000, -48.202505]
    RMS size of the density [Ang]:         1.805041
      Cartesian components [Ang]:        [  0.817619,   0.939116,   1.306802]
  
  Exciton analysis of the difference density matrix
    <r_h> [Ang]:                  [  0.000000,  -0.000000, -10.036532]
    <r_e> [Ang]:                  [  0.000000,  -0.000000,  -0.020680]
    |<r_e - r_h>| [Ang]:           10.015853
    Hole size [Ang]:                1.114456
      Cartesian components [Ang]: [  0.641649,   0.641657,   0.646974]
    Electron size [Ang]:            4.183247
      Cartesian components [Ang]: [  1.708827,   2.507116,   2.879902]

  Transition density matrix analysis:
  -----------------------------------
  
  CT numbers (Mulliken)
    omega =     0.0005
    <Phe> =     0.0001
  
  Exciton analysis of the transition density matrix
    Trans. dipole moment [D]:             0.000067
      Cartesian components [D]:         [ -0.000000,   0.000067,   0.000000]
    <r_h> [Ang]:                        [  0.000000,  -0.000000, -10.037759]
    <r_e> [Ang]:                        [  0.000000,   0.000000,   1.859377]
    |<r_e - r_h>| [Ang]:                 11.897136
    Hole size [Ang]:                      1.070214
      Cartesian components [Ang]:       [  0.616884,   0.616896,   0.619880]
    Electron size [Ang]:                  3.718509
      Cartesian components [Ang]:       [  1.689053,   2.925508,   1.554289]
    RMS electron-hole separation [Ang]:  12.510882
      Cartesian components [Ang]:       [  1.798179,   2.989839,  12.014557]
    Covariance(r_h, r_e) [Ang^2]:        -0.003824
    Correlation coefficient:             -0.000961
    Center-of-mass size [Ang]:            1.934232
      Cartesian components [Ang]:       [  0.899089,   1.494923,   0.835523]

  Decomposition into state-averaged NTOs
                   omega =   0.0%
  ----------------------------------------------------------------------------


  Excited state 7 (singlet, B2)                                    [converged]
  ----------------------------------------------------------------------------
  Term symbol:  7 (1) B2                                    R^2 =  8.84351e-08

  Total energy:                                            -78.5500332709 a.u.
  Excitation energy:                                               6.396683 eV

  Osc. strength:                                                      0.000000
  Trans. dip. moment [a.u.]:           [  -0.000000,    0.000107,    0.000000]
  <i|r^2|0> [a.u.]:                    [   0.000000,   -0.000000,   -0.000000]

  Dip. moment [a.u.]:                  [  -0.000000,   -0.000000,  -14.079016]
  Total dipole [Debye]:                                              35.785296
  <r^2> [a.u.]:                        [  40.357218,   48.821820,  127.194115]
  Total <r^2> [a.u.]:                                               216.373153

  V1^2 = 0.0005, V2^2 = 0.9995

  Important amplitudes:
      occ i      occ j       vir a       vir b          v   
    ---------------------------------------------------------
     6 (A1) A   6 (A1) B    8 (A1) A    3 (B2) B     -0.3535
     6 (A1) A               3 (B2) A                 -0.0160
    ---------------------------------------------------------

  Density matrix analysis:
  ------------------------
  NOs
    Occupation of frontier NOs:
       1.0011   1.0046
    Number of electrons: 18.000000
    Number of unpaired electrons: n_u =  2.39785, n_u,nl =  2.04767
    NO participation ratio (PR_NO):  2.873171
  
  
  Mulliken Population Analysis
  Atom      Charge (e)              h+              e-           Del q
  --------------------------------------------------------------------
   1 C       -0.102183       -0.000351        0.083297        0.082946
   2 C       -2.327066        0.000491       -2.147916       -2.147425
   3 H        0.099881        0.000001        0.015090        0.015091
   4 H        0.114857       -0.000002        0.017378        0.017375
   5 H        0.099881        0.000001        0.015090        0.015091
   6 H        0.114857       -0.000002        0.017378        0.017375
   7 H        0.999774        1.999551       -0.000006        1.999545
  --------------------------------------------------------------------
  Sum:       -1.000000        1.999689       -1.999689        0.000000
  
  Multipole moment analysis of the density matrix
    Molecular charge:                      -1.000000
    Number of electrons:                   18.000000
      Center of electronic charge [Ang]: [  0.000000,   0.000000,   0.413905]
    Total nuclear charge:                  17.000000
      Center of nuclear charge [Ang]:    [ -0.000000,   0.000000,  -0.000000]
    Dipole moment [D]:                     35.785285
      Cartesian components [D]:          [ -0.000000,  -0.000000, -35.785285]
    RMS size of the density [Ang]:         1.787409
      Cartesian components [Ang]:        [  0.792365,   0.871509,   1.344418]
  
  Exciton analysis of the difference density matrix
    <r_h> [Ang]:                  [  0.000000,  -0.000000, -10.036484]
    <r_e> [Ang]:                  [  0.000000,   0.000000,  -1.313376]
    |<r_e - r_h>| [Ang]:            8.723108
    Hole size [Ang]:                1.114702
      Cartesian components [Ang]: [  0.641649,   0.641660,   0.647395]
    Electron size [Ang]:            3.734719
      Cartesian components [Ang]: [  1.598162,   2.276796,   2.492028]

  Transition density matrix analysis:
  -----------------------------------
  
  CT numbers (Mulliken)
    omega =     0.0005
    <Phe> =     0.0001
  
  Exciton analysis of the transition density matrix
    Trans. dipole moment [D]:             0.000136
      Cartesian components [D]:         [ -0.000000,   0.000136,   0.000000]
    <r_h> [Ang]:                        [  0.000000,  -0.000000, -10.037304]
    <r_e> [Ang]:                        [ -0.000000,   0.000000,  -0.640306]
    |<r_e - r_h>| [Ang]:                  9.396998
    Hole size [Ang]:                      1.073427
      Cartesian components [Ang]:       [  0.617545,   0.617572,   0.624091]
    Electron size [Ang]:                  4.215011
      Cartesian components [Ang]:       [  1.698803,   2.941863,   2.495160]
    RMS electron-hole separation [Ang]:  10.355467
      Cartesian components [Ang]:       [  1.807565,   3.006015,   9.743320]
    Covariance(r_h, r_e) [Ang^2]:        -0.006787
    Correlation coefficient:             -0.001500
    Center-of-mass size [Ang]:            2.173993
      Cartesian components [Ang]:       [  0.903783,   1.502979,   1.284709]

  Decomposition into state-averaged NTOs
                   omega =   0.1%
  ----------------------------------------------------------------------------


  Excited state 8 (singlet, B2)                                    [converged]
  ----------------------------------------------------------------------------
  Term symbol:  8 (1) B2                                    R^2 =  3.37296e-07

  Total energy:                                            -78.5408317968 a.u.
  Excitation energy:                                               6.647068 eV

  Osc. strength:                                                      0.000000
  Trans. dip. moment [a.u.]:           [   0.000000,   -0.000055,   -0.000000]
  <i|r^2|0> [a.u.]:                    [   0.000000,    0.000000,   -0.000000]

  Dip. moment [a.u.]:                  [  -0.000000,   -0.000000,  -24.317811]
  Total dipole [Debye]:                                              61.809721
  <r^2> [a.u.]:                        [  45.217671,   61.351106,  108.381870]
  Total <r^2> [a.u.]:                                               214.950647

  V1^2 = 0.0004, V2^2 = 0.9996

  Important amplitudes:
      occ i      occ j       vir a       vir b          v   
    ---------------------------------------------------------
     6 (A1) A   6 (A1) B    9 (A1) A    2 (B2) B     -0.3535
     6 (A1) A               5 (B2) A                 -0.0138
    ---------------------------------------------------------

  Density matrix analysis:
  ------------------------
  NOs
    Occupation of frontier NOs:
       1.0011   1.0021
    Number of electrons: 18.000000
    Number of unpaired electrons: n_u =  2.40252, n_u,nl =  2.04873
    NO participation ratio (PR_NO):  2.877214
  
  
  Mulliken Population Analysis
  Atom      Charge (e)              h+              e-           Del q
  --------------------------------------------------------------------
   1 C       -3.306519        0.000362       -3.121751       -3.121389
   2 C        0.696161       -0.000088        0.875891        0.875803
   3 H        0.155587       -0.000002        0.070799        0.070797
   4 H        0.149791        0.000003        0.052307        0.052310
   5 H        0.155587       -0.000002        0.070799        0.070797
   6 H        0.149791        0.000003        0.052307        0.052310
   7 H        0.999601        1.999376       -0.000003        1.999372
  --------------------------------------------------------------------
  Sum:       -1.000000        1.999653       -1.999653        0.000000
  
  Multipole moment analysis of the density matrix
    Molecular charge:                      -1.000000
    Number of electrons:                   18.000000
      Center of electronic charge [Ang]: [  0.000000,   0.000000,   0.714913]
    Total nuclear charge:                  17.000000
      Center of nuclear charge [Ang]:    [ -0.000000,   0.000000,  -0.000000]
    Dipole moment [D]:                     61.809702
      Cartesian components [D]:          [ -0.000000,  -0.000000, -61.809702]
    RMS size of the density [Ang]:         1.683127
      Cartesian components [Ang]:        [  0.838724,   0.976958,   1.083979]
  
  Exciton analysis of the difference density matrix
    <r_h> [Ang]:                  [  0.000000,  -0.000000, -10.036091]
    <r_e> [Ang]:                  [ -0.000000,   0.000000,   1.396716]
    |<r_e - r_h>| [Ang]:           11.432807
    Hole size [Ang]:                1.115605
      Cartesian components [Ang]: [  0.641780,   0.641774,   0.648706]
    Electron size [Ang]:            3.676356
      Cartesian components [Ang]: [  1.798605,   2.634125,   1.828114]

  Transition density matrix analysis:
  -----------------------------------
  
  CT numbers (Mulliken)
    omega =     0.0004
    <Phe> =     0.0004
  
  Exciton analysis of the transition density matrix
    Trans. dipole moment [D]:             0.000070
      Cartesian components [D]:         [  0.000000,  -0.000070,  -0.000000]
    <r_h> [Ang]:                        [ -0.000000,  -0.000000, -10.033854]
    <r_e> [Ang]:                        [ -0.000000,  -0.000000,   0.572067]
    |<r_e - r_h>| [Ang]:                 10.605921
    Hole size [Ang]:                      1.121343
      Cartesian components [Ang]:       [  0.638581,   0.638672,   0.664623]
    Electron size [Ang]:                  2.769932
      Cartesian components [Ang]:       [  1.221265,   2.112661,   1.310610]
    RMS electron-hole separation [Ang]:  11.021494
      Cartesian components [Ang]:       [  1.378141,   2.207087,  10.709941]
    Covariance(r_h, r_e) [Ang^2]:        -0.028921
    Correlation coefficient:             -0.009311
    Center-of-mass size [Ang]:            1.489303
      Cartesian components [Ang]:       [  0.689071,   1.103545,   0.724840]

  Decomposition into state-averaged NTOs
                   omega =   0.0%
  ----------------------------------------------------------------------------


  Excited state 9 (singlet, B2)                                    [converged]
  ----------------------------------------------------------------------------
  Term symbol:  9 (1) B2                                    R^2 =  1.71480e-08

  Total energy:                                            -78.5400862667 a.u.
  Excitation energy:                                               6.667355 eV

  Osc. strength:                                                      0.000001
  Trans. dip. moment [a.u.]:           [  -0.000000,    0.002005,    0.000000]
  <i|r^2|0> [a.u.]:                    [  -0.000000,   -0.000000,    0.000000]

  Dip. moment [a.u.]:                  [  -0.000000,    0.000000,   -1.213354]
  Total dipole [Debye]:                                               3.084038
  <r^2> [a.u.]:                        [  31.137758,   35.019663,  440.642494]
  Total <r^2> [a.u.]:                                               506.799915

  V1^2 = 0.9651, V2^2 = 0.0349

  Important amplitudes:
      occ i      occ j       vir a       vir b          v   
    ---------------------------------------------------------
     6 (A1) A               5 (B2) A                  0.6925
     6 (A1) A   6 (A1) B   19 (A1) A    5 (B2) B     -0.0427
    ---------------------------------------------------------

  Density matrix analysis:
  ------------------------
  NOs
    Occupation of frontier NOs:
       0.9860   1.0011
    Number of electrons: 18.000000
    Number of unpaired electrons: n_u =  2.43137, n_u,nl =  2.05478
    NO participation ratio (PR_NO):  2.979006
  
  
  Mulliken Population Analysis
  Atom      Charge (e)              h+              e-           Del q
  --------------------------------------------------------------------
   1 C       -0.601259        0.079709       -0.495839       -0.416130
   2 C       -0.611201        0.079669       -0.511229       -0.431560
   3 H        0.049997       -0.001611       -0.033182       -0.034792
   4 H        0.055883       -0.001584       -0.040015       -0.041599
   5 H        0.049997       -0.001611       -0.033182       -0.034792
   6 H        0.055883       -0.001584       -0.040015       -0.041599
   7 H        0.000702        1.020247       -0.019774        1.000473
  --------------------------------------------------------------------
  Sum:       -1.000000        1.173235       -1.173235        0.000000
  
  Multipole moment analysis of the density matrix
    Molecular charge:                      -1.000000
    Number of electrons:                   18.000000
      Center of electronic charge [Ang]: [  0.000000,  -0.000000,   0.035671]
    Total nuclear charge:                  17.000000
      Center of nuclear charge [Ang]:    [ -0.000000,   0.000000,  -0.000000]
    Dipole moment [D]:                     3.084037
      Cartesian components [D]:          [ -0.000000,   0.000000,  -3.084037]
    RMS size of the density [Ang]:         2.807683
      Cartesian components [Ang]:        [  0.695999,   0.738110,   2.617989]
  
  Exciton analysis of the difference density matrix
    <r_h> [Ang]:                  [  0.000000,  -0.000000,  -8.653978]
    <r_e> [Ang]:                  [  0.000000,  -0.000000,   0.410948]
    |<r_e - r_h>| [Ang]:            9.064926
    Hole size [Ang]:                3.789201
      Cartesian components [Ang]: [  0.713929,   0.713680,   3.652261]
    Electron size [Ang]:            3.362614
      Cartesian components [Ang]: [  1.400270,   2.312717,   1.999438]

  Transition density matrix analysis:
  -----------------------------------
  
  CT numbers (Mulliken)
    omega =     0.9575
    <Phe> =     0.0003
  
  Exciton analysis of the transition density matrix
    Trans. dipole moment [D]:             0.002548
      Cartesian components [D]:         [ -0.000000,   0.002548,   0.000000]
    <r_h> [Ang]:                        [ -0.000000,  -0.000000, -10.034340]
    <r_e> [Ang]:                        [ -0.000000,  -0.000000,   0.616282]
    |<r_e - r_h>| [Ang]:                 10.650622
    Hole size [Ang]:                      1.122541
      Cartesian components [Ang]:       [  0.641072,   0.641137,   0.661867]
    Electron size [Ang]:                  3.219222
      Cartesian components [Ang]:       [  1.436772,   2.486039,   1.455572]
    RMS electron-hole separation [Ang]:  11.184925
      Cartesian components [Ang]:       [  1.573304,   2.567379,  10.771993]
    Covariance(r_h, r_e) [Ang^2]:        -0.021655
    Correlation coefficient:             -0.005993
    Center-of-mass size [Ang]:            1.701483
      Cartesian components [Ang]:       [  0.786652,   1.283692,   0.792691]

  Decomposition into state-averaged NTOs
    H- 0 -> L+ 2:  0.6361 ( 80.9%)
    H- 0 -> L+ 0:  0.2239 ( 10.0%)
    H- 0 -> L+ 1:  0.1540 (  4.7%)
                   omega =  95.7%
  ----------------------------------------------------------------------------


  Excited state 10 (singlet, B2)                                    [converged]
  ----------------------------------------------------------------------------
  Term symbol:  10 (1) B2                                   R^2 =  8.12079e-06

  Total energy:                                            -78.5219895980 a.u.
  Excitation energy:                                               7.159790 eV

  Osc. strength:                                                      0.000000
  Trans. dip. moment [a.u.]:           [  -0.000000,    0.000033,    0.000000]
  <i|r^2|0> [a.u.]:                    [   0.000000,   -0.000000,    0.000000]

  Dip. moment [a.u.]:                  [  -0.000000,   -0.000000,  -19.443484]
  Total dipole [Debye]:                                              49.420417
  <r^2> [a.u.]:                        [  42.609753,   53.492570,  105.700908]
  Total <r^2> [a.u.]:                                               201.803230

  V1^2 = 0.0000, V2^2 = 1.0000

  Important amplitudes:
      occ i      occ j       vir a       vir b          v   
    ---------------------------------------------------------
     6 (A1) A   6 (A1) B    9 (A1) A    3 (B2) B     -0.3535
     6 (A1) A               3 (B2) A                 -0.0042
    ---------------------------------------------------------

  Density matrix analysis:
  ------------------------
  NOs
    Occupation of frontier NOs:
       1.0025   1.0046
    Number of electrons: 18.000000
    Number of unpaired electrons: n_u =  2.39487, n_u,nl =  2.04757
    NO participation ratio (PR_NO):  2.870348
  
  
  Mulliken Population Analysis
  Atom      Charge (e)              h+              e-           Del q
  --------------------------------------------------------------------
   1 C       -1.724397        0.000340       -1.539607       -1.539267
   2 C       -0.884467       -0.000139       -0.704687       -0.704826
   3 H        0.154925       -0.000001        0.070137        0.070136
   4 H        0.149510        0.000004        0.052024        0.052028
   5 H        0.154925       -0.000001        0.070137        0.070136
   6 H        0.149510        0.000004        0.052024        0.052028
   7 H        0.999993        1.999765       -0.000000        1.999764
  --------------------------------------------------------------------
  Sum:       -1.000000        1.999972       -1.999972        0.000000
  
  Multipole moment analysis of the density matrix
    Molecular charge:                      -1.000000
    Number of electrons:                   18.000000
      Center of electronic charge [Ang]: [  0.000000,   0.000000,   0.571614]
    Total nuclear charge:                  17.000000
      Center of nuclear charge [Ang]:    [ -0.000000,   0.000000,  -0.000000]
    Dipole moment [D]:                     49.420403
      Cartesian components [D]:          [ -0.000000,  -0.000000, -49.420403]
    RMS size of the density [Ang]:         1.677122
      Cartesian components [Ang]:        [  0.814178,   0.912245,   1.147894]
  
  Exciton analysis of the difference density matrix
    <r_h> [Ang]:                  [  0.000000,  -0.000000, -10.036460]
    <r_e> [Ang]:                  [ -0.000000,   0.000000,   0.104812]
    |<r_e - r_h>| [Ang]:           10.141272
    Hole size [Ang]:                1.113820
      Cartesian components [Ang]: [  0.641763,   0.641762,   0.645661]
    Electron size [Ang]:            3.692129
      Cartesian components [Ang]: [  1.693917,   2.416037,   2.219284]

  Transition density matrix analysis:
  -----------------------------------
  
  CT numbers (Mulliken)
    omega =     0.0000
    <Phe> =     0.0001
  
  Exciton analysis of the transition density matrix
    Trans. dipole moment [D]:             0.000042
      Cartesian components [D]:         [ -0.000000,   0.000042,   0.000000]
    <r_h> [Ang]:                        [  0.000000,  -0.000000, -10.037963]
    <r_e> [Ang]:                        [  0.000000,   0.000000,  -0.836726]
    |<r_e - r_h>| [Ang]:                  9.201237
    Hole size [Ang]:                      1.068342
      Cartesian components [Ang]:       [  0.615461,   0.615477,   0.619475]
    Electron size [Ang]:                  4.193359
      Cartesian components [Ang]:       [  1.756218,   3.041059,   2.291706]
    RMS electron-hole separation [Ang]:  10.168320
      Cartesian components [Ang]:       [  1.860939,   3.102708,   9.502886]
    Covariance(r_h, r_e) [Ang^2]:        -0.003173
    Correlation coefficient:             -0.000708
    Center-of-mass size [Ang]:            2.163288
      Cartesian components [Ang]:       [  0.930470,   1.551363,   1.186303]

  Decomposition into state-averaged NTOs
                   omega =   0.0%
  ----------------------------------------------------------------------------


--------------------------------------------------------------------------------
  Time of ADC calculation:  CPU 455.18 s  wall 123.32 s
================================================================================
 
 --------------------------------------------------------------
             Orbital Energies (a.u.) and Symmetries
 --------------------------------------------------------------
 
 Alpha MOs, Restricted
 -- Occupied --                  
-11.187 -11.185  -0.992  -0.732  -0.611  -0.517  -0.465  -0.327
  1 A1    2 A1    3 A1    4 A1    1 B1    5 A1    2 B1    1 B2                 
  0.022
  6 A1                                                                         
 -- Virtual --                   
  0.103   0.110   0.118   0.137   0.140   0.142   0.170   0.210
  7 A1    3 B1    2 B2    3 B2    4 B1    8 A1    9 A1    4 B2                 
  0.247   0.305   0.310   0.328   0.328   0.335   0.340   0.390
 10 A1    5 B1   11 A1   12 A1    6 B1    5 B2   13 A1    7 B1                 
  0.411   0.415   0.595   0.648   0.854   0.911   0.934   0.980
 14 A1    6 B2    8 B1   15 A1   16 A1    9 B1   17 A1   18 A1                 
  0.982   1.058   1.059   1.087   1.104   1.109   1.127   1.164
 10 B1   19 A1    7 B2   20 A1    8 B2   11 B1   21 A1    1 A2                 
  1.319   1.334   1.336   1.426   1.665   1.674   1.767   1.915
 22 A1    2 A2    9 B2   12 B1   23 A1   13 B1   14 B1   10 B2                 
  1.967   1.967   1.967   1.992   1.993   2.067   2.089   2.129
 24 A1   15 B1   11 B2   12 B2   25 A1    3 A2   26 A1   16 B1                 
  2.227   2.373   2.462   2.509   2.625   2.632   2.857   2.866
 13 B2   27 A1    4 A2   28 A1   29 A1   17 B1   18 B1   30 A1                 
  3.292   3.389
 31 A1   19 B1                                                                 
 
 Beta MOs, Restricted
 -- Occupied --                  
-11.187 -11.185  -0.992  -0.732  -0.611  -0.517  -0.465  -0.327
  1 A1    2 A1    3 A1    4 A1    1 B1    5 A1    2 B1    1 B2                 
  0.022
  6 A1                                                                         
 -- Virtual --                   
  0.103   0.110   0.118   0.137   0.140   0.142   0.170   0.210
  7 A1    3 B1    2 B2    3 B2    4 B1    8 A1    9 A1    4 B2                 
  0.247   0.305   0.310   0.328   0.328   0.335   0.340   0.390
 10 A1    5 B1   11 A1   12 A1    6 B1    5 B2   13 A1    7 B1                 
  0.411   0.415   0.595   0.648   0.854   0.911   0.934   0.980
 14 A1    6 B2    8 B1   15 A1   16 A1    9 B1   17 A1   18 A1                 
  0.982   1.058   1.059   1.087   1.104   1.109   1.127   1.164
 10 B1   19 A1    7 B2   20 A1    8 B2   11 B1   21 A1    1 A2                 
  1.319   1.334   1.336   1.426   1.665   1.674   1.767   1.915
 22 A1    2 A2    9 B2   12 B1   23 A1   13 B1   14 B1   10 B2                 
  1.967   1.967   1.967   1.992   1.993   2.067   2.089   2.129
 24 A1   15 B1   11 B2   12 B2   25 A1    3 A2   26 A1   16 B1                 
  2.227   2.373   2.462   2.509   2.625   2.632   2.857   2.866
 13 B2   27 A1    4 A2   28 A1   29 A1   17 B1   18 B1   30 A1                 
  3.292   3.389
 31 A1   19 B1                                                                 
 --------------------------------------------------------------
 
          Ground-State Mulliken Net Atomic Charges

     Atom                 Charge (a.u.)
  ----------------------------------------
      1 C                    -0.174065
      2 C                    -0.161276
      3 H                     0.077399
      4 H                     0.090163
      5 H                     0.077399
      6 H                     0.090163
      7 H                    -0.999783
  ----------------------------------------
  Sum of atomic charges =    -1.000000

 -----------------------------------------------------------------
                    Cartesian Multipole Moments
 -----------------------------------------------------------------
    Charge (ESU x 10^10)
                -4.8032
    Dipole Moment (Debye)
         X      -0.0000      Y       0.0000      Z      47.9851
       Tot      47.9851
    Quadrupole Moments (Debye-Ang)
        XX     -15.9258     XY       0.0000     YY     -20.0890
        XZ       0.0000     YZ       0.0000     ZZ    -500.9347
    Octopole Moments (Debye-Ang^2)
       XXX       0.0000    XXY      -0.0000    XYY       0.0000
       YYY       0.0000    XXZ      31.9610    XYZ      -0.0000
       YYZ      29.3817    XZZ       0.0000    YZZ       0.0000
       ZZZ    4949.8197
    Hexadecapole Moments (Debye-Ang^3)
      XXXX     -32.8538   XXXY      -0.0000   XXYY     -10.9521
      XYYY      -0.0000   YYYY     -27.5183   XXXZ       0.0000
      XXYZ       0.0000   XYYZ       0.0000   YYYZ       0.0000
      XXZZ    -418.5094   XYZZ      -0.0000   YYZZ    -422.4598
      XZZZ       0.0000   YZZZ      -0.0000   ZZZZ  -51235.4337
 -----------------------------------------------------------------
 Total job time:  206.01s(wall), 501.58s(cpu) 
 Fri Mar 25 16:58:42 2022

        *************************************************************
        *                                                           *
        *  Thank you very much for using Q-Chem.  Have a nice day.  *
        *                                                           *
        *************************************************************


