/src/tsommerfeld/qchem/exe/qcprog.exe .input0.722222.5208.qcin.1 /src/jdavis/qchem.scratch/qchem5208/

                  Welcome to Q-Chem
     A Quantum Leap Into The Future Of Chemistry


 Q-Chem 5.4 (devel), Q-Chem, Inc., Pleasanton, CA (2021)

 E. Epifanovsky,  A. T. B. Gilbert,  Xintian Feng,  Joonho Lee,  Yuezhi Mao,  
 N. Mardirossian,  P. Pokhilko,  A. White,  M. Wormit,  M. P. Coons,  
 A. L. Dempwolff,  Zhengting Gan,  D. Hait,  P. R. Horn,  L. D. Jacobson,  
 I. Kaliman,  J. Kussmann,  A. W. Lange,  Ka Un Lao,  D. S. Levine,  Jie Liu,  
 S. C. McKenzie,  A. F. Morrison,  K. Nanda,  F. Plasser,  D. R. Rehn,  
 M. L. Vidal,  Zhi-Qiang You,  Ying Zhu,  B. Alam,  B. Albrecht,  
 A. Aldossary,  E. Alguire,  J. H. Andersen,  D. Barton,  K. Begam,  A. Behn,  
 Y. A. Bernard,  E. J. Berquist,  H. Burton,  A. Carreras,  K. Carter-Fenk,  
 R. Chakraborty,  A. D. Chien,  K. D. Closser,  V. Cofer-Shabica,  
 S. Dasgupta,  Jia Deng,  M. de Wergifosse,  M. Diedenhofen,  Hainam Do,  
 S. Ehlert,  Po-Tung Fang,  S. Fatehi,  Qingguo Feng,  T. Friedhoff,  
 J. Gayvert,  Qinghui Ge,  G. Gidofalvi,  M. Goldey,  J. Gomes,  
 C. Gonzalez-Espinoza,  S. Gulania,  A. Gunina,  M. W. D. Hanson-Heine,  
 P. H. P. Harbach,  A. W. Hauser,  M. F. Herbst,  M. Hernandez Vera,  
 M. Hodecker,  Z. C. Holden,  S. Houck,  Xunkun Huang,  Kerwin Hui,  
 B. C. Huynh,  M. Ivanov,  Hyunjun Ji,  Hanjie Jiang,  B. Kaduk,  S. Kaehler,  
 K. Khistyaev,  Jaehoon Kim,  P. Klunzinger,  Z. Koczor-Benda,  
 Joong Hoon Koh,  D. Kosenkov,  L. Koulias,  T. Kowalczyk,  C. M. Krauter,  
 K. Kue,  A. Kunitsa,  T. Kus,  A. Landau,  K. V. Lawler,  D. Lefrancois,  
 S. Lehtola,  Rain Li,  Yi-Pei Li,  Jiashu Liang,  M. Liebenthal,  
 Hung-Hsuan Lin,  You-Sheng Lin,  Fenglai Liu,  Kuan-Yu Liu,  
 M. Loipersberger,  A. Luenser,  A. Manjanath,  P. Manohar,  E. Mansoor,  
 S. F. Manzer,  Shan-Ping Mao,  A. V. Marenich,  T. Markovich,  S. Mason,  
 S. A. Maurer,  P. F. McLaughlin,  M. F. S. J. Menger,  J.-M. Mewes,  
 S. A. Mewes,  P. Morgante,  J. W. Mullinax,  K. J. Oosterbaan,  G. Paran,  
 Alexander C. Paul,  Suranjan K. Paul,  F. Pavosevic,  Zheng Pei,  S. Prager,  
 E. I. Proynov,  E. Ramos,  B. Rana,  A. E. Rask,  A. Rettig,  R. M. Richard,  
 F. Rob,  E. Rossomme,  T. Scheele,  M. Scheurer,  M. Schneider,  
 N. Sergueev,  S. M. Sharada,  W. Skomorowski,  D. W. Small,  C. J. Stein,  
 Yu-Chuan Su,  E. J. Sundstrom,  Zhen Tao,  J. Thirman,  T. Tsuchimochi,  
 N. M. Tubman,  S. P. Veccham,  O. Vydrov,  J. Wenzel,  J. Witte,  A. Yamada,  
 Kun Yao,  S. Yeganeh,  S. R. Yost,  A. Zech,  Igor Ying Zhang,  Xing Zhang,  
 Yu Zhang,  D. Zuev,  A. Aspuru-Guzik,  A. T. Bell,  N. A. Besley,  
 K. B. Bravaya,  B. R. Brooks,  D. Casanova,  Jeng-Da Chai,  S. Coriani,  
 C. J. Cramer,  A. E. DePrince, III,  R. A. DiStasio Jr.,  A. Dreuw,  
 B. D. Dunietz,  T. R. Furlani,  W. A. Goddard III,  S. Grimme,  
 S. Hammes-Schiffer,  T. Head-Gordon,  W. J. Hehre,  Chao-Ping Hsu,  
 T.-C. Jagau,  Yousung Jung,  A. Klamt,  Jing Kong,  D. S. Lambrecht,  
 WanZhen Liang,  N. J. Mayhall,  C. W. McCurdy,  J. B. Neaton,  
 C. Ochsenfeld,  J. A. Parkhill,  R. Peverati,  V. A. Rassolov,  Yihan Shao,  
 L. V. Slipchenko,  T. Stauch,  R. P. Steele,  J. E. Subotnik,  
 A. J. W. Thom,  A. Tkatchenko,  D. G. Truhlar,  T. Van Voorhis,  
 T. A. Wesolowski,  K. B. Whaley,  H. L. Woodcock III,  P. M. Zimmerman,  
 S. Faraji,  P. M. W. Gill,  M. Head-Gordon,  J. M. Herbert,  A. I. Krylov

 Additional authors for Version 5.4.1: 
 S. Kotaru,  Shaozhi Li,  Xiangyuan Li,  F. Matz,  A. Molle,  Haisheng Ren,  
 Yingli Su,  Hung-Yi Tsai,  C. Utku,  Fang Wang

 Contributors to earlier versions of Q-Chem not listed above: 
 R. D. Adamson,  B. Austin,  R. Baer,  J. Baker,  G. J. O. Beran,  
 K. Brandhorst,  S. T. Brown,  E. F. C. Byrd,  A. K. Chakraborty,  
 G. K. L. Chan,  Chun-Min Chang,  Yunqing Chen,  C.-L. Cheng,  
 Siu Hung Chien,  D. M. Chipman,  D. L. Crittenden,  H. Dachsel,  
 R. J. Doerksen,  A. D. Dutoi,  R. G. Edgar,  J. Fosso-Tande,  
 L. Fusti-Molnar,  D. Ghosh,  A. Ghysels,  A. Golubeva-Zadorozhnaya,  
 J. Gonthier,  M. S. Gordon,  S. R. Gwaltney,  G. Hawkins,  J. E. Herr,  
 A. Heyden,  S. Hirata,  E. G. Hohenstein,  G. Kedziora,  F. J. Keil,  
 C. Kelley,  Jihan Kim,  R. A. King,  R. Z. Khaliullin,  P. P. Korambath,  
 W. Kurlancheek,  A. Laurent,  A. M. Lee,  M. S. Lee,  S. V. Levchenko,  
 Ching Yeh Lin,  D. Liotard,  E. Livshits,  R. C. Lochan,  I. Lotan,  
 L. A. Martinez-Martinez,  P. E. Maslen,  N. Nair,  D. P. O'Neill,  
 D. Neuhauser,  E. Neuscamman,  C. M. Oana,  R. Olivares-Amaya,  R. Olson,  
 T. M. Perrine,  B. Peters,  P. A. Pieniazek,  A. Prociuk,  Y. M. Rhee,  
 J. Ritchie,  M. A. Rohrdanz,  E. Rosta,  N. J. Russ,  H. F. Schaefer III,  
 M. W. Schmidt,  N. E. Schultz,  S. Sharma,  N. Shenvi,  C. D. Sherrill,  
 A. C. Simmonett,  A. Sodt,  T. Stein,  D. Stuck,  K. S. Thanthiriwatte,  
 V. Vanovschi,  L. Vogt,  Tao Wang,  A. Warshel,  M. A. Watson,  
 C. F. Williams,  Q. Wu,  X. Xu,  Jun Yang,  W. Zhang,  Yan Zhao

 Please cite Q-Chem as follows:
 Y. Shao et al., Mol. Phys. 113, 184-215 (2015)
 DOI: 10.1080/00268976.2014.952696

 Q-Chem 5.4.1 for Intel X86 EM64T Linux

 Parts of Q-Chem use Armadillo 9.900.5 (Nocturnal Misbehaviour).
 http://arma.sourceforge.net/

 Q-Chem begins on Fri Mar 25 16:26:54 2022  

 Host: node01
0

     Scratch files written to /src/jdavis/qchem.scratch/qchem5208//
 Processing $rem in /src/tsommerfeld/qchem/config/preferences:
 Processing $rem in /home/jdavis/.qchemrc:

 Checking the input file for inconsistencies... 	...done.

--------------------------------------------------------------
User input:
--------------------------------------------------------------
$molecule
-1 1
C         0.0000000000    0.0000000000    0.8417902907
C         0.0000000000    0.0000000000   -0.4872097093
H         0.9623488518    0.0000000000    1.3363703127
H         0.9623489048    0.0000000000   -0.9817896873
H        -0.9623488518    0.0000000000    1.3363703127
H        -0.9623489048    0.0000000000   -0.9817896873
H         0.0000000000    0.0000000000   -10.4872097093
$end

$rem
   METHOD adc(2)
   BASIS gen
   PURECART 11
   EE_STATES [0,0,0,10]
   scf_convergence 8
   ADC_DAVIDSON_MAXITER 120
   ADC_DAVIDSON_MAXSUBSPACE 200
   adc_nguess_singles 100
   THRESH 14
   S2THRESH 14
   adc_davidson_conv 5
   adc_davidson_thresh 14
   THREADS 10
   MEM_TOTAL 95000
   STATE_ANALYSIS TRUE
$end
$basis
C 1
S   9   1.00
      6.665000D+03           6.920000D-04
      1.000000D+03           5.329000D-03
      2.280000D+02           2.707700D-02
      6.471000D+01           1.017180D-01
      2.106000D+01           2.747400D-01
      7.495000D+00           4.485640D-01
      2.797000D+00           2.850740D-01
      5.215000D-01           1.520400D-02
      1.596000D-01          -3.191000D-03
S   9   1.00
      6.665000D+03          -1.460000D-04
      1.000000D+03          -1.154000D-03
      2.280000D+02          -5.725000D-03
      6.471000D+01          -2.331200D-02
      2.106000D+01          -6.395500D-02
      7.495000D+00          -1.499810D-01
      2.797000D+00          -1.272620D-01
      5.215000D-01           5.445290D-01
      1.596000D-01           5.804960D-01
S   1   1.00
      1.596000D-01           1.000000D+00
S   1   1.00
      0.0469000              1.0000000
P   4   1.00
      9.439000D+00           3.810900D-02
      2.002000D+00           2.094800D-01
      5.456000D-01           5.085570D-01
      1.517000D-01           4.688420D-01
P   1   1.00
      1.517000D-01           1.000000D+00
P   1   1.00
      0.0438244      1.0000000
P   1   1.00
      0.0219122      1.0000000
D   1   1.00
      5.500000D-01           1.0000000
****
C 2
S   9   1.00
      6.665000D+03           6.920000D-04
      1.000000D+03           5.329000D-03
      2.280000D+02           2.707700D-02
      6.471000D+01           1.017180D-01
      2.106000D+01           2.747400D-01
      7.495000D+00           4.485640D-01
      2.797000D+00           2.850740D-01
      5.215000D-01           1.520400D-02
      1.596000D-01          -3.191000D-03
S   9   1.00
      6.665000D+03          -1.460000D-04
      1.000000D+03          -1.154000D-03
      2.280000D+02          -5.725000D-03
      6.471000D+01          -2.331200D-02
      2.106000D+01          -6.395500D-02
      7.495000D+00          -1.499810D-01
      2.797000D+00          -1.272620D-01
      5.215000D-01           5.445290D-01
      1.596000D-01           5.804960D-01
S   1   1.00
      1.596000D-01           1.000000D+00
S   1   1.00
      0.0469000              1.0000000
P   4   1.00
      9.439000D+00           3.810900D-02
      2.002000D+00           2.094800D-01
      5.456000D-01           5.085570D-01
      1.517000D-01           4.688420D-01
P   1   1.00
      1.517000D-01           1.000000D+00
P   1   1.00
      0.0438244      1.0000000
P   1   1.00
      0.0219122      1.0000000
D   1   1.00
      5.500000D-01           1.0000000
****
H 3
cc-pVDZ
****
H 4
cc-pVDZ
****
H 5
cc-pVDZ
****
H 6
cc-pVDZ
****
H 7
aug-cc-pVDZ
****
$end
--------------------------------------------------------------
 ----------------------------------------------------------------
             Standard Nuclear Orientation (Angstroms)
    I     Atom           X                Y                Z
 ----------------------------------------------------------------
    1      C       0.0000000000     0.0000000000     1.2918235242
    2      C       0.0000000000     0.0000000000    -0.0371764758
    3      H       0.9623488518     0.0000000000     1.7864035462
    4      H       0.9623489048     0.0000000000    -0.5317564538
    5      H      -0.9623488518     0.0000000000     1.7864035462
    6      H      -0.9623489048     0.0000000000    -0.5317564538
    7      H       0.0000000000     0.0000000000   -10.0371764758
 ----------------------------------------------------------------
 Molecular Point Group                 C2v   NOp =  4
 Largest Abelian Subgroup              C2v   NOp =  4
 Nuclear Repulsion Energy =          34.38697142 hartrees
 There are        9 alpha and        9 beta electrons
 Requested basis set is non-standard
 There are 33 shells and 67 basis functions
 Total memory of 95000 MB is distributed as follows: 
   MEM_STATIC is set to 192 MB
   QALLOC/CCMAN JOB total memory use is  94808 MB
 Warning: actual memory use might exceed 95000 MB

 Total QAlloc Memory Limit  95000 MB
 Mega-Array Size       188 MB
 MEM_STATIC part       192 MB

                       Distance Matrix (Angstroms)
             C (  1)   C (  2)   H (  3)   H (  4)   H (  5)   H (  6)
   C (  2)  1.329000
   H (  3)  1.082000  2.061931
   H (  4)  2.061931  1.082000  2.318160
   H (  5)  1.082000  2.061931  1.924698  3.013026
   H (  6)  2.061931  1.082000  3.013026  1.924698  2.318160
   H (  7) 11.329000 10.000000 11.862679  9.554011 11.862679  9.554011

 
 A cutoff of  1.0D-14 yielded    495 shell pairs
 There are      2107 function pairs (      2244 Cartesian)
 Smallest overlap matrix eigenvalue = 2.01E-04

 Scale SEOQF with 1.000000e-01/1.000000e-01/1.000000e-02

 Standard Electronic Orientation quadrupole field applied
 Nucleus-field energy     =    -0.0000000011 hartrees
 ================ Generating on-the-fly SAD Guess ================
Attempting to make child job directory: /src/jdavis/qchem.scratch/qchem5208//Frg1/
Attempting to make child job directory: /src/jdavis/qchem.scratch/qchem5208//Frg2/
Creating input file /src/jdavis/qchem.scratch/qchem5208/Frg1.input
using default PutDataFrgm: nothing
calling putenv with: QCSCRATCH=/src/jdavis/qchem.scratch/qchem5208/ 
Spawning Job For Fragment 0
Done Job For Fragment 0
calling putenv with: QCSCRATCH=/src/jdavis/qchem.scratch 
calling putenv with: QCTHREADS=1 
Creating input file /src/jdavis/qchem.scratch/qchem5208/Frg2.input
using default PutDataFrgm: nothing
calling putenv with: QCSCRATCH=/src/jdavis/qchem.scratch/qchem5208/ 
Spawning Job For Fragment 1
Done Job For Fragment 1
calling putenv with: QCSCRATCH=/src/jdavis/qchem.scratch 
calling putenv with: QCTHREADS=1 
 Time for running child jobs:  CPU 1.77 s  wall 54.30 s
 ============= Method Specific SAD Guess Constructed =============
 Guess from on-the-fly superposition of atomic densities
 Warning: Energy on first SCF cycle will be non-variational
 A restricted Hartree-Fock SCF calculation will be
 performed using Pulay DIIS extrapolation
 SCF converges when DIIS error is below 1.0E-08
 using 10 threads for integral computing
 -------------------------------------------------------
 OpenMP Integral computing Module                
 Release: version 1.0, May 2013, Q-Chem Inc. Pittsburgh 
 -------------------------------------------------------
 ---------------------------------------
  Cycle       Energy         DIIS Error
 ---------------------------------------
    1     -78.7999185353      7.36E-02
    2     -78.4465748433      6.48E-03
    3     -78.4846891853      1.48E-03
    4     -78.4866465441      4.80E-04
    5     -78.4868302676      7.90E-05
    6     -78.4868439877      2.05E-05
    7     -78.4868463233      1.12E-05
    8     -78.4868475945      4.43E-06
    9     -78.4868481352      2.18E-06
   10     -78.4868482998      3.97E-07
   11     -78.4868483027      1.19E-07
   12     -78.4868483027      2.07E-08
   13     -78.4868483027      2.77E-09 Convergence criterion met
 ---------------------------------------
 SCF time:  CPU 12.44 s  wall 1.25 s
 SCF   energy in the final basis set = -78.48684830
 Total energy in the final basis set = -78.48684830
================================================================================
|                                                                              |
|                                 A D C  M A N                                 |
|                                                                              |
 ------------------------------------------------------------------------------ 
|                                                                              |
| Components:                                                                  |
|                                                                              |
| - libvmm - 1.3-trunk                                                         |
|   Authors:                                                                   |
|   Evgeny Epifanovsky, Ilya Kaliman                                           |
|                                                                              |
| - libtensor - 2.5-trunk                                                      |
|   Authors:                                                                   |
|   Evgeny Epifanovsky, Michael Wormit, Dmitry Zuev, Sam Manzer,               |
|   Ilya Kaliman                                                               |
|                                                                              |
| - libwfa - 1.1-trunk                                                         |
|   Authors:                                                                   |
|   Felix Plasser, Stefanie Mewes (Baeppler), Benjamin Thomitzni,              |
|   Michael Wormit, Feng Chen, Anna I. Krylov, Pavel Pokhilko                  |
|                                                                              |
| - libadc - 1.1-trunk                                                         |
|   Authors:                                                                   |
|   Michael Wormit, Adrian L. Dempwolff, Philipp H. P. Harbach,                |
|   Caroline Krauter, Dirk Rehn, Matthias Schneider, Jan Wenzel                |
|                                                                              |
| - adcman - 2.6-trunk                                                         |
|   Authors:                                                                   |
|   Michael Wormit, Adrian L. Dempwolff, Philipp H. P. Harbach,                |
|   Caroline Krauter, Daniel Lefrancois, Jan-Michael Mewes, Dirk Rehn,         |
|   Matthias Schneider, Jan Wenzel, Andreas Dreuw                              |
|                                                                              |
| Authors of earlier versions of ADCMAN:                                       |
| Andreas Dreuw, Jan Hendrik Starcke, Dirk Rehn, Michael Wormit                |
|                                                                              |
================================================================================

 
 Alpha MOs, Restricted
 -- Occupied --                  
-11.187 -11.185  -0.992  -0.731  -0.610  -0.517  -0.465  -0.327
  1 A1    2 A1    3 A1    4 A1    1 B1    5 A1    2 B1    1 B2                 
  0.020
  6 A1                                                                         
 -- Virtual --                   
  0.089   0.089   0.095   0.116   0.118   0.130   0.153   0.185
  7 A1    3 B1    2 B2    4 B1    3 B2    8 A1    9 A1    4 B2                 
  0.206   0.228   0.250   0.255   0.269   0.314   0.316   0.333
 10 A1    5 B1    6 B1    5 B2   11 A1   12 A1   13 A1    6 B2                 
  0.391   0.399   0.533   0.568   0.761   0.845   0.912   0.943
  7 B1   14 A1    8 B1   15 A1   16 A1    9 B1   17 A1    7 B2                 
  0.946   0.983   0.997   1.026   1.056   1.079   1.107   1.164
 10 B1   18 A1    8 B2   19 A1   20 A1   21 A1   11 B1    1 A2                 
  1.334   1.335   1.386   1.396   1.658   1.665   1.751   1.902
  9 B2    2 A2   22 A1   12 B1   23 A1   13 B1   14 B1   10 B2                 
  1.962   1.965   1.965   1.965   1.989   2.043   2.067   2.098
 24 A1   15 B1   11 B2   25 A1   12 B2   26 A1    3 A2   16 B1                 
  2.222   2.347   2.462   2.494   2.606   2.621   2.849   2.852
 13 B2   27 A1    4 A2   28 A1   17 B1   29 A1   18 B1   30 A1                 
  3.307   3.390
 31 A1   19 B1                                                                 
 
 Beta MOs, Restricted
 -- Occupied --                  
-11.187 -11.185  -0.992  -0.731  -0.610  -0.517  -0.465  -0.327
  1 A1    2 A1    3 A1    4 A1    1 B1    5 A1    2 B1    1 B2                 
  0.020
  6 A1                                                                         
 -- Virtual --                   
  0.089   0.089   0.095   0.116   0.118   0.130   0.153   0.185
  7 A1    3 B1    2 B2    4 B1    3 B2    8 A1    9 A1    4 B2                 
  0.206   0.228   0.250   0.255   0.269   0.314   0.316   0.333
 10 A1    5 B1    6 B1    5 B2   11 A1   12 A1   13 A1    6 B2                 
  0.391   0.399   0.533   0.568   0.761   0.845   0.912   0.943
  7 B1   14 A1    8 B1   15 A1   16 A1    9 B1   17 A1    7 B2                 
  0.946   0.983   0.997   1.026   1.056   1.079   1.107   1.164
 10 B1   18 A1    8 B2   19 A1   20 A1   21 A1   11 B1    1 A2                 
  1.334   1.335   1.386   1.396   1.658   1.665   1.751   1.902
  9 B2    2 A2   22 A1   12 B1   23 A1   13 B1   14 B1   10 B2                 
  1.962   1.965   1.965   1.965   1.989   2.043   2.067   2.098
 24 A1   15 B1   11 B2   25 A1   12 B2   26 A1    3 A2   16 B1                 
  2.222   2.347   2.462   2.494   2.606   2.621   2.849   2.852
 13 B2   27 A1    4 A2   28 A1   17 B1   29 A1   18 B1   30 A1                 
  3.307   3.390
 31 A1   19 B1                                                                 

--------------------------------------------------------------------------------
                                   HF Summary                                   
--------------------------------------------------------------------------------
  Energy:                                                  -78.4868483027 a.u.
  Dip. moment [a.u.]:                  [  -0.000000,   -0.000000,   18.798650]
  Total dipole [Debye]:                                              47.781412
  <r^2> [a.u.]:                        [  25.170552,   15.036504,  791.008804]
  Total <r^2> [a.u.]:                                               831.215860
--------------------------------------------------------------------------------

--------------------------------------------------------------------------------
                                 MP(2) Summary                                  
--------------------------------------------------------------------------------
  MP energy contribution:                                   -0.2978228843 a.u.
  Total energy:                                            -78.7846711870 a.u.
  Dip. moment [a.u.]:                  [  -0.000000,    0.000000,   18.793106]
  Total dipole [Debye]:                                              47.767321
  <r^2> [a.u.]:                        [  25.172366,   14.859446,  790.817817]
  Total <r^2> [a.u.]:                                               830.849629

  Density matrix analysis:
  ------------------------
  NOs
    Occupation of frontier NOs:
       0.0446   1.9372
    Number of electrons: 18.000000
    Number of unpaired electrons: n_u =  0.43194, n_u,nl =  0.04666
    NO participation ratio (PR_NO): 15.350083
  
  
  Mulliken Population Analysis
  Atom      Charge (e)              h+              e-           Del q
  --------------------------------------------------------------------
   1 C       -0.169468        0.091211       -0.101140       -0.009929
   2 C       -0.177381        0.085539       -0.105078       -0.019539
   3 H        0.078834        0.017714       -0.010535        0.007180
   4 H        0.090991        0.017515       -0.010348        0.007168
   5 H        0.078834        0.017714       -0.010535        0.007180
   6 H        0.090991        0.017515       -0.010348        0.007168
   7 H       -0.992800        0.022734       -0.021962        0.000772
  --------------------------------------------------------------------
  Sum:       -1.000000        0.269944       -0.269944       -0.000000
  
  Multipole moment analysis of the density matrix
    Molecular charge:                      -1.000000
    Number of electrons:                   18.000000
      Center of electronic charge [Ang]: [  0.000000,  -0.000000,  -0.552494]
    Total nuclear charge:                  17.000000
      Center of nuclear charge [Ang]:    [ -0.000000,   0.000000,  -0.000000]
    Dipole moment [D]:                     47.767306
      Cartesian components [D]:          [ -0.000000,   0.000000,  47.767306]
    RMS size of the density [Ang]:         3.552519
      Cartesian components [Ang]:        [  0.625788,   0.480802,   3.463757]
  
  Exciton analysis of the difference density matrix
    <r_h> [Ang]:                  [ -0.000000,   0.000000,  -0.260546]
    <r_e> [Ang]:                  [ -0.000000,   0.000000,  -0.249678]
    |<r_e - r_h>| [Ang]:            0.010868
    Hole size [Ang]:                3.300490
      Cartesian components [Ang]: [  0.749183,   0.765258,   3.121913]
    Electron size [Ang]:            3.243280
      Cartesian components [Ang]: [  0.750438,   0.633994,   3.090916]
--------------------------------------------------------------------------------
  Starting Davidson for singlet states of irrep B2 ... 
--------------------------------------------------------------------------------
   It NVec Conv  Avg. Norm  Max. Norm  Conv. states           Remark
--------------------------------------------------------------------------------
       100    0  9.827e-02  4.345e-01  0.0467 n n n n n n n n Guess.
    1  110    0  2.865e-02  2.716e-01  0.0231 n n n n n n n n 
    2  120    0  1.953e-02  1.246e-01  0.0230 n n n n n n n n 
    3  130    2  1.237e-03  1.059e-02  0.0230 y y n n n n n n 
    4  140    4  6.031e-05  5.078e-04  0.0230 y y y n n n n n 
    5  150    8  3.141e-06  2.608e-05  0.0230 y y y y n y y n 
    6  160   10  1.352e-07  1.208e-06  0.0230 y y y y y y y y Converged.
--------------------------------------------------------------------------------
  Davidson Summary: 
 ------------------------------------------------------------
  State  0: excitation energy =   0.0230 a.u.   (converged)
  State  1: excitation energy =   0.0346 a.u.   (converged)
  State  2: excitation energy =   0.0771 a.u.   (converged)
  State  3: excitation energy =   0.1436 a.u.   (converged)
  State  4: excitation energy =   0.1669 a.u.   (converged)
  State  5: excitation energy =   0.1683 a.u.   (converged)
  State  6: excitation energy =   0.1874 a.u.   (converged)
  State  7: excitation energy =   0.2065 a.u.   (converged)
  State  8: excitation energy =   0.2107 a.u.   (converged)
  State  9: excitation energy =   0.2220 a.u.   (converged)
 ------------------------------------------------------------


--------------------------------------------------------------------------------
                   State-averaged natural transition orbitals
--------------------------------------------------------------------------------
--------------------------------------------------------------------------------

--------------------------------------------------------------------------------
                             Excited State Summary
--------------------------------------------------------------------------------
--------------------------------------------------------------------------------

  Excited state 1 (singlet, B2)                                    [converged]
  ----------------------------------------------------------------------------
  Term symbol:  1 (1) B2                                    R^2 =  5.96616e-11

  Total energy:                                            -78.7617150383 a.u.
  Excitation energy:                                               0.624669 eV

  Osc. strength:                                                      0.000027
  Trans. dip. moment [a.u.]:           [   0.000000,    0.041774,    0.000000]
  <i|r^2|0> [a.u.]:                    [  -0.000000,   -0.000000,    0.000000]

  Dip. moment [a.u.]:                  [  -0.000000,    0.000000,   -1.512112]
  Total dipole [Debye]:                                               3.843405
  <r^2> [a.u.]:                        [  39.791541,   61.751841,  445.937926]
  Total <r^2> [a.u.]:                                               547.481309

  V1^2 = 0.9560, V2^2 = 0.0440

  Important amplitudes:
      occ i      occ j       vir a       vir b          v   
    ---------------------------------------------------------
     6 (A1) A               2 (B2) A                  0.6382
     6 (A1) A               3 (B2) A                  0.2645
    ---------------------------------------------------------

  Density matrix analysis:
  ------------------------
  NOs
    Occupation of frontier NOs:
       0.9982   1.0006
    Number of electrons: 18.000000
    Number of unpaired electrons: n_u =  2.41015, n_u,nl =  2.04681
    NO participation ratio (PR_NO):  2.893846
  
  
  Mulliken Population Analysis
  Atom      Charge (e)              h+              e-           Del q
  --------------------------------------------------------------------
   1 C       -0.690116        0.012462       -0.533109       -0.520648
   2 C       -0.629252        0.069574       -0.521446       -0.451871
   3 H        0.074348       -0.000482       -0.004004       -0.004486
   4 H        0.079177       -0.000897       -0.010918       -0.011814
   5 H        0.074348       -0.000482       -0.004004       -0.004486
   6 H        0.079177       -0.000897       -0.010918       -0.011814
   7 H        0.012319        1.029975       -0.024856        1.005120
  --------------------------------------------------------------------
  Sum:       -1.000000        1.109254       -1.109254       -0.000000
  
  Multipole moment analysis of the density matrix
    Molecular charge:                      -1.000000
    Number of electrons:                   18.000000
      Center of electronic charge [Ang]: [  0.000000,  -0.000000,   0.044454]
    Total nuclear charge:                  17.000000
      Center of nuclear charge [Ang]:    [ -0.000000,   0.000000,  -0.000000]
    Dipole moment [D]:                     3.843404
      Cartesian components [D]:          [ -0.000000,   0.000000,  -3.843404]
    RMS size of the density [Ang]:         2.918093
      Cartesian components [Ang]:        [  0.786793,   0.980144,   2.633542]
  
  Exciton analysis of the difference density matrix
    <r_h> [Ang]:                  [  0.000000,   0.000000,  -9.392828]
    <r_e> [Ang]:                  [  0.000000,   0.000000,   0.293915]
    |<r_e - r_h>| [Ang]:            9.686744
    Hole size [Ang]:                2.790604
      Cartesian components [Ang]: [  0.826021,   0.827885,   2.533726]
    Electron size [Ang]:            4.938689
      Cartesian components [Ang]: [  2.091145,   3.538823,   2.737608]

  Transition density matrix analysis:
  -----------------------------------
  
  CT numbers (Mulliken)
    omega =     0.9500
    <Phe> =     0.0012
  
  Exciton analysis of the transition density matrix
    Trans. dipole moment [D]:             0.053090
      Cartesian components [D]:         [  0.000000,   0.053090,   0.000000]
    <r_h> [Ang]:                        [  0.000000,  -0.000000, -10.010703]
    <r_e> [Ang]:                        [ -0.000000,   0.000000,   0.678914]
    |<r_e - r_h>| [Ang]:                 10.689617
    Hole size [Ang]:                      1.220276
      Cartesian components [Ang]:       [  0.654988,   0.654887,   0.794473]
    Electron size [Ang]:                  4.780782
      Cartesian components [Ang]:       [  2.129766,   3.688894,   2.170720]
    RMS electron-hole separation [Ang]:  11.773539
      Cartesian components [Ang]:       [  2.228209,   3.746571,  10.936842]
    Covariance(r_h, r_e) [Ang^2]:        -0.001680
    Correlation coefficient:             -0.000288
    Center-of-mass size [Ang]:            2.466860
      Cartesian components [Ang]:       [  1.114104,   1.873289,   1.155403]

  Decomposition into state-averaged NTOs
    H- 0 -> L+ 1: -0.5094 ( 51.9%)
    H- 0 -> L+ 0: -0.4513 ( 40.7%)
    H- 0 -> L+ 2:  0.1068 (  2.3%)
                   omega =  95.0%
  ----------------------------------------------------------------------------


  Excited state 2 (singlet, B2)                                    [converged]
  ----------------------------------------------------------------------------
  Term symbol:  2 (1) B2                                    R^2 =  3.17346e-11

  Total energy:                                            -78.7501104676 a.u.
  Excitation energy:                                               0.940445 eV

  Osc. strength:                                                      0.001570
  Trans. dip. moment [a.u.]:           [   0.000000,   -0.261071,   -0.000000]
  <i|r^2|0> [a.u.]:                    [   0.000000,    0.000000,   -0.000000]

  Dip. moment [a.u.]:                  [  -0.000000,   -0.000000,   -1.295248]
  Total dipole [Debye]:                                               3.292194
  <r^2> [a.u.]:                        [  35.681056,   49.104212,  465.421207]
  Total <r^2> [a.u.]:                                               550.206474

  V1^2 = 0.9532, V2^2 = 0.0468

  Important amplitudes:
      occ i      occ j       vir a       vir b          v   
    ---------------------------------------------------------
     6 (A1) A               3 (B2) A                  0.6314
     6 (A1) A               2 (B2) A                 -0.2566
    ---------------------------------------------------------

  Density matrix analysis:
  ------------------------
  NOs
    Occupation of frontier NOs:
       0.9963   1.0003
    Number of electrons: 18.000000
    Number of unpaired electrons: n_u =  2.41228, n_u,nl =  2.04634
    NO participation ratio (PR_NO):  2.903672
  
  
  Mulliken Population Analysis
  Atom      Charge (e)              h+              e-           Del q
  --------------------------------------------------------------------
   1 C       -0.612436        0.024218       -0.467185       -0.442968
   2 C       -0.701015        0.074538       -0.598172       -0.523634
   3 H        0.072493        0.001153       -0.007493       -0.006340
   4 H        0.078350        0.000635       -0.013276       -0.012641
   5 H        0.072493        0.001153       -0.007493       -0.006340
   6 H        0.078350        0.000635       -0.013276       -0.012641
   7 H        0.011764        1.028808       -0.024244        1.004564
  --------------------------------------------------------------------
  Sum:       -1.000000        1.131140       -1.131140       -0.000000
  
  Multipole moment analysis of the density matrix
    Molecular charge:                      -1.000000
    Number of electrons:                   18.000000
      Center of electronic charge [Ang]: [  0.000000,   0.000000,   0.038079]
    Total nuclear charge:                  17.000000
      Center of nuclear charge [Ang]:    [ -0.000000,   0.000000,  -0.000000]
    Dipole moment [D]:                     3.292193
      Cartesian components [D]:          [ -0.000000,  -0.000000,  -3.292193]
    RMS size of the density [Ang]:         2.925438
      Cartesian components [Ang]:        [  0.745047,   0.874026,   2.690571]
  
  Exciton analysis of the difference density matrix
    <r_h> [Ang]:                  [  0.000000,   0.000000,  -9.187316]
    <r_e> [Ang]:                  [  0.000000,   0.000000,   0.210550]
    |<r_e - r_h>| [Ang]:            9.397866
    Hole size [Ang]:                3.112545
      Cartesian components [Ang]: [  0.824644,   0.829161,   2.884508]
    Electron size [Ang]:            4.957165
      Cartesian components [Ang]: [  1.811519,   3.027416,   3.482331]

  Transition density matrix analysis:
  -----------------------------------
  
  CT numbers (Mulliken)
    omega =     0.9456
    <Phe> =     0.0016
  
  Exciton analysis of the transition density matrix
    Trans. dipole moment [D]:             0.331788
      Cartesian components [D]:         [  0.000000,  -0.331788,  -0.000000]
    <r_h> [Ang]:                        [  0.000000,  -0.000000, -10.010847]
    <r_e> [Ang]:                        [ -0.000000,   0.000000,   0.561599]
    |<r_e - r_h>| [Ang]:                 10.572446
    Hole size [Ang]:                      1.219585
      Cartesian components [Ang]:       [  0.654944,   0.654840,   0.793486]
    Electron size [Ang]:                  4.868957
      Cartesian components [Ang]:       [  1.832258,   3.172400,   3.207094]
    RMS electron-hole separation [Ang]:  11.703451
      Cartesian components [Ang]:       [  1.945796,   3.239261,  11.076635]
    Covariance(r_h, r_e) [Ang^2]:        -0.000014
    Correlation coefficient:             -0.000002
    Center-of-mass size [Ang]:            2.509686
      Cartesian components [Ang]:       [  0.972898,   1.619650,   1.651887]

  Decomposition into state-averaged NTOs
    H- 0 -> L+ 0: -0.4941 ( 48.8%)
    H- 0 -> L+ 1:  0.4316 ( 37.3%)
    H- 0 -> L+ 3: -0.1652 (  5.5%)
    H- 0 -> L+ 4:  0.1222 (  3.0%)
                   omega =  94.6%
  ----------------------------------------------------------------------------


  Excited state 3 (singlet, B2)                                    [converged]
  ----------------------------------------------------------------------------
  Term symbol:  3 (1) B2                                    R^2 =  1.63999e-10

  Total energy:                                            -78.7076123551 a.u.
  Excitation energy:                                               2.096877 eV

  Osc. strength:                                                      0.000678
  Trans. dip. moment [a.u.]:           [  -0.000000,    0.114885,   -0.000000]
  <i|r^2|0> [a.u.]:                    [   0.000000,    0.000000,   -0.000000]

  Dip. moment [a.u.]:                  [  -0.000000,    0.000000,   -1.335352]
  Total dipole [Debye]:                                               3.394126
  <r^2> [a.u.]:                        [  29.864843,   29.306531,  448.050018]
  Total <r^2> [a.u.]:                                               507.221391

  V1^2 = 0.9322, V2^2 = 0.0678

  Important amplitudes:
      occ i      occ j       vir a       vir b          v   
    ---------------------------------------------------------
     6 (A1) A               4 (B2) A                  0.6605
     6 (A1) A               6 (B2) A                 -0.1185
    ---------------------------------------------------------

  Density matrix analysis:
  ------------------------
  NOs
    Occupation of frontier NOs:
       0.9908   0.9991
    Number of electrons: 18.000000
    Number of unpaired electrons: n_u =  2.41400, n_u,nl =  2.04302
    NO participation ratio (PR_NO):  2.926754
  
  
  Mulliken Population Analysis
  Atom      Charge (e)              h+              e-           Del q
  --------------------------------------------------------------------
   1 C       -0.558449        0.138461       -0.527441       -0.388981
   2 C       -0.572779        0.191319       -0.586717       -0.395398
   3 H        0.027854        0.005650       -0.056629       -0.050979
   4 H        0.034126        0.005258       -0.062123       -0.056865
   5 H        0.027854        0.005650       -0.056629       -0.050979
   6 H        0.034126        0.005258       -0.062123       -0.056865
   7 H        0.007266        1.021034       -0.020968        1.000067
  --------------------------------------------------------------------
  Sum:       -1.000000        1.372630       -1.372630       -0.000000
  
  Multipole moment analysis of the density matrix
    Molecular charge:                      -1.000000
    Number of electrons:                   18.000000
      Center of electronic charge [Ang]: [  0.000000,  -0.000000,   0.039258]
    Total nuclear charge:                  17.000000
      Center of nuclear charge [Ang]:    [ -0.000000,   0.000000,  -0.000000]
    Dipole moment [D]:                     3.394125
      Cartesian components [D]:          [ -0.000000,   0.000000,  -3.394125]
    RMS size of the density [Ang]:         2.808803
      Cartesian components [Ang]:        [  0.681624,   0.675223,   2.639855]
  
  Exciton analysis of the difference density matrix
    <r_h> [Ang]:                  [  0.000000,   0.000000,  -7.386550]
    <r_e> [Ang]:                  [  0.000000,  -0.000000,   0.373387]
    |<r_e - r_h>| [Ang]:            7.759938
    Hole size [Ang]:                4.759573
      Cartesian components [Ang]: [  0.783555,   0.774471,   4.630310]
    Electron size [Ang]:            3.324491
      Cartesian components [Ang]: [  1.253501,   1.883385,   2.435947]

  Transition density matrix analysis:
  -----------------------------------
  
  CT numbers (Mulliken)
    omega =     0.9146
    <Phe> =     0.0002
  
  Exciton analysis of the transition density matrix
    Trans. dipole moment [D]:             0.146004
      Cartesian components [D]:         [ -0.000000,   0.146004,  -0.000000]
    <r_h> [Ang]:                        [  0.000000,  -0.000000, -10.011031]
    <r_e> [Ang]:                        [ -0.000000,  -0.000000,   0.617170]
    |<r_e - r_h>| [Ang]:                 10.628201
    Hole size [Ang]:                      1.218546
      Cartesian components [Ang]:       [  0.654678,   0.654569,   0.792332]
    Electron size [Ang]:                  3.271424
      Cartesian components [Ang]:       [  1.226601,   2.111331,   2.177142]
    RMS electron-hole separation [Ang]:  11.186864
      Cartesian components [Ang]:       [  1.390378,   2.210453,  10.877806]
    Covariance(r_h, r_e) [Ang^2]:        -0.000100
    Correlation coefficient:             -0.000025
    Center-of-mass size [Ang]:            1.745485
      Cartesian components [Ang]:       [  0.695190,   1.105244,   1.158389]

  Decomposition into state-averaged NTOs
    H- 0 -> L+ 3: -0.5632 ( 63.4%)
    H- 0 -> L+ 4:  0.3031 ( 18.4%)
    H- 0 -> L+ 0:  0.1547 (  4.8%)
    H- 0 -> L+ 1: -0.1426 (  4.1%)
                   omega =  91.5%
  ----------------------------------------------------------------------------


  Excited state 4 (singlet, B2)                                    [converged]
  ----------------------------------------------------------------------------
  Term symbol:  4 (1) B2                                    R^2 =  2.07539e-07

  Total energy:                                            -78.6410990994 a.u.
  Excitation energy:                                               3.906795 eV

  Osc. strength:                                                      0.000003
  Trans. dip. moment [a.u.]:           [  -0.000000,    0.005774,    0.000000]
  <i|r^2|0> [a.u.]:                    [  -0.000000,   -0.000000,    0.000000]

  Dip. moment [a.u.]:                  [  -0.000000,    0.000000,  -29.488906]
  Total dipole [Debye]:                                              74.953337
  <r^2> [a.u.]:                        [  56.127851,   78.013672,  172.034245]
  Total <r^2> [a.u.]:                                               306.175768

  V1^2 = 0.0074, V2^2 = 0.9926

  Important amplitudes:
      occ i      occ j       vir a       vir b          v   
    ---------------------------------------------------------
     6 (A1) A   6 (A1) B    7 (A1) A    2 (B2) B      0.3518
     6 (A1) A               2 (B2) A                  0.0597
    ---------------------------------------------------------

  Density matrix analysis:
  ------------------------
  NOs
    Occupation of frontier NOs:
       1.0003   1.0008
    Number of electrons: 18.000000
    Number of unpaired electrons: n_u =  2.40649, n_u,nl =  2.04923
    NO participation ratio (PR_NO):  2.880364
  
  
  Mulliken Population Analysis
  Atom      Charge (e)              h+              e-           Del q
  --------------------------------------------------------------------
   1 C       -3.099099        0.000888       -2.930518       -2.929631
   2 C        0.773318        0.005531        0.945168        0.950698
   3 H        0.081723        0.000018        0.002871        0.002889
   4 H        0.083090       -0.000014       -0.007887       -0.007901
   5 H        0.081723        0.000018        0.002871        0.002889
   6 H        0.083090       -0.000014       -0.007887       -0.007901
   7 H        0.996156        1.989162       -0.000205        1.988957
  --------------------------------------------------------------------
  Sum:       -1.000000        1.995587       -1.995587        0.000000
  
  Multipole moment analysis of the density matrix
    Molecular charge:                      -1.000000
    Number of electrons:                   18.000000
      Center of electronic charge [Ang]: [  0.000000,  -0.000000,   0.866937]
    Total nuclear charge:                  17.000000
      Center of nuclear charge [Ang]:    [ -0.000000,   0.000000,  -0.000000]
    Dipole moment [D]:                     74.953315
      Cartesian components [D]:          [ -0.000000,   0.000000, -74.953315]
    RMS size of the density [Ang]:         2.002908
      Cartesian components [Ang]:        [  0.934446,   1.101667,   1.387365]
  
  Exciton analysis of the difference density matrix
    <r_h> [Ang]:                  [ -0.000000,   0.000000, -10.011177]
    <r_e> [Ang]:                  [  0.000000,  -0.000000,   2.791941]
    |<r_e - r_h>| [Ang]:           12.803118
    Hole size [Ang]:                1.233998
      Cartesian components [Ang]: [  0.650455,   0.650404,   0.822577]
    Electron size [Ang]:            4.508573
      Cartesian components [Ang]: [  2.183320,   3.047141,   2.505049]

  Transition density matrix analysis:
  -----------------------------------
  
  CT numbers (Mulliken)
    omega =     0.0074
    <Phe> =     0.0014
  
  Exciton analysis of the transition density matrix
    Trans. dipole moment [D]:             0.007338
      Cartesian components [D]:         [ -0.000000,   0.007338,   0.000000]
    <r_h> [Ang]:                        [ -0.000000,   0.000000, -10.032726]
    <r_e> [Ang]:                        [ -0.000000,   0.000000,   2.283013]
    |<r_e - r_h>| [Ang]:                 12.315739
    Hole size [Ang]:                      1.103820
      Cartesian components [Ang]:       [  0.628200,   0.628212,   0.655083]
    Electron size [Ang]:                  4.441090
      Cartesian components [Ang]:       [  2.022340,   3.502821,   1.834031]
    RMS electron-hole separation [Ang]:  13.138872
      Cartesian components [Ang]:       [  2.117662,   3.558734,  12.469196]
    Covariance(r_h, r_e) [Ang^2]:        -0.005403
    Correlation coefficient:             -0.001102
    Center-of-mass size [Ang]:            2.287515
      Cartesian components [Ang]:       [  1.058831,   1.779341,   0.972392]

  Decomposition into state-averaged NTOs
                   omega =   0.7%
  ----------------------------------------------------------------------------


  Excited state 5 (singlet, B2)                                    [converged]
  ----------------------------------------------------------------------------
  Term symbol:  5 (1) B2                                    R^2 =  1.20819e-06

  Total energy:                                            -78.6177832123 a.u.
  Excitation energy:                                               4.541253 eV

  Osc. strength:                                                      0.000003
  Trans. dip. moment [a.u.]:           [   0.000000,   -0.004789,   -0.000000]
  <i|r^2|0> [a.u.]:                    [  -0.000000,   -0.000000,    0.000000]

  Dip. moment [a.u.]:                  [  -0.000000,    0.000000,  -23.643979]
  Total dipole [Debye]:                                              60.097012
  <r^2> [a.u.]:                        [  53.720522,   70.790159,  174.185741]
  Total <r^2> [a.u.]:                                               298.696422

  V1^2 = 0.0072, V2^2 = 0.9928

  Important amplitudes:
      occ i      occ j       vir a       vir b          v   
    ---------------------------------------------------------
     6 (A1) A   6 (A1) B    7 (A1) A    3 (B2) B      0.3519
     6 (A1) A               3 (B2) A                  0.0544
    ---------------------------------------------------------

  Density matrix analysis:
  ------------------------
  NOs
    Occupation of frontier NOs:
       0.9996   1.0000
    Number of electrons: 18.000000
    Number of unpaired electrons: n_u =  2.40871, n_u,nl =  2.04886
    NO participation ratio (PR_NO):  2.883729
  
  
  Mulliken Population Analysis
  Atom      Charge (e)              h+              e-           Del q
  --------------------------------------------------------------------
   1 C       -1.103418        0.000201       -0.934151       -0.933949
   2 C       -1.222088        0.005755       -1.050463       -1.044708
   3 H        0.081600        0.000005        0.002761        0.002766
   4 H        0.083138       -0.000013       -0.007840       -0.007853
   5 H        0.081600        0.000005        0.002761        0.002766
   6 H        0.083138       -0.000013       -0.007840       -0.007853
   7 H        0.996030        1.988976       -0.000146        1.988831
  --------------------------------------------------------------------
  Sum:       -1.000000        1.994917       -1.994917        0.000000
  
  Multipole moment analysis of the density matrix
    Molecular charge:                      -1.000000
    Number of electrons:                   18.000000
      Center of electronic charge [Ang]: [  0.000000,  -0.000000,   0.695103]
    Total nuclear charge:                  17.000000
      Center of nuclear charge [Ang]:    [ -0.000000,   0.000000,  -0.000000]
    Dipole moment [D]:                     60.096994
      Cartesian components [D]:          [ -0.000000,   0.000000, -60.096994]
    RMS size of the density [Ang]:         2.040513
      Cartesian components [Ang]:        [  0.914187,   1.049425,   1.492201]
  
  Exciton analysis of the difference density matrix
    <r_h> [Ang]:                  [ -0.000000,   0.000000, -10.014376]
    <r_e> [Ang]:                  [  0.000000,  -0.000000,   1.242603]
    |<r_e - r_h>| [Ang]:           11.256979
    Hole size [Ang]:                1.217028
      Cartesian components [Ang]: [  0.650484,   0.650419,   0.796858]
    Electron size [Ang]:            5.052320
      Cartesian components [Ang]: [  2.104867,   2.876473,   3.580695]

  Transition density matrix analysis:
  -----------------------------------
  
  CT numbers (Mulliken)
    omega =     0.0072
    <Phe> =     0.0015
  
  Exciton analysis of the transition density matrix
    Trans. dipole moment [D]:             0.006086
      Cartesian components [D]:         [  0.000000,  -0.006086,  -0.000000]
    <r_h> [Ang]:                        [ -0.000000,   0.000000, -10.030403]
    <r_e> [Ang]:                        [ -0.000000,   0.000000,  -1.125673]
    |<r_e - r_h>| [Ang]:                  8.904730
    Hole size [Ang]:                      1.115666
      Cartesian components [Ang]:       [  0.630487,   0.630507,   0.670565]
    Electron size [Ang]:                  4.982217
      Cartesian components [Ang]:       [  2.086664,   3.613937,   2.721724]
    RMS electron-hole separation [Ang]:  10.264497
      Cartesian components [Ang]:       [  2.179835,   3.668699,   9.335356]
    Covariance(r_h, r_e) [Ang^2]:         0.000755
    Correlation coefficient:              0.000136
    Center-of-mass size [Ang]:            2.552876
      Cartesian components [Ang]:       [  1.089917,   1.834176,   1.401804]

  Decomposition into state-averaged NTOs
                   omega =   0.7%
  ----------------------------------------------------------------------------


  Excited state 6 (singlet, B2)                                    [converged]
  ----------------------------------------------------------------------------
  Term symbol:  6 (1) B2                                    R^2 =  3.08035e-08

  Total energy:                                            -78.6163649334 a.u.
  Excitation energy:                                               4.579846 eV

  Osc. strength:                                                      0.000029
  Trans. dip. moment [a.u.]:           [  -0.000000,    0.016007,    0.000000]
  <i|r^2|0> [a.u.]:                    [  -0.000000,   -0.000000,    0.000000]

  Dip. moment [a.u.]:                  [  -0.000000,   -0.000000,   -1.416366]
  Total dipole [Debye]:                                               3.600044
  <r^2> [a.u.]:                        [  33.339703,   41.558673,  439.107264]
  Total <r^2> [a.u.]:                                               514.005640

  V1^2 = 0.9468, V2^2 = 0.0532

  Important amplitudes:
      occ i      occ j       vir a       vir b          v   
    ---------------------------------------------------------
     6 (A1) A               5 (B2) A                  0.6854
     6 (A1) A   6 (A1) B    8 (A1) A    5 (B2) B     -0.0449
    ---------------------------------------------------------

  Density matrix analysis:
  ------------------------
  NOs
    Occupation of frontier NOs:
       0.9882   0.9980
    Number of electrons: 18.000000
    Number of unpaired electrons: n_u =  2.42479, n_u,nl =  2.05167
    NO participation ratio (PR_NO):  2.960510
  
  
  Mulliken Population Analysis
  Atom      Charge (e)              h+              e-           Del q
  --------------------------------------------------------------------
   1 C       -0.613326        0.053660       -0.497518       -0.443858
   2 C       -0.623913        0.105317       -0.551849       -0.446532
   3 H        0.053384       -0.001166       -0.024284       -0.025450
   4 H        0.059198       -0.001293       -0.030500       -0.031793
   5 H        0.053384       -0.001166       -0.024284       -0.025450
   6 H        0.059198       -0.001293       -0.030500       -0.031793
   7 H        0.012076        1.028096       -0.023220        1.004876
  --------------------------------------------------------------------
  Sum:       -1.000000        1.182156       -1.182156       -0.000000
  
  Multipole moment analysis of the density matrix
    Molecular charge:                      -1.000000
    Number of electrons:                   18.000000
      Center of electronic charge [Ang]: [  0.000000,   0.000000,   0.041639]
    Total nuclear charge:                  17.000000
      Center of nuclear charge [Ang]:    [ -0.000000,   0.000000,  -0.000000]
    Dipole moment [D]:                     3.600042
      Cartesian components [D]:          [ -0.000000,  -0.000000,  -3.600042]
    RMS size of the density [Ang]:         2.827494
      Cartesian components [Ang]:        [  0.720188,   0.804073,   2.613335]
  
  Exciton analysis of the difference density matrix
    <r_h> [Ang]:                  [ -0.000000,   0.000000,  -8.752593]
    <r_e> [Ang]:                  [ -0.000000,   0.000000,   0.293926]
    |<r_e - r_h>| [Ang]:            9.046519
    Hole size [Ang]:                3.661171
      Cartesian components [Ang]: [  0.814167,   0.812009,   3.475909]
    Electron size [Ang]:            3.856395
      Cartesian components [Ang]: [  1.611690,   2.642700,   2.300082]

  Transition density matrix analysis:
  -----------------------------------
  
  CT numbers (Mulliken)
    omega =     0.9394
    <Phe> =     0.0003
  
  Exciton analysis of the transition density matrix
    Trans. dipole moment [D]:             0.020343
      Cartesian components [D]:         [ -0.000000,   0.020343,   0.000000]
    <r_h> [Ang]:                        [  0.000000,  -0.000000, -10.009550]
    <r_e> [Ang]:                        [  0.000000,   0.000000,   0.619637]
    |<r_e - r_h>| [Ang]:                 10.629187
    Hole size [Ang]:                      1.225194
      Cartesian components [Ang]:       [  0.654848,   0.654788,   0.802201]
    Electron size [Ang]:                  3.645433
      Cartesian components [Ang]:       [  1.626547,   2.816141,   1.647082]
    RMS electron-hole separation [Ang]:  11.304850
      Cartesian components [Ang]:       [  1.753419,   2.891255,  10.787298]
    Covariance(r_h, r_e) [Ang^2]:        -0.014863
    Correlation coefficient:             -0.003328
    Center-of-mass size [Ang]:            1.920974
      Cartesian components [Ang]:       [  0.876710,   1.445635,   0.911953]

  Decomposition into state-averaged NTOs
    H- 0 -> L+ 2:  0.6707 ( 90.0%)
    H- 0 -> L+ 1:  0.0868 (  1.5%)
    H- 0 -> L+ 3:  0.0843 (  1.4%)
                   omega =  93.9%
  ----------------------------------------------------------------------------


  Excited state 7 (singlet, B2)                                    [converged]
  ----------------------------------------------------------------------------
  Term symbol:  7 (1) B2                                    R^2 =  3.28118e-07

  Total energy:                                            -78.5972771996 a.u.
  Excitation energy:                                               5.099250 eV

  Osc. strength:                                                      0.000003
  Trans. dip. moment [a.u.]:           [  -0.000000,    0.004539,    0.000000]
  <i|r^2|0> [a.u.]:                    [  -0.000000,   -0.000000,    0.000000]

  Dip. moment [a.u.]:                  [   0.000000,   -0.000000,  -19.582842]
  Total dipole [Debye]:                                              49.774628
  <r^2> [a.u.]:                        [  53.795404,   75.683453,  155.816467]
  Total <r^2> [a.u.]:                                               285.295324

  V1^2 = 0.0208, V2^2 = 0.9792

  Important amplitudes:
      occ i      occ j       vir a       vir b          v   
    ---------------------------------------------------------
     6 (A1) A   6 (A1) B    8 (A1) A    2 (B2) B      0.3495
     6 (A1) A               2 (B2) A                  0.1003
    ---------------------------------------------------------

  Density matrix analysis:
  ------------------------
  NOs
    Occupation of frontier NOs:
       0.9999   1.0007
    Number of electrons: 18.000000
    Number of unpaired electrons: n_u =  2.40742, n_u,nl =  2.04922
    NO participation ratio (PR_NO):  2.881564
  
  
  Mulliken Population Analysis
  Atom      Charge (e)              h+              e-           Del q
  --------------------------------------------------------------------
   1 C       -1.398632        0.001421       -1.230584       -1.229163
   2 C       -0.933678        0.001260       -0.757557       -0.756297
   3 H        0.074608        0.000071       -0.004297       -0.004226
   4 H        0.095857       -0.000009        0.004875        0.004866
   5 H        0.074608        0.000071       -0.004297       -0.004226
   6 H        0.095857       -0.000009        0.004875        0.004866
   7 H        0.991380        1.984455       -0.000274        1.984181
  --------------------------------------------------------------------
  Sum:       -1.000000        1.987260       -1.987260        0.000000
  
  Multipole moment analysis of the density matrix
    Molecular charge:                      -1.000000
    Number of electrons:                   18.000000
      Center of electronic charge [Ang]: [ -0.000000,   0.000000,   0.575711]
    Total nuclear charge:                  17.000000
      Center of nuclear charge [Ang]:    [ -0.000000,   0.000000,  -0.000000]
    Dipole moment [D]:                     49.774613
      Cartesian components [D]:          [  0.000000,  -0.000000, -49.774613]
    RMS size of the density [Ang]:         2.026558
      Cartesian components [Ang]:        [  0.914824,   1.085089,   1.446588]
  
  Exciton analysis of the difference density matrix
    <r_h> [Ang]:                  [  0.000000,   0.000000, -10.021965]
    <r_e> [Ang]:                  [ -0.000000,   0.000000,   0.196970]
    |<r_e - r_h>| [Ang]:           10.218935
    Hole size [Ang]:                1.192576
      Cartesian components [Ang]: [  0.644382,   0.644433,   0.769231]
    Electron size [Ang]:            4.994810
      Cartesian components [Ang]: [  2.109160,   2.997686,   3.393148]

  Transition density matrix analysis:
  -----------------------------------
  
  CT numbers (Mulliken)
    omega =     0.0207
    <Phe> =     0.0013
  
  Exciton analysis of the transition density matrix
    Trans. dipole moment [D]:             0.005768
      Cartesian components [D]:         [ -0.000000,   0.005768,   0.000000]
    <r_h> [Ang]:                        [ -0.000000,   0.000000, -10.035696]
    <r_e> [Ang]:                        [ -0.000000,   0.000000,   2.314151]
    |<r_e - r_h>| [Ang]:                 12.349847
    Hole size [Ang]:                      1.082092
      Cartesian components [Ang]:       [  0.619902,   0.619902,   0.634324]
    Electron size [Ang]:                  4.867344
      Cartesian components [Ang]:       [  2.236344,   3.873424,   1.919996]
    RMS electron-hole separation [Ang]:  13.318459
      Cartesian components [Ang]:       [  2.320671,   3.922719,  12.514316]
    Covariance(r_h, r_e) [Ang^2]:        -0.000340
    Correlation coefficient:             -0.000064
    Center-of-mass size [Ang]:            2.493054
      Cartesian components [Ang]:       [  1.160335,   1.961356,   1.010953]

  Decomposition into state-averaged NTOs
    H- 0 -> L+ 1: -0.0961 (  1.8%)
                   omega =   2.1%
  ----------------------------------------------------------------------------


  Excited state 8 (singlet, B2)                                    [converged]
  ----------------------------------------------------------------------------
  Term symbol:  8 (1) B2                                    R^2 =  4.40352e-07

  Total energy:                                            -78.5781553131 a.u.
  Excitation energy:                                               5.619583 eV

  Osc. strength:                                                      0.000000
  Trans. dip. moment [a.u.]:           [   0.000000,   -0.001406,   -0.000000]
  <i|r^2|0> [a.u.]:                    [   0.000000,    0.000000,   -0.000000]

  Dip. moment [a.u.]:                  [   0.000000,   -0.000000,  -24.931945]
  Total dipole [Debye]:                                              63.370695
  <r^2> [a.u.]:                        [  47.780297,   72.722893,  118.795997]
  Total <r^2> [a.u.]:                                               239.299187

  V1^2 = 0.0007, V2^2 = 0.9993

  Important amplitudes:
      occ i      occ j       vir a       vir b          v   
    ---------------------------------------------------------
     6 (A1) A   6 (A1) B    9 (A1) A    2 (B2) B     -0.3534
     6 (A1) A               6 (B2) A                 -0.0170
    ---------------------------------------------------------

  Density matrix analysis:
  ------------------------
  NOs
    Occupation of frontier NOs:
       0.9999   1.0022
    Number of electrons: 18.000000
    Number of unpaired electrons: n_u =  2.40413, n_u,nl =  2.04920
    NO participation ratio (PR_NO):  2.878230
  
  
  Mulliken Population Analysis
  Atom      Charge (e)              h+              e-           Del q
  --------------------------------------------------------------------
   1 C       -0.816389       -0.002574       -0.644347       -0.646920
   2 C       -1.806285        0.009141       -1.638046       -1.628905
   3 H        0.155350        0.000025        0.076492        0.076517
   4 H        0.155971       -0.000021        0.065001        0.064980
   5 H        0.155350        0.000025        0.076492        0.076517
   6 H        0.155971       -0.000021        0.065001        0.064980
   7 H        1.000031        1.992839       -0.000007        1.992832
  --------------------------------------------------------------------
  Sum:       -1.000000        1.999414       -1.999414       -0.000000
  
  Multipole moment analysis of the density matrix
    Molecular charge:                      -1.000000
    Number of electrons:                   18.000000
      Center of electronic charge [Ang]: [ -0.000000,   0.000000,   0.732968]
    Total nuclear charge:                  17.000000
      Center of nuclear charge [Ang]:    [ -0.000000,   0.000000,  -0.000000]
    Dipole moment [D]:                     63.370676
      Cartesian components [D]:          [  0.000000,  -0.000000, -63.370676]
    RMS size of the density [Ang]:         1.784816
      Cartesian components [Ang]:        [  0.862163,   1.063654,   1.144939]
  
  Exciton analysis of the difference density matrix
    <r_h> [Ang]:                  [  0.000000,   0.000000, -10.014563]
    <r_e> [Ang]:                  [ -0.000000,   0.000000,   1.557978]
    |<r_e - r_h>| [Ang]:           11.572541
    Hole size [Ang]:                1.203998
      Cartesian components [Ang]: [  0.652982,   0.652908,   0.772617]
    Electron size [Ang]:            4.057587
      Cartesian components [Ang]: [  1.895454,   2.920680,   2.083481]

  Transition density matrix analysis:
  -----------------------------------
  
  CT numbers (Mulliken)
    omega =     0.0007
    <Phe> =     0.0003
  
  Exciton analysis of the transition density matrix
    Trans. dipole moment [D]:             0.001787
      Cartesian components [D]:         [  0.000000,  -0.001787,  -0.000000]
    <r_h> [Ang]:                        [  0.000000,   0.000000, -10.008715]
    <r_e> [Ang]:                        [ -0.000000,  -0.000000,  -0.106558]
    |<r_e - r_h>| [Ang]:                  9.902158
    Hole size [Ang]:                      1.228085
      Cartesian components [Ang]:       [  0.653590,   0.653740,   0.808479]
    Electron size [Ang]:                  3.612874
      Cartesian components [Ang]:       [  1.415925,   2.451754,   2.244307]
    RMS electron-hole separation [Ang]:  10.614620
      Cartesian components [Ang]:       [  1.559494,   2.537540,  10.188181]
    Covariance(r_h, r_e) [Ang^2]:        -0.028191
    Correlation coefficient:             -0.006354
    Center-of-mass size [Ang]:            1.904250
      Cartesian components [Ang]:       [  0.779748,   1.268645,   1.186887]

  Decomposition into state-averaged NTOs
                   omega =   0.1%
  ----------------------------------------------------------------------------


  Excited state 9 (singlet, B2)                                    [converged]
  ----------------------------------------------------------------------------
  Term symbol:  9 (1) B2                                    R^2 =  1.47332e-07

  Total energy:                                            -78.5739849340 a.u.
  Excitation energy:                                               5.733065 eV

  Osc. strength:                                                      0.000007
  Trans. dip. moment [a.u.]:           [  -0.000000,    0.007225,    0.000000]
  <i|r^2|0> [a.u.]:                    [  -0.000000,   -0.000000,   -0.000000]

  Dip. moment [a.u.]:                  [   0.000000,    0.000000,  -13.745280]
  Total dipole [Debye]:                                              34.937024
  <r^2> [a.u.]:                        [  51.344157,   68.299036,  158.898814]
  Total <r^2> [a.u.]:                                               278.542006

  V1^2 = 0.0228, V2^2 = 0.9772

  Important amplitudes:
      occ i      occ j       vir a       vir b          v   
    ---------------------------------------------------------
     6 (A1) A   6 (A1) B    8 (A1) A    3 (B2) B     -0.3491
     6 (A1) A               3 (B2) A                 -0.0938
    ---------------------------------------------------------

  Density matrix analysis:
  ------------------------
  NOs
    Occupation of frontier NOs:
       0.9955   0.9956
    Number of electrons: 18.000000
    Number of unpaired electrons: n_u =  2.40901, n_u,nl =  2.04902
    NO participation ratio (PR_NO):  2.908720
  
  
  Mulliken Population Analysis
  Atom      Charge (e)              h+              e-           Del q
  --------------------------------------------------------------------
   1 C        0.580610        0.001521        0.748557        0.750078
   2 C       -2.907521        0.001859       -2.731999       -2.730141
   3 H        0.073987        0.000016       -0.004862       -0.004847
   4 H        0.095443        0.000015        0.004438        0.004452
   5 H        0.073987        0.000016       -0.004862       -0.004847
   6 H        0.095443        0.000015        0.004438        0.004452
   7 H        0.988050        1.981117       -0.000266        1.980851
  --------------------------------------------------------------------
  Sum:       -1.000000        1.984557       -1.984557        0.000000
  
  Multipole moment analysis of the density matrix
    Molecular charge:                      -1.000000
    Number of electrons:                   18.000000
      Center of electronic charge [Ang]: [ -0.000000,  -0.000000,   0.404094]
    Total nuclear charge:                  17.000000
      Center of nuclear charge [Ang]:    [ -0.000000,   0.000000,  -0.000000]
    Dipole moment [D]:                     34.937013
      Cartesian components [D]:          [  0.000000,   0.000000, -34.937013]
    RMS size of the density [Ang]:         2.042064
      Cartesian components [Ang]:        [  0.893738,   1.030795,   1.519447]
  
  Exciton analysis of the difference density matrix
    <r_h> [Ang]:                  [  0.000000,  -0.000000, -10.019119]
    <r_e> [Ang]:                  [ -0.000000,   0.000000,  -1.342840]
    |<r_e - r_h>| [Ang]:            8.676278
    Hole size [Ang]:                1.203710
      Cartesian components [Ang]: [  0.644745,   0.644677,   0.785883]
    Electron size [Ang]:            4.700612
      Cartesian components [Ang]: [  2.026977,   2.820662,   3.167172]

  Transition density matrix analysis:
  -----------------------------------
  
  CT numbers (Mulliken)
    omega =     0.0227
    <Phe> =     0.0013
  
  Exciton analysis of the transition density matrix
    Trans. dipole moment [D]:             0.009183
      Cartesian components [D]:         [ -0.000000,   0.009183,   0.000000]
    <r_h> [Ang]:                        [ -0.000000,   0.000000, -10.031090]
    <r_e> [Ang]:                        [  0.000000,  -0.000000,  -0.513727]
    |<r_e - r_h>| [Ang]:                  9.517362
    Hole size [Ang]:                      1.107695
      Cartesian components [Ang]:       [  0.625676,   0.625666,   0.666378]
    Electron size [Ang]:                  5.224711
      Cartesian components [Ang]:       [  2.051654,   3.553218,   3.234650]
    RMS electron-hole separation [Ang]:  10.912937
      Cartesian components [Ang]:       [  2.144937,   3.607913,  10.073450]
    Covariance(r_h, r_e) [Ang^2]:         0.006298
    Correlation coefficient:              0.001088
    Center-of-mass size [Ang]:            2.671010
      Cartesian components [Ang]:       [  1.072469,   1.803926,   1.652258]

  Decomposition into state-averaged NTOs
    H- 0 -> L+ 0:  0.0865 (  1.5%)
                   omega =   2.3%
  ----------------------------------------------------------------------------


  Excited state 10 (singlet, B2)                                    [converged]
  ----------------------------------------------------------------------------
  Term symbol:  10 (1) B2                                   R^2 =  6.05855e-09

  Total energy:                                            -78.5626418564 a.u.
  Excitation energy:                                               6.041725 eV

  Osc. strength:                                                      0.000104
  Trans. dip. moment [a.u.]:           [   0.000000,   -0.026531,   -0.000000]
  <i|r^2|0> [a.u.]:                    [   0.000000,    0.000000,   -0.000000]

  Dip. moment [a.u.]:                  [  -0.000000,    0.000000,   -2.216411]
  Total dipole [Debye]:                                               5.633556
  <r^2> [a.u.]:                        [  31.228630,   33.152454,  437.435190]
  Total <r^2> [a.u.]:                                               501.816274

  V1^2 = 0.8945, V2^2 = 0.1055

  Important amplitudes:
      occ i      occ j       vir a       vir b          v   
    ---------------------------------------------------------
     6 (A1) A               6 (B2) A                 -0.6544
     6 (A1) A               4 (B2) A                 -0.1281
    ---------------------------------------------------------

  Density matrix analysis:
  ------------------------
  NOs
    Occupation of frontier NOs:
       0.9427   0.9609
    Number of electrons: 18.000000
    Number of unpaired electrons: n_u =  2.44486, n_u,nl =  2.06435
    NO participation ratio (PR_NO):  3.263520
  
  
  Mulliken Population Analysis
  Atom      Charge (e)              h+              e-           Del q
  --------------------------------------------------------------------
   1 C       -0.620127        0.081403       -0.532061       -0.450658
   2 C       -0.619128        0.134572       -0.576319       -0.441747
   3 H        0.044259        0.000263       -0.034838       -0.034575
   4 H        0.050454       -0.000143       -0.040394       -0.040537
   5 H        0.044259        0.000263       -0.034838       -0.034575
   6 H        0.050454       -0.000143       -0.040394       -0.040537
   7 H        0.049830        1.061574       -0.018944        1.042630
  --------------------------------------------------------------------
  Sum:       -1.000000        1.277789       -1.277789       -0.000000
  
  Multipole moment analysis of the density matrix
    Molecular charge:                      -1.000000
    Number of electrons:                   18.000000
      Center of electronic charge [Ang]: [  0.000000,  -0.000000,   0.065160]
    Total nuclear charge:                  17.000000
      Center of nuclear charge [Ang]:    [ -0.000000,   0.000000,  -0.000000]
    Dipole moment [D]:                     5.633555
      Cartesian components [D]:          [ -0.000000,   0.000000,  -5.633555]
    RMS size of the density [Ang]:         2.793310
      Cartesian components [Ang]:        [  0.697014,   0.718162,   2.607872]
  
  Exciton analysis of the difference density matrix
    <r_h> [Ang]:                  [  0.000000,   0.000000,  -8.317195]
    <r_e> [Ang]:                  [  0.000000,  -0.000000,   0.383581]
    |<r_e - r_h>| [Ang]:            8.700777
    Hole size [Ang]:                4.091147
      Cartesian components [Ang]: [  0.783911,   0.771422,   3.940543]
    Electron size [Ang]:            3.695696
      Cartesian components [Ang]: [  1.393467,   2.145698,   2.666907]

  Transition density matrix analysis:
  -----------------------------------
  
  CT numbers (Mulliken)
    omega =     0.8846
    <Phe> =     0.0001
  
  Exciton analysis of the transition density matrix
    Trans. dipole moment [D]:             0.033717
      Cartesian components [D]:         [  0.000000,  -0.033717,  -0.000000]
    <r_h> [Ang]:                        [  0.000000,  -0.000000, -10.010860]
    <r_e> [Ang]:                        [ -0.000000,  -0.000000,   0.622211]
    |<r_e - r_h>| [Ang]:                 10.633071
    Hole size [Ang]:                      1.219384
      Cartesian components [Ang]:       [  0.654831,   0.654723,   0.793368]
    Electron size [Ang]:                  3.507287
      Cartesian components [Ang]:       [  1.318720,   2.283687,   2.312317]
    RMS electron-hole separation [Ang]:  11.262768
      Cartesian components [Ang]:       [  1.472354,   2.375680,  10.910465]
    Covariance(r_h, r_e) [Ang^2]:         0.000108
    Correlation coefficient:              0.000025
    Center-of-mass size [Ang]:            1.856622
      Cartesian components [Ang]:       [  0.736177,   1.187848,   1.222336]

  Decomposition into state-averaged NTOs
    H- 0 -> L+ 4:  0.5743 ( 66.0%)
    H- 0 -> L+ 3:  0.3267 ( 21.3%)
                   omega =  88.5%
  ----------------------------------------------------------------------------


--------------------------------------------------------------------------------
  Time of ADC calculation:  CPU 131.20 s  wall 39.05 s
================================================================================
 
 --------------------------------------------------------------
             Orbital Energies (a.u.) and Symmetries
 --------------------------------------------------------------
 
 Alpha MOs, Restricted
 -- Occupied --                  
-11.187 -11.185  -0.992  -0.731  -0.610  -0.517  -0.465  -0.327
  1 A1    2 A1    3 A1    4 A1    1 B1    5 A1    2 B1    1 B2                 
  0.020
  6 A1                                                                         
 -- Virtual --                   
  0.089   0.089   0.095   0.116   0.118   0.130   0.153   0.185
  7 A1    3 B1    2 B2    4 B1    3 B2    8 A1    9 A1    4 B2                 
  0.206   0.228   0.250   0.255   0.269   0.314   0.316   0.333
 10 A1    5 B1    6 B1    5 B2   11 A1   12 A1   13 A1    6 B2                 
  0.391   0.399   0.533   0.568   0.761   0.845   0.912   0.943
  7 B1   14 A1    8 B1   15 A1   16 A1    9 B1   17 A1    7 B2                 
  0.946   0.983   0.997   1.026   1.056   1.079   1.107   1.164
 10 B1   18 A1    8 B2   19 A1   20 A1   21 A1   11 B1    1 A2                 
  1.334   1.335   1.386   1.396   1.658   1.665   1.751   1.902
  9 B2    2 A2   22 A1   12 B1   23 A1   13 B1   14 B1   10 B2                 
  1.962   1.965   1.965   1.965   1.989   2.043   2.067   2.098
 24 A1   15 B1   11 B2   25 A1   12 B2   26 A1    3 A2   16 B1                 
  2.222   2.347   2.462   2.494   2.606   2.621   2.849   2.852
 13 B2   27 A1    4 A2   28 A1   17 B1   29 A1   18 B1   30 A1                 
  3.307   3.390
 31 A1   19 B1                                                                 
 
 Beta MOs, Restricted
 -- Occupied --                  
-11.187 -11.185  -0.992  -0.731  -0.610  -0.517  -0.465  -0.327
  1 A1    2 A1    3 A1    4 A1    1 B1    5 A1    2 B1    1 B2                 
  0.020
  6 A1                                                                         
 -- Virtual --                   
  0.089   0.089   0.095   0.116   0.118   0.130   0.153   0.185
  7 A1    3 B1    2 B2    4 B1    3 B2    8 A1    9 A1    4 B2                 
  0.206   0.228   0.250   0.255   0.269   0.314   0.316   0.333
 10 A1    5 B1    6 B1    5 B2   11 A1   12 A1   13 A1    6 B2                 
  0.391   0.399   0.533   0.568   0.761   0.845   0.912   0.943
  7 B1   14 A1    8 B1   15 A1   16 A1    9 B1   17 A1    7 B2                 
  0.946   0.983   0.997   1.026   1.056   1.079   1.107   1.164
 10 B1   18 A1    8 B2   19 A1   20 A1   21 A1   11 B1    1 A2                 
  1.334   1.335   1.386   1.396   1.658   1.665   1.751   1.902
  9 B2    2 A2   22 A1   12 B1   23 A1   13 B1   14 B1   10 B2                 
  1.962   1.965   1.965   1.965   1.989   2.043   2.067   2.098
 24 A1   15 B1   11 B2   25 A1   12 B2   26 A1    3 A2   16 B1                 
  2.222   2.347   2.462   2.494   2.606   2.621   2.849   2.852
 13 B2   27 A1    4 A2   28 A1   17 B1   29 A1   18 B1   30 A1                 
  3.307   3.390
 31 A1   19 B1                                                                 
 --------------------------------------------------------------
 
          Ground-State Mulliken Net Atomic Charges

     Atom                 Charge (a.u.)
  ----------------------------------------
      1 C                    -0.159539
      2 C                    -0.157842
      3 H                     0.071654
      4 H                     0.083823
      5 H                     0.071654
      6 H                     0.083823
      7 H                    -0.993573
  ----------------------------------------
  Sum of atomic charges =    -1.000000

 -----------------------------------------------------------------
                    Cartesian Multipole Moments
 -----------------------------------------------------------------
    Charge (ESU x 10^10)
                -4.8032
    Dipole Moment (Debye)
         X      -0.0000      Y      -0.0000      Z      47.7814
       Tot      47.7814
    Quadrupole Moments (Debye-Ang)
        XX     -16.0620     XY      -0.0000     YY     -20.2246
        XZ      -0.0000     YZ      -0.0000     ZZ    -498.5292
    Octopole Moments (Debye-Ang^2)
       XXX      -0.0000    XXY      -0.0000    XYY       0.0000
       YYY      -0.0000    XXZ      32.0940    XYZ      -0.0000
       YYZ      29.5187    XZZ      -0.0000    YZZ      -0.0000
       ZZZ    4922.2403
    Hexadecapole Moments (Debye-Ang^3)
      XXXX     -34.8578   XXXY      -0.0000   XXYY     -11.5735
      XYYY      -0.0000   YYYY     -29.2991   XXXZ       0.0000
      XXYZ      -0.0000   XYYZ       0.0000   YYYZ      -0.0000
      XXZZ    -419.1249   XYZZ      -0.0000   YYZZ    -423.0207
      XZZZ      -0.0000   YZZZ       0.0000   ZZZZ  -50941.4967
 -----------------------------------------------------------------
 Total job time:  121.70s(wall), 177.50s(cpu) 
 Fri Mar 25 16:28:56 2022

        *************************************************************
        *                                                           *
        *  Thank you very much for using Q-Chem.  Have a nice day.  *
        *                                                           *
        *************************************************************


