/src/tsommerfeld/qchem/exe/qcprog.exe .input1.638889.7880.qcin.1 /src/jdavis/qchem.scratch/qchem7880/

                  Welcome to Q-Chem
     A Quantum Leap Into The Future Of Chemistry


 Q-Chem 5.4 (devel), Q-Chem, Inc., Pleasanton, CA (2021)

 E. Epifanovsky,  A. T. B. Gilbert,  Xintian Feng,  Joonho Lee,  Yuezhi Mao,  
 N. Mardirossian,  P. Pokhilko,  A. White,  M. Wormit,  M. P. Coons,  
 A. L. Dempwolff,  Zhengting Gan,  D. Hait,  P. R. Horn,  L. D. Jacobson,  
 I. Kaliman,  J. Kussmann,  A. W. Lange,  Ka Un Lao,  D. S. Levine,  Jie Liu,  
 S. C. McKenzie,  A. F. Morrison,  K. Nanda,  F. Plasser,  D. R. Rehn,  
 M. L. Vidal,  Zhi-Qiang You,  Ying Zhu,  B. Alam,  B. Albrecht,  
 A. Aldossary,  E. Alguire,  J. H. Andersen,  D. Barton,  K. Begam,  A. Behn,  
 Y. A. Bernard,  E. J. Berquist,  H. Burton,  A. Carreras,  K. Carter-Fenk,  
 R. Chakraborty,  A. D. Chien,  K. D. Closser,  V. Cofer-Shabica,  
 S. Dasgupta,  Jia Deng,  M. de Wergifosse,  M. Diedenhofen,  Hainam Do,  
 S. Ehlert,  Po-Tung Fang,  S. Fatehi,  Qingguo Feng,  T. Friedhoff,  
 J. Gayvert,  Qinghui Ge,  G. Gidofalvi,  M. Goldey,  J. Gomes,  
 C. Gonzalez-Espinoza,  S. Gulania,  A. Gunina,  M. W. D. Hanson-Heine,  
 P. H. P. Harbach,  A. W. Hauser,  M. F. Herbst,  M. Hernandez Vera,  
 M. Hodecker,  Z. C. Holden,  S. Houck,  Xunkun Huang,  Kerwin Hui,  
 B. C. Huynh,  M. Ivanov,  Hyunjun Ji,  Hanjie Jiang,  B. Kaduk,  S. Kaehler,  
 K. Khistyaev,  Jaehoon Kim,  P. Klunzinger,  Z. Koczor-Benda,  
 Joong Hoon Koh,  D. Kosenkov,  L. Koulias,  T. Kowalczyk,  C. M. Krauter,  
 K. Kue,  A. Kunitsa,  T. Kus,  A. Landau,  K. V. Lawler,  D. Lefrancois,  
 S. Lehtola,  Rain Li,  Yi-Pei Li,  Jiashu Liang,  M. Liebenthal,  
 Hung-Hsuan Lin,  You-Sheng Lin,  Fenglai Liu,  Kuan-Yu Liu,  
 M. Loipersberger,  A. Luenser,  A. Manjanath,  P. Manohar,  E. Mansoor,  
 S. F. Manzer,  Shan-Ping Mao,  A. V. Marenich,  T. Markovich,  S. Mason,  
 S. A. Maurer,  P. F. McLaughlin,  M. F. S. J. Menger,  J.-M. Mewes,  
 S. A. Mewes,  P. Morgante,  J. W. Mullinax,  K. J. Oosterbaan,  G. Paran,  
 Alexander C. Paul,  Suranjan K. Paul,  F. Pavosevic,  Zheng Pei,  S. Prager,  
 E. I. Proynov,  E. Ramos,  B. Rana,  A. E. Rask,  A. Rettig,  R. M. Richard,  
 F. Rob,  E. Rossomme,  T. Scheele,  M. Scheurer,  M. Schneider,  
 N. Sergueev,  S. M. Sharada,  W. Skomorowski,  D. W. Small,  C. J. Stein,  
 Yu-Chuan Su,  E. J. Sundstrom,  Zhen Tao,  J. Thirman,  T. Tsuchimochi,  
 N. M. Tubman,  S. P. Veccham,  O. Vydrov,  J. Wenzel,  J. Witte,  A. Yamada,  
 Kun Yao,  S. Yeganeh,  S. R. Yost,  A. Zech,  Igor Ying Zhang,  Xing Zhang,  
 Yu Zhang,  D. Zuev,  A. Aspuru-Guzik,  A. T. Bell,  N. A. Besley,  
 K. B. Bravaya,  B. R. Brooks,  D. Casanova,  Jeng-Da Chai,  S. Coriani,  
 C. J. Cramer,  A. E. DePrince, III,  R. A. DiStasio Jr.,  A. Dreuw,  
 B. D. Dunietz,  T. R. Furlani,  W. A. Goddard III,  S. Grimme,  
 S. Hammes-Schiffer,  T. Head-Gordon,  W. J. Hehre,  Chao-Ping Hsu,  
 T.-C. Jagau,  Yousung Jung,  A. Klamt,  Jing Kong,  D. S. Lambrecht,  
 WanZhen Liang,  N. J. Mayhall,  C. W. McCurdy,  J. B. Neaton,  
 C. Ochsenfeld,  J. A. Parkhill,  R. Peverati,  V. A. Rassolov,  Yihan Shao,  
 L. V. Slipchenko,  T. Stauch,  R. P. Steele,  J. E. Subotnik,  
 A. J. W. Thom,  A. Tkatchenko,  D. G. Truhlar,  T. Van Voorhis,  
 T. A. Wesolowski,  K. B. Whaley,  H. L. Woodcock III,  P. M. Zimmerman,  
 S. Faraji,  P. M. W. Gill,  M. Head-Gordon,  J. M. Herbert,  A. I. Krylov

 Additional authors for Version 5.4.1: 
 S. Kotaru,  Shaozhi Li,  Xiangyuan Li,  F. Matz,  A. Molle,  Haisheng Ren,  
 Yingli Su,  Hung-Yi Tsai,  C. Utku,  Fang Wang

 Contributors to earlier versions of Q-Chem not listed above: 
 R. D. Adamson,  B. Austin,  R. Baer,  J. Baker,  G. J. O. Beran,  
 K. Brandhorst,  S. T. Brown,  E. F. C. Byrd,  A. K. Chakraborty,  
 G. K. L. Chan,  Chun-Min Chang,  Yunqing Chen,  C.-L. Cheng,  
 Siu Hung Chien,  D. M. Chipman,  D. L. Crittenden,  H. Dachsel,  
 R. J. Doerksen,  A. D. Dutoi,  R. G. Edgar,  J. Fosso-Tande,  
 L. Fusti-Molnar,  D. Ghosh,  A. Ghysels,  A. Golubeva-Zadorozhnaya,  
 J. Gonthier,  M. S. Gordon,  S. R. Gwaltney,  G. Hawkins,  J. E. Herr,  
 A. Heyden,  S. Hirata,  E. G. Hohenstein,  G. Kedziora,  F. J. Keil,  
 C. Kelley,  Jihan Kim,  R. A. King,  R. Z. Khaliullin,  P. P. Korambath,  
 W. Kurlancheek,  A. Laurent,  A. M. Lee,  M. S. Lee,  S. V. Levchenko,  
 Ching Yeh Lin,  D. Liotard,  E. Livshits,  R. C. Lochan,  I. Lotan,  
 L. A. Martinez-Martinez,  P. E. Maslen,  N. Nair,  D. P. O'Neill,  
 D. Neuhauser,  E. Neuscamman,  C. M. Oana,  R. Olivares-Amaya,  R. Olson,  
 T. M. Perrine,  B. Peters,  P. A. Pieniazek,  A. Prociuk,  Y. M. Rhee,  
 J. Ritchie,  M. A. Rohrdanz,  E. Rosta,  N. J. Russ,  H. F. Schaefer III,  
 M. W. Schmidt,  N. E. Schultz,  S. Sharma,  N. Shenvi,  C. D. Sherrill,  
 A. C. Simmonett,  A. Sodt,  T. Stein,  D. Stuck,  K. S. Thanthiriwatte,  
 V. Vanovschi,  L. Vogt,  Tao Wang,  A. Warshel,  M. A. Watson,  
 C. F. Williams,  Q. Wu,  X. Xu,  Jun Yang,  W. Zhang,  Yan Zhao

 Please cite Q-Chem as follows:
 Y. Shao et al., Mol. Phys. 113, 184-215 (2015)
 DOI: 10.1080/00268976.2014.952696

 Q-Chem 5.4.1 for Intel X86 EM64T Linux

 Parts of Q-Chem use Armadillo 9.900.5 (Nocturnal Misbehaviour).
 http://arma.sourceforge.net/

 Q-Chem begins on Fri Mar 25 19:47:40 2022  

 Host: node01
0

     Scratch files written to /src/jdavis/qchem.scratch/qchem7880//
 Processing $rem in /src/tsommerfeld/qchem/config/preferences:
 Processing $rem in /home/jdavis/.qchemrc:

 Checking the input file for inconsistencies... 	...done.

--------------------------------------------------------------
User input:
--------------------------------------------------------------
$molecule
-1 1
C         0.0000000000    0.0000000000    0.8417902907
C         0.0000000000    0.0000000000   -0.4872097093
H         0.9623488518    0.0000000000    1.3363703127
H         0.9623489048    0.0000000000   -0.9817896873
H        -0.9623488518    0.0000000000    1.3363703127
H        -0.9623489048    0.0000000000   -0.9817896873
H         0.0000000000    0.0000000000   -10.4872097093
$end

$rem
   METHOD adc(2)
   BASIS gen
   PURECART 11
   EE_STATES [0,0,0,10]
   scf_convergence 8
   ADC_DAVIDSON_MAXITER 120
   ADC_DAVIDSON_MAXSUBSPACE 200
   adc_nguess_singles 100
   THRESH 14
   S2THRESH 14
   adc_davidson_conv 5
   adc_davidson_thresh 14
   THREADS 10
   MEM_TOTAL 95000
   STATE_ANALYSIS TRUE
$end
$basis
C 1
S   9   1.00
      6.665000D+03           6.920000D-04
      1.000000D+03           5.329000D-03
      2.280000D+02           2.707700D-02
      6.471000D+01           1.017180D-01
      2.106000D+01           2.747400D-01
      7.495000D+00           4.485640D-01
      2.797000D+00           2.850740D-01
      5.215000D-01           1.520400D-02
      1.596000D-01          -3.191000D-03
S   9   1.00
      6.665000D+03          -1.460000D-04
      1.000000D+03          -1.154000D-03
      2.280000D+02          -5.725000D-03
      6.471000D+01          -2.331200D-02
      2.106000D+01          -6.395500D-02
      7.495000D+00          -1.499810D-01
      2.797000D+00          -1.272620D-01
      5.215000D-01           5.445290D-01
      1.596000D-01           5.804960D-01
S   1   1.00
      1.596000D-01           1.000000D+00
S   1   1.00
      0.0469000              1.0000000
P   4   1.00
      9.439000D+00           3.810900D-02
      2.002000D+00           2.094800D-01
      5.456000D-01           5.085570D-01
      1.517000D-01           4.688420D-01
P   1   1.00
      1.517000D-01           1.000000D+00
P   1   1.00
      0.0994478      1.0000000
P   1   1.00
      0.0497239      1.0000000
D   1   1.00
      5.500000D-01           1.0000000
****
C 2
S   9   1.00
      6.665000D+03           6.920000D-04
      1.000000D+03           5.329000D-03
      2.280000D+02           2.707700D-02
      6.471000D+01           1.017180D-01
      2.106000D+01           2.747400D-01
      7.495000D+00           4.485640D-01
      2.797000D+00           2.850740D-01
      5.215000D-01           1.520400D-02
      1.596000D-01          -3.191000D-03
S   9   1.00
      6.665000D+03          -1.460000D-04
      1.000000D+03          -1.154000D-03
      2.280000D+02          -5.725000D-03
      6.471000D+01          -2.331200D-02
      2.106000D+01          -6.395500D-02
      7.495000D+00          -1.499810D-01
      2.797000D+00          -1.272620D-01
      5.215000D-01           5.445290D-01
      1.596000D-01           5.804960D-01
S   1   1.00
      1.596000D-01           1.000000D+00
S   1   1.00
      0.0469000              1.0000000
P   4   1.00
      9.439000D+00           3.810900D-02
      2.002000D+00           2.094800D-01
      5.456000D-01           5.085570D-01
      1.517000D-01           4.688420D-01
P   1   1.00
      1.517000D-01           1.000000D+00
P   1   1.00
      0.0994478      1.0000000
P   1   1.00
      0.0497239      1.0000000
D   1   1.00
      5.500000D-01           1.0000000
****
H 3
cc-pVDZ
****
H 4
cc-pVDZ
****
H 5
cc-pVDZ
****
H 6
cc-pVDZ
****
H 7
aug-cc-pVDZ
****
$end
--------------------------------------------------------------
 ----------------------------------------------------------------
             Standard Nuclear Orientation (Angstroms)
    I     Atom           X                Y                Z
 ----------------------------------------------------------------
    1      C       0.0000000000     0.0000000000     1.2918235242
    2      C       0.0000000000     0.0000000000    -0.0371764758
    3      H       0.9623488518     0.0000000000     1.7864035462
    4      H       0.9623489048     0.0000000000    -0.5317564538
    5      H      -0.9623488518     0.0000000000     1.7864035462
    6      H      -0.9623489048     0.0000000000    -0.5317564538
    7      H       0.0000000000     0.0000000000   -10.0371764758
 ----------------------------------------------------------------
 Molecular Point Group                 C2v   NOp =  4
 Largest Abelian Subgroup              C2v   NOp =  4
 Nuclear Repulsion Energy =          34.38697142 hartrees
 There are        9 alpha and        9 beta electrons
 Requested basis set is non-standard
 There are 33 shells and 67 basis functions
 Total memory of 95000 MB is distributed as follows: 
   MEM_STATIC is set to 192 MB
   QALLOC/CCMAN JOB total memory use is  94808 MB
 Warning: actual memory use might exceed 95000 MB

 Total QAlloc Memory Limit  95000 MB
 Mega-Array Size       188 MB
 MEM_STATIC part       192 MB

                       Distance Matrix (Angstroms)
             C (  1)   C (  2)   H (  3)   H (  4)   H (  5)   H (  6)
   C (  2)  1.329000
   H (  3)  1.082000  2.061931
   H (  4)  2.061931  1.082000  2.318160
   H (  5)  1.082000  2.061931  1.924698  3.013026
   H (  6)  2.061931  1.082000  3.013026  1.924698  2.318160
   H (  7) 11.329000 10.000000 11.862679  9.554011 11.862679  9.554011

 
 A cutoff of  1.0D-14 yielded    491 shell pairs
 There are      2083 function pairs (      2220 Cartesian)
 Smallest overlap matrix eigenvalue = 1.70E-04

 Scale SEOQF with 1.000000e-01/1.000000e-01/1.000000e-02

 Standard Electronic Orientation quadrupole field applied
 Nucleus-field energy     =    -0.0000000011 hartrees
 ================ Generating on-the-fly SAD Guess ================
Attempting to make child job directory: /src/jdavis/qchem.scratch/qchem7880//Frg1/
Attempting to make child job directory: /src/jdavis/qchem.scratch/qchem7880//Frg2/
Creating input file /src/jdavis/qchem.scratch/qchem7880/Frg1.input
using default PutDataFrgm: nothing
calling putenv with: QCSCRATCH=/src/jdavis/qchem.scratch/qchem7880/ 
Spawning Job For Fragment 0
Done Job For Fragment 0
calling putenv with: QCSCRATCH=/src/jdavis/qchem.scratch 
calling putenv with: QCTHREADS=1 
Creating input file /src/jdavis/qchem.scratch/qchem7880/Frg2.input
using default PutDataFrgm: nothing
calling putenv with: QCSCRATCH=/src/jdavis/qchem.scratch/qchem7880/ 
Spawning Job For Fragment 1
Done Job For Fragment 1
calling putenv with: QCSCRATCH=/src/jdavis/qchem.scratch 
calling putenv with: QCTHREADS=1 
 Time for running child jobs:  CPU 1.80 s  wall 54.30 s
 ============= Method Specific SAD Guess Constructed =============
 Guess from on-the-fly superposition of atomic densities
 Warning: Energy on first SCF cycle will be non-variational
 A restricted Hartree-Fock SCF calculation will be
 performed using Pulay DIIS extrapolation
 SCF converges when DIIS error is below 1.0E-08
 using 10 threads for integral computing
 -------------------------------------------------------
 OpenMP Integral computing Module                
 Release: version 1.0, May 2013, Q-Chem Inc. Pittsburgh 
 -------------------------------------------------------
 ---------------------------------------
  Cycle       Energy         DIIS Error
 ---------------------------------------
    1     -78.8026533721      7.36E-02
    2     -78.4469917717      6.48E-03
    3     -78.4849257087      1.49E-03
    4     -78.4868648025      4.82E-04
    5     -78.4870417266      7.69E-05
    6     -78.4870499968      1.81E-05
    7     -78.4870504615      8.83E-06
    8     -78.4870505565      1.72E-06
    9     -78.4870505630      5.59E-07
   10     -78.4870505636      1.16E-07
   11     -78.4870505636      1.20E-08
   12     -78.4870505636      1.51E-09 Convergence criterion met
 ---------------------------------------
 SCF time:  CPU 10.94 s  wall 1.10 s
 SCF   energy in the final basis set = -78.48705056
 Total energy in the final basis set = -78.48705056
================================================================================
|                                                                              |
|                                 A D C  M A N                                 |
|                                                                              |
 ------------------------------------------------------------------------------ 
|                                                                              |
| Components:                                                                  |
|                                                                              |
| - libvmm - 1.3-trunk                                                         |
|   Authors:                                                                   |
|   Evgeny Epifanovsky, Ilya Kaliman                                           |
|                                                                              |
| - libtensor - 2.5-trunk                                                      |
|   Authors:                                                                   |
|   Evgeny Epifanovsky, Michael Wormit, Dmitry Zuev, Sam Manzer,               |
|   Ilya Kaliman                                                               |
|                                                                              |
| - libwfa - 1.1-trunk                                                         |
|   Authors:                                                                   |
|   Felix Plasser, Stefanie Mewes (Baeppler), Benjamin Thomitzni,              |
|   Michael Wormit, Feng Chen, Anna I. Krylov, Pavel Pokhilko                  |
|                                                                              |
| - libadc - 1.1-trunk                                                         |
|   Authors:                                                                   |
|   Michael Wormit, Adrian L. Dempwolff, Philipp H. P. Harbach,                |
|   Caroline Krauter, Dirk Rehn, Matthias Schneider, Jan Wenzel                |
|                                                                              |
| - adcman - 2.6-trunk                                                         |
|   Authors:                                                                   |
|   Michael Wormit, Adrian L. Dempwolff, Philipp H. P. Harbach,                |
|   Caroline Krauter, Daniel Lefrancois, Jan-Michael Mewes, Dirk Rehn,         |
|   Matthias Schneider, Jan Wenzel, Andreas Dreuw                              |
|                                                                              |
| Authors of earlier versions of ADCMAN:                                       |
| Andreas Dreuw, Jan Hendrik Starcke, Dirk Rehn, Michael Wormit                |
|                                                                              |
================================================================================

 
 Alpha MOs, Restricted
 -- Occupied --                  
-11.187 -11.185  -0.992  -0.732  -0.610  -0.517  -0.465  -0.327
  1 A1    2 A1    3 A1    4 A1    1 B1    5 A1    2 B1    1 B2                 
  0.022
  6 A1                                                                         
 -- Virtual --                   
  0.137   0.150   0.156   0.158   0.167   0.192   0.206   0.259
  7 A1    3 B1    2 B2    8 A1    3 B2    4 B1    9 A1    4 B2                 
  0.262   0.311   0.377   0.388   0.430   0.454   0.460   0.475
 10 A1   11 A1    5 B1   12 A1   13 A1    6 B1   14 A1    5 B2                 
  0.493   0.564   0.603   0.669   0.890   0.898   0.969   1.051
  7 B1    6 B2    8 B1   15 A1   16 A1    9 B1   17 A1   18 A1                 
  1.058   1.096   1.164   1.180   1.202   1.211   1.268   1.330
 19 A1   10 B1    1 A2   20 A1   21 A1   11 B1    7 B2    8 B2                 
  1.335   1.359   1.437   1.547   1.678   1.794   1.845   1.933
  2 A2    9 B2   22 A1   12 B1   23 A1   13 B1   14 B1   10 B2                 
  1.967   1.967   1.967   1.996   2.028   2.067   2.148   2.157
 24 A1   15 B1   11 B2   12 B2   25 A1    3 A2   26 A1   16 B1                 
  2.236   2.379   2.462   2.533   2.603   2.634   2.931   2.936
 13 B2   27 A1    4 A2   28 A1   17 B1   29 A1   30 A1   18 B1                 
  3.358   3.408
 31 A1   19 B1                                                                 
 
 Beta MOs, Restricted
 -- Occupied --                  
-11.187 -11.185  -0.992  -0.732  -0.610  -0.517  -0.465  -0.327
  1 A1    2 A1    3 A1    4 A1    1 B1    5 A1    2 B1    1 B2                 
  0.022
  6 A1                                                                         
 -- Virtual --                   
  0.137   0.150   0.156   0.158   0.167   0.192   0.206   0.259
  7 A1    3 B1    2 B2    8 A1    3 B2    4 B1    9 A1    4 B2                 
  0.262   0.311   0.377   0.388   0.430   0.454   0.460   0.475
 10 A1   11 A1    5 B1   12 A1   13 A1    6 B1   14 A1    5 B2                 
  0.493   0.564   0.603   0.669   0.890   0.898   0.969   1.051
  7 B1    6 B2    8 B1   15 A1   16 A1    9 B1   17 A1   18 A1                 
  1.058   1.096   1.164   1.180   1.202   1.211   1.268   1.330
 19 A1   10 B1    1 A2   20 A1   21 A1   11 B1    7 B2    8 B2                 
  1.335   1.359   1.437   1.547   1.678   1.794   1.845   1.933
  2 A2    9 B2   22 A1   12 B1   23 A1   13 B1   14 B1   10 B2                 
  1.967   1.967   1.967   1.996   2.028   2.067   2.148   2.157
 24 A1   15 B1   11 B2   12 B2   25 A1    3 A2   26 A1   16 B1                 
  2.236   2.379   2.462   2.533   2.603   2.634   2.931   2.936
 13 B2   27 A1    4 A2   28 A1   17 B1   29 A1   30 A1   18 B1                 
  3.358   3.408
 31 A1   19 B1                                                                 

--------------------------------------------------------------------------------
                                   HF Summary                                   
--------------------------------------------------------------------------------
  Energy:                                                  -78.4870505636 a.u.
  Dip. moment [a.u.]:                  [  -0.000000,   -0.000000,   18.881323]
  Total dipole [Debye]:                                              47.991546
  <r^2> [a.u.]:                        [  25.057339,   14.959324,  792.843204]
  Total <r^2> [a.u.]:                                               832.859868
--------------------------------------------------------------------------------

--------------------------------------------------------------------------------
                                 MP(2) Summary                                  
--------------------------------------------------------------------------------
  MP energy contribution:                                   -0.3001511382 a.u.
  Total energy:                                            -78.7872017018 a.u.
  Dip. moment [a.u.]:                  [  -0.000000,   -0.000000,   18.887107]
  Total dipole [Debye]:                                              48.006246
  <r^2> [a.u.]:                        [  25.041957,   14.766151,  792.889451]
  Total <r^2> [a.u.]:                                               832.697559

  Density matrix analysis:
  ------------------------
  NOs
    Occupation of frontier NOs:
       0.0447   1.9370
    Number of electrons: 18.000000
    Number of unpaired electrons: n_u =  0.43272, n_u,nl =  0.04684
    NO participation ratio (PR_NO): 15.342724
  
  
  Mulliken Population Analysis
  Atom      Charge (e)              h+              e-           Del q
  --------------------------------------------------------------------
   1 C       -0.248227        0.089516       -0.101693       -0.012177
   2 C       -0.250536        0.083760       -0.104178       -0.020418
   3 H        0.118132        0.018672       -0.010488        0.008184
   4 H        0.131249        0.018432       -0.010318        0.008114
   5 H        0.118132        0.018672       -0.010488        0.008184
   6 H        0.131249        0.018432       -0.010318        0.008114
   7 H       -1.000000        0.021953       -0.021953        0.000000
  --------------------------------------------------------------------
  Sum:       -1.000000        0.269436       -0.269436        0.000000
  
  Multipole moment analysis of the density matrix
    Molecular charge:                      -1.000000
    Number of electrons:                   18.000000
      Center of electronic charge [Ang]: [  0.000000,   0.000000,  -0.555257]
    Total nuclear charge:                  17.000000
      Center of nuclear charge [Ang]:    [ -0.000000,   0.000000,  -0.000000]
    Dipole moment [D]:                     48.006231
      Cartesian components [D]:          [ -0.000000,  -0.000000,  48.006231]
    RMS size of the density [Ang]:         3.556133
      Cartesian components [Ang]:        [  0.624164,   0.479290,   3.467965]
  
  Exciton analysis of the difference density matrix
    <r_h> [Ang]:                  [  0.000000,  -0.000000,  -0.229392]
    <r_e> [Ang]:                  [  0.000000,  -0.000000,  -0.240751]
    |<r_e - r_h>| [Ang]:            0.011359
    Hole size [Ang]:                3.245980
      Cartesian components [Ang]: [  0.731021,   0.753691,   3.071473]
    Electron size [Ang]:            3.219061
      Cartesian components [Ang]: [  0.720004,   0.606038,   3.078420]
--------------------------------------------------------------------------------
  Starting Davidson for singlet states of irrep B2 ... 
--------------------------------------------------------------------------------
   It NVec Conv  Avg. Norm  Max. Norm  Conv. states           Remark
--------------------------------------------------------------------------------
       100    0  1.047e-01  4.637e-01  0.1104 n n n n n n n n Guess.
    1  110    0  5.986e-03  3.451e-02  0.0614 n n n n n n n n 
    2  120    0  7.559e-04  6.291e-03  0.0609 n n n n n n n n 
    3  130    4  6.187e-05  5.020e-04  0.0609 y y y n n n n y 
    4  140    7  8.276e-06  7.762e-05  0.0609 y y y y y y n y 
    5  150    9  1.826e-02  1.826e-01  0.0609 y y y y y y y y 
    6  160    9  1.565e-02  1.565e-01  0.0609 y y y y y y y y 
    7  170    9  1.497e-02  1.497e-01  0.0609 y y y y y y y y 
    8  171    9  1.492e-02  1.492e-01  0.0609 y y y y y y y y 
    9  171    9  1.492e-02  1.492e-01  0.0609 y y y y y y y y 
   10  171    9  1.492e-02  1.492e-01  0.0609 y y y y y y y y 
   11  181    9  1.489e-02  1.489e-01  0.0609 y y y y y y y y 
   12  182    9  1.491e-02  1.491e-01  0.0609 y y y y y y y y 
   13  192    9  1.532e-02  1.532e-01  0.0609 y y y y y y y y 
   14  200    7  2.558e-02  2.019e-01  0.0609 y y n y n y y y 
   15   20    8  2.999e-02  2.467e-01  0.0609 y y y y n y n y Subspace collapsed.
   16   30    8  2.587e-02  2.149e-01  0.0609 y y y y n y n y 
   17   40    7  4.311e-02  3.023e-01  0.0609 y y y y n y n y 
   18   50    7  3.739e-02  3.195e-01  0.0609 y y y n y y n y 
   19   60    7  3.596e-02  3.163e-01  0.0609 y y y n y y n y 
   20   70    7  3.477e-02  3.124e-01  0.0609 y y y n y y n y 
   21   80    7  3.376e-02  3.089e-01  0.0609 y y y n y y n y 
   22   90    7  3.313e-02  3.087e-01  0.0609 y y y n y y n y 
   23  100    6  3.210e-02  3.004e-01  0.0609 y y y n y n n n 
   24  110    1  3.187e-02  2.956e-01  0.0609 n y n n n n n n 
   25  120    0  5.984e-02  4.069e-01  0.0609 n n n n n n n n 
   26  130    0  5.870e-02  4.191e-01  0.0609 n n n n n n n n 
   27  140    0  5.587e-02  4.202e-01  0.0609 n n n n n n n n 
   28  150    0  6.820e-02  5.917e-01  0.0609 n n n n n n n n 
   29  160    0  7.991e-02  7.467e-01  0.0609 n n n n n n n n 
   30  170    0  7.925e-02  7.473e-01  0.0609 n n n n n n n n 
   31  180    0  7.880e-02  7.469e-01  0.0609 n n n n n n n n 
   32  190    0  1.066e-01  7.456e-01  0.0609 n n n n n n n n 
   33  200    0  1.230e-01  7.430e-01  0.0138 n n n n n n n n 
   34   20    0  4.883e-02  3.968e-01  0.0609 n n n n n n n n Subspace collapsed.
   35   30    0  4.754e-02  3.854e-01  0.0609 n n n n n n n n 
   36   40    0  2.848e-02  1.892e-01  0.0609 n n n n n n n n 
   37   50    0  2.615e-02  1.850e-01  0.0609 n n n n n n n n 
   38   60    0  2.406e-02  1.745e-01  0.0609 n n n n n n n n 
   39   70    0  2.215e-02  1.649e-01  0.0609 n n n n n n n n 
   40   80    0  2.077e-02  1.552e-01  0.0609 n n n n n n n n 
   41   90    1  1.993e-02  1.484e-01  0.0609 n y n n n n n n 
   42  100    5  1.938e-02  1.440e-01  0.0609 y y y n n y y n 
   43  110    5  1.891e-02  1.397e-01  0.0609 y y y n n y y n 
   44  120    6  1.895e-02  1.395e-01  0.0609 y y y n n y y n 
   45  130    6  1.904e-02  1.354e-01  0.0609 y y y n n y y n 
   46  140    6  1.946e-02  1.348e-01  0.0609 y y y n n y y n 
   47  150    6  1.982e-02  1.334e-01  0.0609 y y y n n y y n 
   48  160    4  2.075e-02  1.395e-01  0.0609 y y y n n n n n 
   49  170    4  2.216e-02  1.646e-01  0.0609 y y y n n n n n 
   50  180    3  2.264e-02  1.729e-01  0.0609 y y y n n n n n 
   51  190    3  2.443e-02  1.972e-01  0.0609 y y y n n n n n 
   52  200    0  2.564e-02  2.107e-01  0.0609 n n n n n n n n 
   53   20    3  2.553e-02  2.109e-01  0.0609 y y y n n n n n Subspace collapsed.
   54   30    3  2.553e-02  2.119e-01  0.0609 y y y n n n n n 
   55   40    3  2.581e-02  2.164e-01  0.0609 y y y n n n n n 
   56   50    3  2.585e-02  2.179e-01  0.0609 y y y n n n n n 
   57   60    3  2.596e-02  2.200e-01  0.0609 y y y n n n n n 
   58   70    3  2.587e-02  2.193e-01  0.0609 y y y n n n n n 
   59   80    3  2.585e-02  2.199e-01  0.0609 y y y n n n n n 
   60   90    3  2.588e-02  2.204e-01  0.0609 y y y n n n n n 
   61  100    5  2.612e-02  2.236e-01  0.0609 y y y n n y n n 
   62  110    6  2.656e-02  2.302e-01  0.0609 y y y n n y y n 
   63  120    5  2.819e-02  2.356e-01  0.0609 y y y n n y y n 
   64  130    5  2.807e-02  2.417e-01  0.0609 y y y n n y y n 
   65  140    5  2.788e-02  2.440e-01  0.0609 y y y n n y y n 
   66  150    5  2.770e-02  2.438e-01  0.0609 y y y n n y y n 
   67  160    5  2.745e-02  2.432e-01  0.0609 y y y n n y y n 
   68  170    5  2.704e-02  2.399e-01  0.0609 y y y n n y y n 
   69  180    5  2.686e-02  2.390e-01  0.0609 y y y n n y y n 
   70  190    5  2.656e-02  2.365e-01  0.0609 y y y n n y y n 
   71  200    0  4.037e-02  2.744e-01  0.0609 n n n n n n n n 
   72   20    5  2.647e-02  2.365e-01  0.0609 y y y n n y y n Subspace collapsed.
   73   30    5  2.597e-02  2.316e-01  0.0609 y y y n n y y n 
   74   40    5  2.531e-02  2.248e-01  0.0609 y y y n n y y n 
   75   50    5  2.476e-02  2.194e-01  0.0609 y y y n n y y n 
   76   60    5  2.409e-02  2.125e-01  0.0609 y y y n n y y n 
   77   70    5  2.391e-02  2.106e-01  0.0609 y y y n n y y n 
   78   80    5  2.377e-02  2.094e-01  0.0609 y y y n n y y n 
   79   90    5  2.353e-02  2.070e-01  0.0609 y y y n n y y n 
   80  100    5  2.330e-02  2.046e-01  0.0609 y y y n n y y n 
   81  110    5  2.302e-02  2.022e-01  0.0609 y y y n n y y n 
   82  120    5  2.255e-02  1.974e-01  0.0609 y y y n n y y n 
   83  130    5  2.242e-02  1.965e-01  0.0609 y y y n n y y n 
   84  140    5  2.202e-02  1.931e-01  0.0609 y y y n n y y n 
   85  150    5  2.161e-02  1.887e-01  0.0609 y y y n n y y n 
   86  160    5  2.141e-02  1.874e-01  0.0609 y y y n n y y n 
   87  170    5  2.134e-02  1.873e-01  0.0609 y y y n n y y n 
   88  180    5  2.120e-02  1.863e-01  0.0609 y y y n n y y n 
   89  190    4  2.184e-02  1.848e-01  0.0609 y y y n n y n n 
   90  200    1  5.530e-02  5.129e-01  0.0519 n n y n n n n n 
   91   20    5  2.084e-02  1.835e-01  0.0609 y y y n n y y n Subspace collapsed.
   92   30    5  2.071e-02  1.824e-01  0.0609 y y y n n y y n 
   93   40    5  2.070e-02  1.828e-01  0.0609 y y y n n y y n 
   94   50    6  2.065e-02  1.824e-01  0.0609 y y y n n y y n 
   95   60    6  2.062e-02  1.822e-01  0.0609 y y y n n y y n 
   96   70    6  2.057e-02  1.819e-01  0.0609 y y y n n y y n 
   97   80    7  2.055e-02  1.820e-01  0.0609 y y y n n y y y 
   98   90    7  2.042e-02  1.807e-01  0.0609 y y y n n y y y 
   99  100    7  2.032e-02  1.801e-01  0.0609 y y y n n y y y 
  100  110    7  2.025e-02  1.792e-01  0.0609 y y y n n y y y 
  101  120    7  2.003e-02  1.772e-01  0.0609 y y y n n y y y 
  102  130    7  2.000e-02  1.770e-01  0.0609 y y y n n y y y 
  103  140    6  1.979e-02  1.750e-01  0.0609 y y y n n y y n 
  104  150    6  1.974e-02  1.746e-01  0.0609 y y y n n y y n 
  105  160    6  1.961e-02  1.735e-01  0.0609 y y y n n y y n 
  106  170    5  1.950e-02  1.723e-01  0.0609 y y y n n y y n 
  107  180    5  1.942e-02  1.717e-01  0.0609 y y y n n y y n 
  108  190    2  1.923e-02  1.696e-01  0.0609 y y n n n n n n 
  109  200    0  6.733e-02  6.292e-01  0.0609 n n n n n n n n 
  110   20    5  1.921e-02  1.704e-01  0.0609 y y y n n y y n Subspace collapsed.
  111   30    5  1.919e-02  1.703e-01  0.0609 y y y n n y y n 
  112   40    6  1.917e-02  1.701e-01  0.0609 y y y n n y y n 
  113   50    7  1.915e-02  1.701e-01  0.0609 y y y n n y y y 
  114   60    7  1.911e-02  1.698e-01  0.0609 y y y n n y y y 
  115   70    7  1.909e-02  1.697e-01  0.0609 y y y n n y y y 
  116   80    7  1.900e-02  1.691e-01  0.0609 y y y n n y y y 
  117   90    7  1.897e-02  1.689e-01  0.0609 y y y n n y y y 
  118  100    7  1.887e-02  1.680e-01  0.0609 y y y n n y y y 
  119  110    7  1.879e-02  1.674e-01  0.0609 y y y n n y y y 
--------------------------------------------------------------------------------
  Davidson Summary: 
 ------------------------------------------------------------
  State  0: excitation energy =   0.0609 a.u.   (converged)
  State  1: excitation energy =   0.0856 a.u.   (converged)
  State  2: excitation energy =   0.1521 a.u.   (converged)
  State  3: excitation energy =   0.2717 a.u.   (not converged)
  State  4: excitation energy =   0.2820 a.u.   (not converged)
  State  5: excitation energy =   0.2854 a.u.   (converged)
  State  6: excitation energy =   0.3091 a.u.   (converged)
  State  7: excitation energy =   0.3178 a.u.   (converged)
  State  8: excitation energy =   0.3398 a.u.   (not converged)
  State  9: excitation energy =   0.3522 a.u.   (converged)
 ------------------------------------------------------------


--------------------------------------------------------------------------------
                   State-averaged natural transition orbitals
--------------------------------------------------------------------------------
--------------------------------------------------------------------------------

--------------------------------------------------------------------------------
                             Excited State Summary
--------------------------------------------------------------------------------
--------------------------------------------------------------------------------

  Excited state 1 (singlet, B2)                                    [converged]
  ----------------------------------------------------------------------------
  Term symbol:  1 (1) B2                                    R^2 =  2.57434e-07

  Total energy:                                            -78.7263070654 a.u.
  Excitation energy:                                               1.657027 eV

  Osc. strength:                                                      0.000000
  Trans. dip. moment [a.u.]:           [   0.000000,    0.000334,    0.000000]
  <i|r^2|0> [a.u.]:                    [   0.000000,   -0.000000,    0.000000]

  Dip. moment [a.u.]:                  [  -0.000000,    0.000000,   -1.217438]
  Total dipole [Debye]:                                               3.094418
  <r^2> [a.u.]:                        [  27.446835,   22.696356,  443.849509]
  Total <r^2> [a.u.]:                                               493.992700

  V1^2 = 0.9532, V2^2 = 0.0468

  Important amplitudes:
      occ i      occ j       vir a       vir b          v   
    ---------------------------------------------------------
     6 (A1) A               2 (B2) A                  0.5896
     6 (A1) A               3 (B2) A                 -0.3158
    ---------------------------------------------------------

  Density matrix analysis:
  ------------------------
  NOs
    Occupation of frontier NOs:
       0.9908   1.0012
    Number of electrons: 18.000000
    Number of unpaired electrons: n_u =  2.41218, n_u,nl =  2.04329
    NO participation ratio (PR_NO):  2.923178
  
  
  Mulliken Population Analysis
  Atom      Charge (e)              h+              e-           Del q
  --------------------------------------------------------------------
   1 C       -0.656708        0.138005       -0.546487       -0.408482
   2 C       -0.667068        0.138318       -0.554851       -0.416533
   3 H        0.077786        0.005339       -0.045685       -0.040346
   4 H        0.084102        0.005213       -0.052360       -0.047147
   5 H        0.077786        0.005339       -0.045685       -0.040346
   6 H        0.084102        0.005213       -0.052360       -0.047147
   7 H        0.000000        1.018697       -0.018697        1.000000
  --------------------------------------------------------------------
  Sum:       -1.000000        1.316124       -1.316124        0.000000
  
  Multipole moment analysis of the density matrix
    Molecular charge:                      -1.000000
    Number of electrons:                   18.000000
      Center of electronic charge [Ang]: [  0.000000,  -0.000000,   0.035791]
    Total nuclear charge:                  17.000000
      Center of nuclear charge [Ang]:    [ -0.000000,   0.000000,  -0.000000]
    Dipole moment [D]:                     3.094417
      Cartesian components [D]:          [ -0.000000,   0.000000,  -3.094417]
    RMS size of the density [Ang]:         2.771973
      Cartesian components [Ang]:        [  0.653448,   0.594214,   2.627498]
  
  Exciton analysis of the difference density matrix
    <r_h> [Ang]:                  [  0.000000,  -0.000000,  -7.629757]
    <r_e> [Ang]:                  [  0.000000,  -0.000000,   0.453726]
    |<r_e - r_h>| [Ang]:            8.083483
    Hole size [Ang]:                4.632048
      Cartesian components [Ang]: [  0.708031,   0.704797,   4.523033]
    Electron size [Ang]:            2.719886
      Cartesian components [Ang]: [  1.006473,   1.477846,   2.049577]

  Transition density matrix analysis:
  -----------------------------------
  
  CT numbers (Mulliken)
    omega =     0.9364
    <Phe> =    -0.0000
  
  Exciton analysis of the transition density matrix
    Trans. dipole moment [D]:             0.000425
      Cartesian components [D]:         [  0.000000,   0.000425,   0.000000]
    <r_h> [Ang]:                        [  0.000000,   0.000000, -10.037152]
    <r_e> [Ang]:                        [  0.000000,  -0.000000,   0.618086]
    |<r_e - r_h>| [Ang]:                 10.655238
    Hole size [Ang]:                      1.109869
      Cartesian components [Ang]:       [  0.640781,   0.640781,   0.640788]
    Electron size [Ang]:                  2.511470
      Cartesian components [Ang]:       [  0.932872,   1.601236,   1.695073]
    RMS electron-hole separation [Ang]:  11.003338
      Cartesian components [Ang]:       [  1.131746,   1.724683,  10.808241]
    Covariance(r_h, r_e) [Ang^2]:        -0.000038
    Correlation coefficient:             -0.000013
    Center-of-mass size [Ang]:            1.372881
      Cartesian components [Ang]:       [  0.565874,   0.862348,   0.906060]

  Decomposition into state-averaged NTOs
    H- 0 -> L+ 4:  0.4992 ( 49.8%)
    H- 0 -> L+ 0:  0.4588 ( 42.1%)
    H- 0 -> L+ 1:  0.0923 (  1.7%)
                   omega =  93.6%
  ----------------------------------------------------------------------------


  Excited state 2 (singlet, B2)                                    [converged]
  ----------------------------------------------------------------------------
  Term symbol:  2 (1) B2                                    R^2 =  6.88173e-08

  Total energy:                                            -78.7015809071 a.u.
  Excitation energy:                                               2.329860 eV

  Osc. strength:                                                      0.000000
  Trans. dip. moment [a.u.]:           [  -0.000000,   -0.000401,    0.000000]
  <i|r^2|0> [a.u.]:                    [  -0.000000,   -0.000000,    0.000000]

  Dip. moment [a.u.]:                  [  -0.000000,    0.000000,   -1.198120]
  Total dipole [Debye]:                                               3.045318
  <r^2> [a.u.]:                        [  31.733134,   37.659966,  441.792276]
  Total <r^2> [a.u.]:                                               511.185376

  V1^2 = 0.9765, V2^2 = 0.0235

  Important amplitudes:
      occ i      occ j       vir a       vir b          v   
    ---------------------------------------------------------
     6 (A1) A               3 (B2) A                  0.6188
     6 (A1) A               2 (B2) A                  0.3221
    ---------------------------------------------------------

  Density matrix analysis:
  ------------------------
  NOs
    Occupation of frontier NOs:
       0.9938   1.0018
    Number of electrons: 18.000000
    Number of unpaired electrons: n_u =  2.41582, n_u,nl =  2.04946
    NO participation ratio (PR_NO):  2.922518
  
  
  Mulliken Population Analysis
  Atom      Charge (e)              h+              e-           Del q
  --------------------------------------------------------------------
   1 C       -0.695032        0.042045       -0.488851       -0.446805
   2 C       -0.707308        0.042086       -0.498859       -0.456773
   3 H        0.097854       -0.001674       -0.018604       -0.020278
   4 H        0.103316       -0.001767       -0.026166       -0.027933
   5 H        0.097854       -0.001674       -0.018604       -0.020278
   6 H        0.103316       -0.001767       -0.026166       -0.027933
   7 H        0.000000        1.020620       -0.020620        1.000000
  --------------------------------------------------------------------
  Sum:       -1.000000        1.097869       -1.097869        0.000000
  
  Multipole moment analysis of the density matrix
    Molecular charge:                      -1.000000
    Number of electrons:                   18.000000
      Center of electronic charge [Ang]: [  0.000000,  -0.000000,   0.035223]
    Total nuclear charge:                  17.000000
      Center of nuclear charge [Ang]:    [ -0.000000,   0.000000,  -0.000000]
    Dipole moment [D]:                     3.045317
      Cartesian components [D]:          [ -0.000000,   0.000000,  -3.045317]
    RMS size of the density [Ang]:         2.819812
      Cartesian components [Ang]:        [  0.702621,   0.765429,   2.621409]
  
  Exciton analysis of the difference density matrix
    <r_h> [Ang]:                  [  0.000000,  -0.000000,  -9.287739]
    <r_e> [Ang]:                  [  0.000000,  -0.000000,   0.393417]
    |<r_e - r_h>| [Ang]:            9.681156
    Hole size [Ang]:                2.988679
      Cartesian components [Ang]: [  0.704692,   0.698535,   2.819160]
    Electron size [Ang]:            3.610107
      Cartesian components [Ang]: [  1.484345,   2.515427,   2.121844]

  Transition density matrix analysis:
  -----------------------------------
  
  CT numbers (Mulliken)
    omega =     0.9696
    <Phe> =     0.0001
  
  Exciton analysis of the transition density matrix
    Trans. dipole moment [D]:             0.000509
      Cartesian components [D]:         [ -0.000000,  -0.000509,   0.000000]
    <r_h> [Ang]:                        [  0.000000,   0.000000, -10.036409]
    <r_e> [Ang]:                        [ -0.000000,  -0.000000,   0.619022]
    |<r_e - r_h>| [Ang]:                 10.655431
    Hole size [Ang]:                      1.113613
      Cartesian components [Ang]:       [  0.640863,   0.640889,   0.647062]
    Electron size [Ang]:                  3.419547
      Cartesian components [Ang]:       [  1.518462,   2.630281,   1.571367]
    RMS electron-hole separation [Ang]:  11.246667
      Cartesian components [Ang]:       [  1.648160,   2.707231,  10.790829]
    Covariance(r_h, r_e) [Ang^2]:        -0.007944
    Correlation coefficient:             -0.002086
    Center-of-mass size [Ang]:            1.797050
      Cartesian components [Ang]:       [  0.824080,   1.353619,   0.847345]

  Decomposition into state-averaged NTOs
    H- 0 -> L+ 1:  0.6825 ( 93.2%)
    H- 0 -> L+ 0: -0.1378 (  3.8%)
                   omega =  97.0%
  ----------------------------------------------------------------------------


  Excited state 3 (singlet, B2)                                    [converged]
  ----------------------------------------------------------------------------
  Term symbol:  3 (1) B2                                    R^2 =  8.33110e-07

  Total energy:                                            -78.6350718269 a.u.
  Excitation energy:                                               4.139664 eV

  Osc. strength:                                                      0.000000
  Trans. dip. moment [a.u.]:           [  -0.000000,   -0.000551,   -0.000000]
  <i|r^2|0> [a.u.]:                    [  -0.000000,    0.000000,   -0.000000]

  Dip. moment [a.u.]:                  [  -0.000000,   -0.000000,   -1.221525]
  Total dipole [Debye]:                                               3.104808
  <r^2> [a.u.]:                        [  29.557011,   29.743893,  450.539625]
  Total <r^2> [a.u.]:                                               509.840528

  V1^2 = 0.9573, V2^2 = 0.0427

  Important amplitudes:
      occ i      occ j       vir a       vir b          v   
    ---------------------------------------------------------
     6 (A1) A               4 (B2) A                  0.6624
     6 (A1) A               2 (B2) A                 -0.1794
    ---------------------------------------------------------

  Density matrix analysis:
  ------------------------
  NOs
    Occupation of frontier NOs:
       0.9852   1.0013
    Number of electrons: 18.000000
    Number of unpaired electrons: n_u =  2.43163, n_u,nl =  2.05085
    NO participation ratio (PR_NO):  2.984113
  
  
  Mulliken Population Analysis
  Atom      Charge (e)              h+              e-           Del q
  --------------------------------------------------------------------
   1 C       -0.665797        0.095558       -0.513127       -0.417570
   2 C       -0.665353        0.101481       -0.516298       -0.414817
   3 H        0.079747        0.001333       -0.039718       -0.038385
   4 H        0.085828        0.001089       -0.046510       -0.045421
   5 H        0.079747        0.001333       -0.039718       -0.038385
   6 H        0.085828        0.001089       -0.046510       -0.045421
   7 H        0.000000        1.018975       -0.018975        1.000000
  --------------------------------------------------------------------
  Sum:       -1.000000        1.220856       -1.220856        0.000000
  
  Multipole moment analysis of the density matrix
    Molecular charge:                      -1.000000
    Number of electrons:                   18.000000
      Center of electronic charge [Ang]: [  0.000000,   0.000000,   0.035911]
    Total nuclear charge:                  17.000000
      Center of nuclear charge [Ang]:    [ -0.000000,   0.000000,  -0.000000]
    Dipole moment [D]:                     3.104807
      Cartesian components [D]:          [ -0.000000,  -0.000000,  -3.104807]
    RMS size of the density [Ang]:         2.816091
      Cartesian components [Ang]:        [  0.678102,   0.680243,   2.647228]
  
  Exciton analysis of the difference density matrix
    <r_h> [Ang]:                  [  0.000000,   0.000000,  -8.279185]
    <r_e> [Ang]:                  [  0.000000,   0.000000,   0.436854]
    |<r_e - r_h>| [Ang]:            8.716038
    Hole size [Ang]:                4.132327
      Cartesian components [Ang]: [  0.691352,   0.672120,   4.018260]
    Electron size [Ang]:            3.372873
      Cartesian components [Ang]: [  1.230280,   1.971598,   2.444480]

  Transition density matrix analysis:
  -----------------------------------
  
  CT numbers (Mulliken)
    omega =     0.9452
    <Phe> =    -0.0000
  
  Exciton analysis of the transition density matrix
    Trans. dipole moment [D]:             0.000700
      Cartesian components [D]:         [ -0.000000,  -0.000700,  -0.000000]
    <r_h> [Ang]:                        [  0.000000,   0.000000, -10.037152]
    <r_e> [Ang]:                        [  0.000000,   0.000000,   0.628890]
    |<r_e - r_h>| [Ang]:                 10.666042
    Hole size [Ang]:                      1.109892
      Cartesian components [Ang]:       [  0.640794,   0.640794,   0.640802]
    Electron size [Ang]:                  3.339260
      Cartesian components [Ang]:       [  1.253081,   2.165127,   2.211938]
    RMS electron-hole separation [Ang]:  11.231518
      Cartesian components [Ang]:       [  1.407419,   2.257957,  10.911819]
    Covariance(r_h, r_e) [Ang^2]:        -0.000013
    Correlation coefficient:             -0.000003
    Center-of-mass size [Ang]:            1.759438
      Cartesian components [Ang]:       [  0.703710,   1.128983,   1.151440]

  Decomposition into state-averaged NTOs
    H- 0 -> L+ 0: -0.5078 ( 51.6%)
    H- 0 -> L+ 4:  0.4521 ( 40.9%)
    H- 0 -> L+ 1: -0.1017 (  2.1%)
                   omega =  94.5%
  ----------------------------------------------------------------------------


  Excited state 4 (singlet, B2)                                [not converged]
  ----------------------------------------------------------------------------
  Term symbol:  4 (1) B2                                    R^2 =  7.73937e-02

  Total energy:                                            -78.5154587638 a.u.
  Excitation energy:                                               7.394501 eV



  V1^2 = 0.0000, V2^2 = 1.0000

  Important amplitudes:
      occ i      occ j       vir a       vir b          v   
    ---------------------------------------------------------
     6 (A1) A   6 (A1) B    8 (A1) A    2 (B2) B     -0.3532
     6 (A1) A   6 (A1) B    9 (A1) A    3 (B2) B     -0.0068
    ---------------------------------------------------------
  ----------------------------------------------------------------------------


  Excited state 5 (singlet, B2)                                [not converged]
  ----------------------------------------------------------------------------
  Term symbol:  5 (1) B2                                    R^2 =  3.63370e-02

  Total energy:                                            -78.5052455926 a.u.
  Excitation energy:                                               7.672416 eV



  V1^2 = 0.0000, V2^2 = 1.0000

  Important amplitudes:
      occ i      occ j       vir a       vir b          v   
    ---------------------------------------------------------
     6 (A1) A   6 (A1) B    8 (A1) A    3 (B2) B      0.3535
     6 (A1) A   6 (A1) B   10 (A1) A    3 (B2) B      0.0040
    ---------------------------------------------------------
  ----------------------------------------------------------------------------


  Excited state 6 (singlet, B2)                                    [converged]
  ----------------------------------------------------------------------------
  Term symbol:  6 (1) B2                                    R^2 =  7.61428e-07

  Total energy:                                            -78.5018189403 a.u.
  Excitation energy:                                               7.765660 eV

  Osc. strength:                                                      0.148691
  Trans. dip. moment [a.u.]:           [  -0.000000,   -0.884046,   -0.000000]
  <i|r^2|0> [a.u.]:                    [  -0.000000,    0.000000,    0.000000]

  Dip. moment [a.u.]:                  [  -0.000000,   -0.000000,   17.084487]
  Total dipole [Debye]:                                              43.424442
  <r^2> [a.u.]:                        [  31.243088,   20.146038,  806.962392]
  Total <r^2> [a.u.]:                                               858.351518

  V1^2 = 0.9522, V2^2 = 0.0478

  Important amplitudes:
      occ i      occ j       vir a       vir b          v   
    ---------------------------------------------------------
     1 (B2) A               7 (A1) A                  0.5553
     1 (B2) A               8 (A1) A                 -0.2876
    ---------------------------------------------------------

  Density matrix analysis:
  ------------------------
  NOs
    Occupation of frontier NOs:
       0.9822   0.9909
    Number of electrons: 18.000000
    Number of unpaired electrons: n_u =  2.31242, n_u,nl =  2.02468
    NO participation ratio (PR_NO):  2.737740
  
  
  Mulliken Population Analysis
  Atom      Charge (e)              h+              e-           Del q
  --------------------------------------------------------------------
   1 C       -0.145045        0.579314       -0.476131        0.103182
   2 C       -0.671353        0.482331       -0.903148       -0.420817
   3 H        0.197773        0.081999       -0.002358        0.079641
   4 H        0.210426        0.068650        0.010527        0.079176
   5 H        0.197773        0.081999       -0.002358        0.079641
   6 H        0.210426        0.068650        0.010527        0.079176
   7 H       -1.000000        0.000219       -0.000219        0.000000
  --------------------------------------------------------------------
  Sum:       -1.000000        1.363161       -1.363161       -0.000000
  
  Multipole moment analysis of the density matrix
    Molecular charge:                      -1.000000
    Number of electrons:                   18.000000
      Center of electronic charge [Ang]: [  0.000000,   0.000000,  -0.502262]
    Total nuclear charge:                  17.000000
      Center of nuclear charge [Ang]:    [ -0.000000,   0.000000,  -0.000000]
    Dipole moment [D]:                     43.424429
      Cartesian components [D]:          [ -0.000000,  -0.000000,  43.424429]
    RMS size of the density [Ang]:         3.619562
      Cartesian components [Ang]:        [  0.697175,   0.559835,   3.507386]
  
  Exciton analysis of the difference density matrix
    <r_h> [Ang]:                  [ -0.000000,  -0.000000,   0.691611]
    <r_e> [Ang]:                  [  0.000000,   0.000000,   1.391386]
    |<r_e - r_h>| [Ang]:            0.699774
    Hole size [Ang]:                1.534174
      Cartesian components [Ang]: [  0.754267,   0.869389,   1.014365]
    Electron size [Ang]:            2.483153
      Cartesian components [Ang]: [  1.357494,   1.364186,   1.569157]

  Transition density matrix analysis:
  -----------------------------------
  
  CT numbers (Mulliken)
    omega =     0.9207
    <Phe> =    -0.0129
  
  Exciton analysis of the transition density matrix
    Trans. dipole moment [D]:             1.123510
      Cartesian components [D]:         [ -0.000000,  -1.123510,  -0.000000]
    <r_h> [Ang]:                        [ -0.000000,   0.000000,   0.643674]
    <r_e> [Ang]:                        [  0.000000,   0.000000,   1.661010]
    |<r_e - r_h>| [Ang]:                  1.017336
    Hole size [Ang]:                      1.253822
      Cartesian components [Ang]:       [  0.508577,   0.861480,   0.755824]
    Electron size [Ang]:                  2.742993
      Cartesian components [Ang]:       [  1.538218,   1.556744,   1.653616]
    RMS electron-hole separation [Ang]:   3.172761
      Cartesian components [Ang]:       [  1.619319,   1.767834,   2.078216]
    Covariance(r_h, r_e) [Ang^2]:         0.032320
    Correlation coefficient:              0.009397
    Center-of-mass size [Ang]:            1.513334
      Cartesian components [Ang]:       [  0.810453,   0.895260,   0.912061]

  Decomposition into state-averaged NTOs
    H- 1 -> L+ 2:  0.6333 ( 80.2%)
    H- 1 -> L+ 3:  0.2426 ( 11.8%)
                   omega =  92.1%
  ----------------------------------------------------------------------------


  Excited state 7 (singlet, B2)                                    [converged]
  ----------------------------------------------------------------------------
  Term symbol:  7 (1) B2                                    R^2 =  2.11766e-07

  Total energy:                                            -78.4780917412 a.u.
  Excitation energy:                                               8.411310 eV

  Osc. strength:                                                      0.023341
  Trans. dip. moment [a.u.]:           [   0.000000,    0.336550,   -0.000000]
  <i|r^2|0> [a.u.]:                    [  -0.000000,   -0.000000,    0.000000]

  Dip. moment [a.u.]:                  [   0.000000,    0.000000,   19.338156]
  Total dipole [Debye]:                                              49.152699
  <r^2> [a.u.]:                        [  31.094498,   19.075044,  810.504469]
  Total <r^2> [a.u.]:                                               860.674011

  V1^2 = 0.9500, V2^2 = 0.0500

  Important amplitudes:
      occ i      occ j       vir a       vir b          v   
    ---------------------------------------------------------
     1 (B2) A               8 (A1) A                  0.5603
     1 (B2) A               7 (A1) A                  0.3521
    ---------------------------------------------------------

  Density matrix analysis:
  ------------------------
  NOs
    Occupation of frontier NOs:
       0.9842   0.9885
    Number of electrons: 18.000000
    Number of unpaired electrons: n_u =  2.32115, n_u,nl =  2.02654
    NO participation ratio (PR_NO):  2.758929
  
  
  Mulliken Population Analysis
  Atom      Charge (e)              h+              e-           Del q
  --------------------------------------------------------------------
   1 C       -0.665442        0.520468       -0.937683       -0.417215
   2 C       -0.054858        0.532506       -0.336828        0.195678
   3 H        0.189560        0.086413       -0.014984        0.071429
   4 H        0.170589        0.083347       -0.044007        0.039340
   5 H        0.189560        0.086413       -0.014984        0.071429
   6 H        0.170589        0.083347       -0.044007        0.039340
   7 H       -1.000000        0.000199       -0.000199       -0.000000
  --------------------------------------------------------------------
  Sum:       -1.000000        1.392692       -1.392692        0.000000
  
  Multipole moment analysis of the density matrix
    Molecular charge:                      -1.000000
    Number of electrons:                   18.000000
      Center of electronic charge [Ang]: [ -0.000000,  -0.000000,  -0.568517]
    Total nuclear charge:                  17.000000
      Center of nuclear charge [Ang]:    [ -0.000000,   0.000000,  -0.000000]
    Dipole moment [D]:                     49.152684
      Cartesian components [D]:          [  0.000000,   0.000000,  49.152684]
    RMS size of the density [Ang]:         3.614750
      Cartesian components [Ang]:        [  0.695515,   0.544751,   3.505128]
  
  Exciton analysis of the difference density matrix
    <r_h> [Ang]:                  [  0.000000,  -0.000000,   0.619755]
    <r_e> [Ang]:                  [ -0.000000,  -0.000000,   0.448371]
    |<r_e - r_h>| [Ang]:            0.171384
    Hole size [Ang]:                1.555279
      Cartesian components [Ang]: [  0.773357,   0.860017,   1.039799]
    Electron size [Ang]:            2.868305
      Cartesian components [Ang]: [  1.347244,   1.267287,   2.192280]

  Transition density matrix analysis:
  -----------------------------------
  
  CT numbers (Mulliken)
    omega =     0.9191
    <Phe> =    -0.0060
  
  Exciton analysis of the transition density matrix
    Trans. dipole moment [D]:             0.427712
      Cartesian components [D]:         [  0.000000,   0.427712,  -0.000000]
    <r_h> [Ang]:                        [ -0.000000,   0.000000,   0.634976]
    <r_e> [Ang]:                        [ -0.000000,  -0.000000,   0.360154]
    |<r_e - r_h>| [Ang]:                  0.274823
    Hole size [Ang]:                      1.254991
      Cartesian components [Ang]:       [  0.509331,   0.861172,   0.757605]
    Electron size [Ang]:                  3.278110
      Cartesian components [Ang]:       [  1.533397,   1.457444,   2.504108]
    RMS electron-hole separation [Ang]:   3.509818
      Cartesian components [Ang]:       [  1.614893,   1.682390,   2.623071]
    Covariance(r_h, r_e) [Ang^2]:         0.038859
    Correlation coefficient:              0.009445
    Center-of-mass size [Ang]:            1.760591
      Cartesian components [Ang]:       [  0.808327,   0.851628,   1.311876]

  Decomposition into state-averaged NTOs
    H- 1 -> L+ 3:  0.6316 ( 79.8%)
    H- 1 -> L+ 2: -0.2432 ( 11.8%)
                   omega =  91.9%
  ----------------------------------------------------------------------------


  Excited state 8 (singlet, B2)                                    [converged]
  ----------------------------------------------------------------------------
  Term symbol:  8 (1) B2                                    R^2 =  1.52875e-07

  Total energy:                                            -78.4694353716 a.u.
  Excitation energy:                                               8.646862 eV

  Osc. strength:                                                      0.000000
  Trans. dip. moment [a.u.]:           [  -0.000000,   -0.000000,   -0.000000]
  <i|r^2|0> [a.u.]:                    [  -0.000000,    0.000000,   -0.000000]

  Dip. moment [a.u.]:                  [   0.000000,   -0.000000,  -23.436816]
  Total dipole [Debye]:                                              59.570456
  <r^2> [a.u.]:                        [  36.602009,   38.873868,  109.104158]
  Total <r^2> [a.u.]:                                               184.580035

  V1^2 = 0.0000, V2^2 = 1.0000

  Important amplitudes:
      occ i      occ j       vir a       vir b          v   
    ---------------------------------------------------------
     6 (A1) A   6 (A1) B    9 (A1) A    2 (B2) B     -0.3536
     6 (A1) A               2 (B2) A                 -0.0002
    ---------------------------------------------------------

  Density matrix analysis:
  ------------------------
  NOs
    Occupation of frontier NOs:
       1.0017   1.0111
    Number of electrons: 18.000000
    Number of unpaired electrons: n_u =  2.38417, n_u,nl =  2.04585
    NO participation ratio (PR_NO):  2.861569
  
  
  Mulliken Population Analysis
  Atom      Charge (e)              h+              e-           Del q
  --------------------------------------------------------------------
   1 C       -3.750196        0.000001       -3.501970       -3.501969
   2 C        1.146578       -0.000001        1.397114        1.397113
   3 H        0.152290       -0.000000        0.034158        0.034158
   4 H        0.149519        0.000000        0.018270        0.018270
   5 H        0.152290       -0.000000        0.034158        0.034158
   6 H        0.149519        0.000000        0.018270        0.018270
   7 H        1.000000        2.000000       -0.000000        2.000000
  --------------------------------------------------------------------
  Sum:       -1.000000        2.000000       -2.000000        0.000000
  
  Multipole moment analysis of the density matrix
    Molecular charge:                      -1.000000
    Number of electrons:                   18.000000
      Center of electronic charge [Ang]: [ -0.000000,   0.000000,   0.689013]
    Total nuclear charge:                  17.000000
      Center of nuclear charge [Ang]:    [ -0.000000,   0.000000,  -0.000000]
    Dipole moment [D]:                     59.570438
      Cartesian components [D]:          [  0.000000,  -0.000000, -59.570438]
    RMS size of the density [Ang]:         1.548160
      Cartesian components [Ang]:        [  0.754601,   0.777667,   1.105717]
  
  Exciton analysis of the difference density matrix
    <r_h> [Ang]:                  [  0.000000,  -0.000000, -10.037166]
    <r_e> [Ang]:                  [  0.000000,   0.000000,   1.161262]
    |<r_e - r_h>| [Ang]:           11.198428
    Hole size [Ang]:                1.111216
      Cartesian components [Ang]: [  0.641559,   0.641559,   0.641565]
    Electron size [Ang]:            3.144086
      Cartesian components [Ang]: [  1.424840,   1.946027,   2.016949]

  Transition density matrix analysis:
  -----------------------------------
  
  CT numbers (Mulliken)
    omega =     0.0000
    <Phe> =    -0.0000
  
  Exciton analysis of the transition density matrix
    ... vanishing.

  Decomposition into state-averaged NTOs
                   omega =   0.0%
  ----------------------------------------------------------------------------


  Excited state 9 (singlet, B2)                                [not converged]
  ----------------------------------------------------------------------------
  Term symbol:  9 (1) B2                                    R^2 =  1.67357e-01

  Total energy:                                            -78.4474311052 a.u.
  Excitation energy:                                               9.245628 eV



  V1^2 = 0.0000, V2^2 = 1.0000

  Important amplitudes:
      occ i      occ j       vir a       vir b          v   
    ---------------------------------------------------------
     6 (A1) A   6 (A1) B    9 (A1) A    3 (B2) B     -0.3340
     6 (A1) A   6 (A1) B    8 (A1) A    4 (B2) B     -0.0883
    ---------------------------------------------------------
  ----------------------------------------------------------------------------


  Excited state 10 (singlet, B2)                                    [converged]
  ----------------------------------------------------------------------------
  Term symbol:  10 (1) B2                                   R^2 =  5.21355e-09

  Total energy:                                            -78.4349937304 a.u.
  Excitation energy:                                               9.584066 eV

  Osc. strength:                                                      0.000000
  Trans. dip. moment [a.u.]:           [  -0.000000,   -0.000000,    0.000000]
  <i|r^2|0> [a.u.]:                    [   0.000000,    0.000000,    0.000000]

  Dip. moment [a.u.]:                  [  -0.000000,   -0.000000,  -26.325296]
  Total dipole [Debye]:                                              66.912241
  <r^2> [a.u.]:                        [  34.291614,   33.281210,  128.799831]
  Total <r^2> [a.u.]:                                               196.372655

  V1^2 = 0.0000, V2^2 = 1.0000

  Important amplitudes:
      occ i      occ j       vir a       vir b          v   
    ---------------------------------------------------------
     6 (A1) A   6 (A1) B    7 (A1) A    4 (B2) B     -0.3536
     6 (A1) A               5 (B2) A                 -0.0000
    ---------------------------------------------------------

  Density matrix analysis:
  ------------------------
  NOs
    Occupation of frontier NOs:
       1.0018   1.0221
    Number of electrons: 18.000000
    Number of unpaired electrons: n_u =  2.36206, n_u,nl =  2.04256
    NO participation ratio (PR_NO):  2.840842
  
  
  Mulliken Population Analysis
  Atom      Charge (e)              h+              e-           Del q
  --------------------------------------------------------------------
   1 C       -0.835651        0.000000       -0.587425       -0.587425
   2 C       -1.724539       -0.000000       -1.474003       -1.474003
   3 H        0.146842        0.000000        0.028710        0.028710
   4 H        0.133253        0.000000        0.002004        0.002004
   5 H        0.146842        0.000000        0.028710        0.028710
   6 H        0.133253        0.000000        0.002004        0.002004
   7 H        1.000000        2.000000       -0.000000        2.000000
  --------------------------------------------------------------------
  Sum:       -1.000000        2.000000       -2.000000       -0.000000
  
  Multipole moment analysis of the density matrix
    Molecular charge:                      -1.000000
    Number of electrons:                   18.000000
      Center of electronic charge [Ang]: [  0.000000,   0.000000,   0.773930]
    Total nuclear charge:                  17.000000
      Center of nuclear charge [Ang]:    [ -0.000000,   0.000000,  -0.000000]
    Dipole moment [D]:                     66.912221
      Cartesian components [D]:          [ -0.000000,  -0.000000, -66.912221]
    RMS size of the density [Ang]:         1.567172
      Cartesian components [Ang]:        [  0.730397,   0.719556,   1.185238]
  
  Exciton analysis of the difference density matrix
    <r_h> [Ang]:                  [  0.000000,   0.000000, -10.037166]
    <r_e> [Ang]:                  [  0.000000,   0.000000,   1.925520]
    |<r_e - r_h>| [Ang]:           11.962687
    Hole size [Ang]:                1.111216
      Cartesian components [Ang]: [  0.641559,   0.641559,   0.641564]
    Electron size [Ang]:            3.029408
      Cartesian components [Ang]: [  1.306400,   1.733196,   2.113448]

  Transition density matrix analysis:
  -----------------------------------
  
  CT numbers (Mulliken)
    omega =     0.0000
    <Phe> =    -0.0000
  
  Exciton analysis of the transition density matrix
    ... vanishing.

  Decomposition into state-averaged NTOs
                   omega =   0.0%
  ----------------------------------------------------------------------------


--------------------------------------------------------------------------------
  Time of ADC calculation:  CPU 2319.00 s  wall 592.81 s
================================================================================
 
 --------------------------------------------------------------
             Orbital Energies (a.u.) and Symmetries
 --------------------------------------------------------------
 
 Alpha MOs, Restricted
 -- Occupied --                  
-11.187 -11.185  -0.992  -0.732  -0.610  -0.517  -0.465  -0.327
  1 A1    2 A1    3 A1    4 A1    1 B1    5 A1    2 B1    1 B2                 
  0.022
  6 A1                                                                         
 -- Virtual --                   
  0.137   0.150   0.156   0.158   0.167   0.192   0.206   0.259
  7 A1    3 B1    2 B2    8 A1    3 B2    4 B1    9 A1    4 B2                 
  0.262   0.311   0.377   0.388   0.430   0.454   0.460   0.475
 10 A1   11 A1    5 B1   12 A1   13 A1    6 B1   14 A1    5 B2                 
  0.493   0.564   0.603   0.669   0.890   0.898   0.969   1.051
  7 B1    6 B2    8 B1   15 A1   16 A1    9 B1   17 A1   18 A1                 
  1.058   1.096   1.164   1.180   1.202   1.211   1.268   1.330
 19 A1   10 B1    1 A2   20 A1   21 A1   11 B1    7 B2    8 B2                 
  1.335   1.359   1.437   1.547   1.678   1.794   1.845   1.933
  2 A2    9 B2   22 A1   12 B1   23 A1   13 B1   14 B1   10 B2                 
  1.967   1.967   1.967   1.996   2.028   2.067   2.148   2.157
 24 A1   15 B1   11 B2   12 B2   25 A1    3 A2   26 A1   16 B1                 
  2.236   2.379   2.462   2.533   2.603   2.634   2.931   2.936
 13 B2   27 A1    4 A2   28 A1   17 B1   29 A1   30 A1   18 B1                 
  3.358   3.408
 31 A1   19 B1                                                                 
 
 Beta MOs, Restricted
 -- Occupied --                  
-11.187 -11.185  -0.992  -0.732  -0.610  -0.517  -0.465  -0.327
  1 A1    2 A1    3 A1    4 A1    1 B1    5 A1    2 B1    1 B2                 
  0.022
  6 A1                                                                         
 -- Virtual --                   
  0.137   0.150   0.156   0.158   0.167   0.192   0.206   0.259
  7 A1    3 B1    2 B2    8 A1    3 B2    4 B1    9 A1    4 B2                 
  0.262   0.311   0.377   0.388   0.430   0.454   0.460   0.475
 10 A1   11 A1    5 B1   12 A1   13 A1    6 B1   14 A1    5 B2                 
  0.493   0.564   0.603   0.669   0.890   0.898   0.969   1.051
  7 B1    6 B2    8 B1   15 A1   16 A1    9 B1   17 A1   18 A1                 
  1.058   1.096   1.164   1.180   1.202   1.211   1.268   1.330
 19 A1   10 B1    1 A2   20 A1   21 A1   11 B1    7 B2    8 B2                 
  1.335   1.359   1.437   1.547   1.678   1.794   1.845   1.933
  2 A2    9 B2   22 A1   12 B1   23 A1   13 B1   14 B1   10 B2                 
  1.967   1.967   1.967   1.996   2.028   2.067   2.148   2.157
 24 A1   15 B1   11 B2   12 B2   25 A1    3 A2   26 A1   16 B1                 
  2.236   2.379   2.462   2.533   2.603   2.634   2.931   2.936
 13 B2   27 A1    4 A2   28 A1   17 B1   29 A1   30 A1   18 B1                 
  3.358   3.408
 31 A1   19 B1                                                                 
 --------------------------------------------------------------
 
          Ground-State Mulliken Net Atomic Charges

     Atom                 Charge (a.u.)
  ----------------------------------------
      1 C                    -0.236050
      2 C                    -0.230118
      3 H                     0.109948
      4 H                     0.123135
      5 H                     0.109948
      6 H                     0.123135
      7 H                    -1.000000
  ----------------------------------------
  Sum of atomic charges =    -1.000000

 -----------------------------------------------------------------
                    Cartesian Multipole Moments
 -----------------------------------------------------------------
    Charge (ESU x 10^10)
                -4.8032
    Dipole Moment (Debye)
         X      -0.0000      Y      -0.0000      Z      47.9915
       Tot      47.9915
    Quadrupole Moments (Debye-Ang)
        XX     -15.9097     XY      -0.0000     YY     -20.1208
        XZ      -0.0000     YZ       0.0000     ZZ    -500.9966
    Octopole Moments (Debye-Ang^2)
       XXX      -0.0000    XXY       0.0000    XYY       0.0000
       YYY      -0.0000    XXZ      31.9660    XYZ      -0.0000
       YYZ      29.3562    XZZ      -0.0000    YZZ      -0.0000
       ZZZ    4950.8811
    Hexadecapole Moments (Debye-Ang^3)
      XXXX     -32.6978   XXXY       0.0000   XXYY     -11.0052
      XYYY       0.0000   YYYY     -27.6816   XXXZ       0.0000
      XXYZ       0.0000   XYYZ       0.0000   YYYZ       0.0000
      XXZZ    -418.3722   XYZZ      -0.0000   YYZZ    -422.5443
      XZZZ      -0.0000   YZZZ       0.0000   ZZZZ  -51245.8455
 -----------------------------------------------------------------
 Total job time:  675.44s(wall), 2364.13s(cpu) 
 Fri Mar 25 19:58:56 2022

        *************************************************************
        *                                                           *
        *  Thank you very much for using Q-Chem.  Have a nice day.  *
        *                                                           *
        *************************************************************


