/src/tsommerfeld/qchem/exe/qcprog.exe .input0.888889.5648.qcin.1 /src/jdavis/qchem.scratch/qchem5648/

                  Welcome to Q-Chem
     A Quantum Leap Into The Future Of Chemistry


 Q-Chem 5.4 (devel), Q-Chem, Inc., Pleasanton, CA (2021)

 E. Epifanovsky,  A. T. B. Gilbert,  Xintian Feng,  Joonho Lee,  Yuezhi Mao,  
 N. Mardirossian,  P. Pokhilko,  A. White,  M. Wormit,  M. P. Coons,  
 A. L. Dempwolff,  Zhengting Gan,  D. Hait,  P. R. Horn,  L. D. Jacobson,  
 I. Kaliman,  J. Kussmann,  A. W. Lange,  Ka Un Lao,  D. S. Levine,  Jie Liu,  
 S. C. McKenzie,  A. F. Morrison,  K. Nanda,  F. Plasser,  D. R. Rehn,  
 M. L. Vidal,  Zhi-Qiang You,  Ying Zhu,  B. Alam,  B. Albrecht,  
 A. Aldossary,  E. Alguire,  J. H. Andersen,  D. Barton,  K. Begam,  A. Behn,  
 Y. A. Bernard,  E. J. Berquist,  H. Burton,  A. Carreras,  K. Carter-Fenk,  
 R. Chakraborty,  A. D. Chien,  K. D. Closser,  V. Cofer-Shabica,  
 S. Dasgupta,  Jia Deng,  M. de Wergifosse,  M. Diedenhofen,  Hainam Do,  
 S. Ehlert,  Po-Tung Fang,  S. Fatehi,  Qingguo Feng,  T. Friedhoff,  
 J. Gayvert,  Qinghui Ge,  G. Gidofalvi,  M. Goldey,  J. Gomes,  
 C. Gonzalez-Espinoza,  S. Gulania,  A. Gunina,  M. W. D. Hanson-Heine,  
 P. H. P. Harbach,  A. W. Hauser,  M. F. Herbst,  M. Hernandez Vera,  
 M. Hodecker,  Z. C. Holden,  S. Houck,  Xunkun Huang,  Kerwin Hui,  
 B. C. Huynh,  M. Ivanov,  Hyunjun Ji,  Hanjie Jiang,  B. Kaduk,  S. Kaehler,  
 K. Khistyaev,  Jaehoon Kim,  P. Klunzinger,  Z. Koczor-Benda,  
 Joong Hoon Koh,  D. Kosenkov,  L. Koulias,  T. Kowalczyk,  C. M. Krauter,  
 K. Kue,  A. Kunitsa,  T. Kus,  A. Landau,  K. V. Lawler,  D. Lefrancois,  
 S. Lehtola,  Rain Li,  Yi-Pei Li,  Jiashu Liang,  M. Liebenthal,  
 Hung-Hsuan Lin,  You-Sheng Lin,  Fenglai Liu,  Kuan-Yu Liu,  
 M. Loipersberger,  A. Luenser,  A. Manjanath,  P. Manohar,  E. Mansoor,  
 S. F. Manzer,  Shan-Ping Mao,  A. V. Marenich,  T. Markovich,  S. Mason,  
 S. A. Maurer,  P. F. McLaughlin,  M. F. S. J. Menger,  J.-M. Mewes,  
 S. A. Mewes,  P. Morgante,  J. W. Mullinax,  K. J. Oosterbaan,  G. Paran,  
 Alexander C. Paul,  Suranjan K. Paul,  F. Pavosevic,  Zheng Pei,  S. Prager,  
 E. I. Proynov,  E. Ramos,  B. Rana,  A. E. Rask,  A. Rettig,  R. M. Richard,  
 F. Rob,  E. Rossomme,  T. Scheele,  M. Scheurer,  M. Schneider,  
 N. Sergueev,  S. M. Sharada,  W. Skomorowski,  D. W. Small,  C. J. Stein,  
 Yu-Chuan Su,  E. J. Sundstrom,  Zhen Tao,  J. Thirman,  T. Tsuchimochi,  
 N. M. Tubman,  S. P. Veccham,  O. Vydrov,  J. Wenzel,  J. Witte,  A. Yamada,  
 Kun Yao,  S. Yeganeh,  S. R. Yost,  A. Zech,  Igor Ying Zhang,  Xing Zhang,  
 Yu Zhang,  D. Zuev,  A. Aspuru-Guzik,  A. T. Bell,  N. A. Besley,  
 K. B. Bravaya,  B. R. Brooks,  D. Casanova,  Jeng-Da Chai,  S. Coriani,  
 C. J. Cramer,  A. E. DePrince, III,  R. A. DiStasio Jr.,  A. Dreuw,  
 B. D. Dunietz,  T. R. Furlani,  W. A. Goddard III,  S. Grimme,  
 S. Hammes-Schiffer,  T. Head-Gordon,  W. J. Hehre,  Chao-Ping Hsu,  
 T.-C. Jagau,  Yousung Jung,  A. Klamt,  Jing Kong,  D. S. Lambrecht,  
 WanZhen Liang,  N. J. Mayhall,  C. W. McCurdy,  J. B. Neaton,  
 C. Ochsenfeld,  J. A. Parkhill,  R. Peverati,  V. A. Rassolov,  Yihan Shao,  
 L. V. Slipchenko,  T. Stauch,  R. P. Steele,  J. E. Subotnik,  
 A. J. W. Thom,  A. Tkatchenko,  D. G. Truhlar,  T. Van Voorhis,  
 T. A. Wesolowski,  K. B. Whaley,  H. L. Woodcock III,  P. M. Zimmerman,  
 S. Faraji,  P. M. W. Gill,  M. Head-Gordon,  J. M. Herbert,  A. I. Krylov

 Additional authors for Version 5.4.1: 
 S. Kotaru,  Shaozhi Li,  Xiangyuan Li,  F. Matz,  A. Molle,  Haisheng Ren,  
 Yingli Su,  Hung-Yi Tsai,  C. Utku,  Fang Wang

 Contributors to earlier versions of Q-Chem not listed above: 
 R. D. Adamson,  B. Austin,  R. Baer,  J. Baker,  G. J. O. Beran,  
 K. Brandhorst,  S. T. Brown,  E. F. C. Byrd,  A. K. Chakraborty,  
 G. K. L. Chan,  Chun-Min Chang,  Yunqing Chen,  C.-L. Cheng,  
 Siu Hung Chien,  D. M. Chipman,  D. L. Crittenden,  H. Dachsel,  
 R. J. Doerksen,  A. D. Dutoi,  R. G. Edgar,  J. Fosso-Tande,  
 L. Fusti-Molnar,  D. Ghosh,  A. Ghysels,  A. Golubeva-Zadorozhnaya,  
 J. Gonthier,  M. S. Gordon,  S. R. Gwaltney,  G. Hawkins,  J. E. Herr,  
 A. Heyden,  S. Hirata,  E. G. Hohenstein,  G. Kedziora,  F. J. Keil,  
 C. Kelley,  Jihan Kim,  R. A. King,  R. Z. Khaliullin,  P. P. Korambath,  
 W. Kurlancheek,  A. Laurent,  A. M. Lee,  M. S. Lee,  S. V. Levchenko,  
 Ching Yeh Lin,  D. Liotard,  E. Livshits,  R. C. Lochan,  I. Lotan,  
 L. A. Martinez-Martinez,  P. E. Maslen,  N. Nair,  D. P. O'Neill,  
 D. Neuhauser,  E. Neuscamman,  C. M. Oana,  R. Olivares-Amaya,  R. Olson,  
 T. M. Perrine,  B. Peters,  P. A. Pieniazek,  A. Prociuk,  Y. M. Rhee,  
 J. Ritchie,  M. A. Rohrdanz,  E. Rosta,  N. J. Russ,  H. F. Schaefer III,  
 M. W. Schmidt,  N. E. Schultz,  S. Sharma,  N. Shenvi,  C. D. Sherrill,  
 A. C. Simmonett,  A. Sodt,  T. Stein,  D. Stuck,  K. S. Thanthiriwatte,  
 V. Vanovschi,  L. Vogt,  Tao Wang,  A. Warshel,  M. A. Watson,  
 C. F. Williams,  Q. Wu,  X. Xu,  Jun Yang,  W. Zhang,  Yan Zhao

 Please cite Q-Chem as follows:
 Y. Shao et al., Mol. Phys. 113, 184-215 (2015)
 DOI: 10.1080/00268976.2014.952696

 Q-Chem 5.4.1 for Intel X86 EM64T Linux

 Parts of Q-Chem use Armadillo 9.900.5 (Nocturnal Misbehaviour).
 http://arma.sourceforge.net/

 Q-Chem begins on Fri Mar 25 16:40:59 2022  

 Host: node01
0

     Scratch files written to /src/jdavis/qchem.scratch/qchem5648//
 Processing $rem in /src/tsommerfeld/qchem/config/preferences:
 Processing $rem in /home/jdavis/.qchemrc:

 Checking the input file for inconsistencies... 	...done.

--------------------------------------------------------------
User input:
--------------------------------------------------------------
$molecule
-1 1
C         0.0000000000    0.0000000000    0.8417902907
C         0.0000000000    0.0000000000   -0.4872097093
H         0.9623488518    0.0000000000    1.3363703127
H         0.9623489048    0.0000000000   -0.9817896873
H        -0.9623488518    0.0000000000    1.3363703127
H        -0.9623489048    0.0000000000   -0.9817896873
H         0.0000000000    0.0000000000   -10.4872097093
$end

$rem
   METHOD adc(2)
   BASIS gen
   PURECART 11
   EE_STATES [0,0,0,10]
   scf_convergence 8
   ADC_DAVIDSON_MAXITER 120
   ADC_DAVIDSON_MAXSUBSPACE 200
   adc_nguess_singles 100
   THRESH 14
   S2THRESH 14
   adc_davidson_conv 5
   adc_davidson_thresh 14
   THREADS 10
   MEM_TOTAL 95000
   STATE_ANALYSIS TRUE
$end
$basis
C 1
S   9   1.00
      6.665000D+03           6.920000D-04
      1.000000D+03           5.329000D-03
      2.280000D+02           2.707700D-02
      6.471000D+01           1.017180D-01
      2.106000D+01           2.747400D-01
      7.495000D+00           4.485640D-01
      2.797000D+00           2.850740D-01
      5.215000D-01           1.520400D-02
      1.596000D-01          -3.191000D-03
S   9   1.00
      6.665000D+03          -1.460000D-04
      1.000000D+03          -1.154000D-03
      2.280000D+02          -5.725000D-03
      6.471000D+01          -2.331200D-02
      2.106000D+01          -6.395500D-02
      7.495000D+00          -1.499810D-01
      2.797000D+00          -1.272620D-01
      5.215000D-01           5.445290D-01
      1.596000D-01           5.804960D-01
S   1   1.00
      1.596000D-01           1.000000D+00
S   1   1.00
      0.0469000              1.0000000
P   4   1.00
      9.439000D+00           3.810900D-02
      2.002000D+00           2.094800D-01
      5.456000D-01           5.085570D-01
      1.517000D-01           4.688420D-01
P   1   1.00
      1.517000D-01           1.000000D+00
P   1   1.00
      0.0539378      1.0000000
P   1   1.00
      0.0269689      1.0000000
D   1   1.00
      5.500000D-01           1.0000000
****
C 2
S   9   1.00
      6.665000D+03           6.920000D-04
      1.000000D+03           5.329000D-03
      2.280000D+02           2.707700D-02
      6.471000D+01           1.017180D-01
      2.106000D+01           2.747400D-01
      7.495000D+00           4.485640D-01
      2.797000D+00           2.850740D-01
      5.215000D-01           1.520400D-02
      1.596000D-01          -3.191000D-03
S   9   1.00
      6.665000D+03          -1.460000D-04
      1.000000D+03          -1.154000D-03
      2.280000D+02          -5.725000D-03
      6.471000D+01          -2.331200D-02
      2.106000D+01          -6.395500D-02
      7.495000D+00          -1.499810D-01
      2.797000D+00          -1.272620D-01
      5.215000D-01           5.445290D-01
      1.596000D-01           5.804960D-01
S   1   1.00
      1.596000D-01           1.000000D+00
S   1   1.00
      0.0469000              1.0000000
P   4   1.00
      9.439000D+00           3.810900D-02
      2.002000D+00           2.094800D-01
      5.456000D-01           5.085570D-01
      1.517000D-01           4.688420D-01
P   1   1.00
      1.517000D-01           1.000000D+00
P   1   1.00
      0.0539378      1.0000000
P   1   1.00
      0.0269689      1.0000000
D   1   1.00
      5.500000D-01           1.0000000
****
H 3
cc-pVDZ
****
H 4
cc-pVDZ
****
H 5
cc-pVDZ
****
H 6
cc-pVDZ
****
H 7
aug-cc-pVDZ
****
$end
--------------------------------------------------------------
 ----------------------------------------------------------------
             Standard Nuclear Orientation (Angstroms)
    I     Atom           X                Y                Z
 ----------------------------------------------------------------
    1      C       0.0000000000     0.0000000000     1.2918235242
    2      C       0.0000000000     0.0000000000    -0.0371764758
    3      H       0.9623488518     0.0000000000     1.7864035462
    4      H       0.9623489048     0.0000000000    -0.5317564538
    5      H      -0.9623488518     0.0000000000     1.7864035462
    6      H      -0.9623489048     0.0000000000    -0.5317564538
    7      H       0.0000000000     0.0000000000   -10.0371764758
 ----------------------------------------------------------------
 Molecular Point Group                 C2v   NOp =  4
 Largest Abelian Subgroup              C2v   NOp =  4
 Nuclear Repulsion Energy =          34.38697142 hartrees
 There are        9 alpha and        9 beta electrons
 Requested basis set is non-standard
 There are 33 shells and 67 basis functions
 Total memory of 95000 MB is distributed as follows: 
   MEM_STATIC is set to 192 MB
   QALLOC/CCMAN JOB total memory use is  94808 MB
 Warning: actual memory use might exceed 95000 MB

 Total QAlloc Memory Limit  95000 MB
 Mega-Array Size       188 MB
 MEM_STATIC part       192 MB

                       Distance Matrix (Angstroms)
             C (  1)   C (  2)   H (  3)   H (  4)   H (  5)   H (  6)
   C (  2)  1.329000
   H (  3)  1.082000  2.061931
   H (  4)  2.061931  1.082000  2.318160
   H (  5)  1.082000  2.061931  1.924698  3.013026
   H (  6)  2.061931  1.082000  3.013026  1.924698  2.318160
   H (  7) 11.329000 10.000000 11.862679  9.554011 11.862679  9.554011

 
 A cutoff of  1.0D-14 yielded    495 shell pairs
 There are      2107 function pairs (      2244 Cartesian)
 Smallest overlap matrix eigenvalue = 1.88E-04

 Scale SEOQF with 1.000000e-01/1.000000e-01/1.000000e-02

 Standard Electronic Orientation quadrupole field applied
 Nucleus-field energy     =    -0.0000000011 hartrees
 ================ Generating on-the-fly SAD Guess ================
Attempting to make child job directory: /src/jdavis/qchem.scratch/qchem5648//Frg1/
Attempting to make child job directory: /src/jdavis/qchem.scratch/qchem5648//Frg2/
Creating input file /src/jdavis/qchem.scratch/qchem5648/Frg1.input
using default PutDataFrgm: nothing
calling putenv with: QCSCRATCH=/src/jdavis/qchem.scratch/qchem5648/ 
Spawning Job For Fragment 0
Done Job For Fragment 0
calling putenv with: QCSCRATCH=/src/jdavis/qchem.scratch 
calling putenv with: QCTHREADS=1 
Creating input file /src/jdavis/qchem.scratch/qchem5648/Frg2.input
using default PutDataFrgm: nothing
calling putenv with: QCSCRATCH=/src/jdavis/qchem.scratch/qchem5648/ 
Spawning Job For Fragment 1
Done Job For Fragment 1
calling putenv with: QCSCRATCH=/src/jdavis/qchem.scratch 
calling putenv with: QCTHREADS=1 
 Time for running child jobs:  CPU 1.76 s  wall 54.31 s
 ============= Method Specific SAD Guess Constructed =============
 Guess from on-the-fly superposition of atomic densities
 Warning: Energy on first SCF cycle will be non-variational
 A restricted Hartree-Fock SCF calculation will be
 performed using Pulay DIIS extrapolation
 SCF converges when DIIS error is below 1.0E-08
 using 10 threads for integral computing
 -------------------------------------------------------
 OpenMP Integral computing Module                
 Release: version 1.0, May 2013, Q-Chem Inc. Pittsburgh 
 -------------------------------------------------------
 ---------------------------------------
  Cycle       Energy         DIIS Error
 ---------------------------------------
    1     -78.7999932954      7.36E-02
    2     -78.4465463978      6.48E-03
    3     -78.4845413234      1.48E-03
    4     -78.4864821704      4.79E-04
    5     -78.4866590681      7.74E-05
    6     -78.4866679165      1.83E-05
    7     -78.4866685383      9.05E-06
    8     -78.4866687176      2.04E-06
    9     -78.4866687553      8.17E-07
   10     -78.4866687664      2.11E-07
   11     -78.4866687676      6.74E-08
   12     -78.4866687677      1.63E-08
   13     -78.4866687677      2.31E-09 Convergence criterion met
 ---------------------------------------
 SCF time:  CPU 12.40 s  wall 1.25 s
 SCF   energy in the final basis set = -78.48666877
 Total energy in the final basis set = -78.48666877
================================================================================
|                                                                              |
|                                 A D C  M A N                                 |
|                                                                              |
 ------------------------------------------------------------------------------ 
|                                                                              |
| Components:                                                                  |
|                                                                              |
| - libvmm - 1.3-trunk                                                         |
|   Authors:                                                                   |
|   Evgeny Epifanovsky, Ilya Kaliman                                           |
|                                                                              |
| - libtensor - 2.5-trunk                                                      |
|   Authors:                                                                   |
|   Evgeny Epifanovsky, Michael Wormit, Dmitry Zuev, Sam Manzer,               |
|   Ilya Kaliman                                                               |
|                                                                              |
| - libwfa - 1.1-trunk                                                         |
|   Authors:                                                                   |
|   Felix Plasser, Stefanie Mewes (Baeppler), Benjamin Thomitzni,              |
|   Michael Wormit, Feng Chen, Anna I. Krylov, Pavel Pokhilko                  |
|                                                                              |
| - libadc - 1.1-trunk                                                         |
|   Authors:                                                                   |
|   Michael Wormit, Adrian L. Dempwolff, Philipp H. P. Harbach,                |
|   Caroline Krauter, Dirk Rehn, Matthias Schneider, Jan Wenzel                |
|                                                                              |
| - adcman - 2.6-trunk                                                         |
|   Authors:                                                                   |
|   Michael Wormit, Adrian L. Dempwolff, Philipp H. P. Harbach,                |
|   Caroline Krauter, Daniel Lefrancois, Jan-Michael Mewes, Dirk Rehn,         |
|   Matthias Schneider, Jan Wenzel, Andreas Dreuw                              |
|                                                                              |
| Authors of earlier versions of ADCMAN:                                       |
| Andreas Dreuw, Jan Hendrik Starcke, Dirk Rehn, Michael Wormit                |
|                                                                              |
================================================================================

 
 Alpha MOs, Restricted
 -- Occupied --                  
-11.187 -11.185  -0.992  -0.732  -0.611  -0.517  -0.465  -0.327
  1 A1    2 A1    3 A1    4 A1    1 B1    5 A1    2 B1    1 B2                 
  0.022
  6 A1                                                                         
 -- Virtual --                   
  0.098   0.101   0.108   0.129   0.129   0.137   0.162   0.198
  7 A1    3 B1    2 B2    3 B2    4 B1    8 A1    9 A1    4 B2                 
  0.250   0.271   0.283   0.292   0.299   0.302   0.319   0.378
 10 A1    5 B1   11 A1    6 B1    5 B2   12 A1   13 A1    6 B2                 
  0.391   0.404   0.573   0.625   0.816   0.901   0.919   0.944
  7 B1   14 A1    8 B1   15 A1   16 A1    9 B1   17 A1   10 B1                 
  0.978   1.007   1.054   1.058   1.070   1.083   1.120   1.164
 18 A1    7 B2    8 B2   19 A1   20 A1   21 A1   11 B1    1 A2                 
  1.334   1.335   1.341   1.404   1.662   1.667   1.759   1.909
  2 A2    9 B2   22 A1   12 B1   23 A1   13 B1   14 B1   10 B2                 
  1.967   1.967   1.967   1.977   1.991   2.067   2.069   2.116
 24 A1   15 B1   11 B2   25 A1   12 B2    3 A2   26 A1   16 B1                 
  2.225   2.372   2.462   2.502   2.621   2.624   2.850   2.858
 13 B2   27 A1    4 A2   28 A1   29 A1   17 B1   18 B1   30 A1                 
  3.287   3.390
 31 A1   19 B1                                                                 
 
 Beta MOs, Restricted
 -- Occupied --                  
-11.187 -11.185  -0.992  -0.732  -0.611  -0.517  -0.465  -0.327
  1 A1    2 A1    3 A1    4 A1    1 B1    5 A1    2 B1    1 B2                 
  0.022
  6 A1                                                                         
 -- Virtual --                   
  0.098   0.101   0.108   0.129   0.129   0.137   0.162   0.198
  7 A1    3 B1    2 B2    3 B2    4 B1    8 A1    9 A1    4 B2                 
  0.250   0.271   0.283   0.292   0.299   0.302   0.319   0.378
 10 A1    5 B1   11 A1    6 B1    5 B2   12 A1   13 A1    6 B2                 
  0.391   0.404   0.573   0.625   0.816   0.901   0.919   0.944
  7 B1   14 A1    8 B1   15 A1   16 A1    9 B1   17 A1   10 B1                 
  0.978   1.007   1.054   1.058   1.070   1.083   1.120   1.164
 18 A1    7 B2    8 B2   19 A1   20 A1   21 A1   11 B1    1 A2                 
  1.334   1.335   1.341   1.404   1.662   1.667   1.759   1.909
  2 A2    9 B2   22 A1   12 B1   23 A1   13 B1   14 B1   10 B2                 
  1.967   1.967   1.967   1.977   1.991   2.067   2.069   2.116
 24 A1   15 B1   11 B2   25 A1   12 B2    3 A2   26 A1   16 B1                 
  2.225   2.372   2.462   2.502   2.621   2.624   2.850   2.858
 13 B2   27 A1    4 A2   28 A1   29 A1   17 B1   18 B1   30 A1                 
  3.287   3.390
 31 A1   19 B1                                                                 

--------------------------------------------------------------------------------
                                   HF Summary                                   
--------------------------------------------------------------------------------
  Energy:                                                  -78.4866687677 a.u.
  Dip. moment [a.u.]:                  [  -0.000000,    0.000000,   18.871982]
  Total dipole [Debye]:                                              47.967802
  <r^2> [a.u.]:                        [  25.075689,   14.939403,  792.630040]
  Total <r^2> [a.u.]:                                               832.645132
--------------------------------------------------------------------------------

--------------------------------------------------------------------------------
                                 MP(2) Summary                                  
--------------------------------------------------------------------------------
  MP energy contribution:                                   -0.2981052145 a.u.
  Total energy:                                            -78.7847739822 a.u.
  Dip. moment [a.u.]:                  [  -0.000000,    0.000000,   18.877229]
  Total dipole [Debye]:                                              47.981140
  <r^2> [a.u.]:                        [  25.065081,   14.748794,  792.666409]
  Total <r^2> [a.u.]:                                               832.480284

  Density matrix analysis:
  ------------------------
  NOs
    Occupation of frontier NOs:
       0.0446   1.9372
    Number of electrons: 18.000000
    Number of unpaired electrons: n_u =  0.43178, n_u,nl =  0.04668
    NO participation ratio (PR_NO): 15.330109
  
  
  Mulliken Population Analysis
  Atom      Charge (e)              h+              e-           Del q
  --------------------------------------------------------------------
   1 C       -0.173596        0.090849       -0.101225       -0.010375
   2 C       -0.174597        0.085171       -0.103784       -0.018614
   3 H        0.080659        0.017754       -0.010487        0.007267
   4 H        0.093024        0.017530       -0.010324        0.007206
   5 H        0.080659        0.017754       -0.010487        0.007267
   6 H        0.093024        0.017530       -0.010324        0.007206
   7 H       -0.999174        0.022002       -0.021958        0.000043
  --------------------------------------------------------------------
  Sum:       -1.000000        0.268589       -0.268589        0.000000
  
  Multipole moment analysis of the density matrix
    Molecular charge:                      -1.000000
    Number of electrons:                   18.000000
      Center of electronic charge [Ang]: [  0.000000,  -0.000000,  -0.554967]
    Total nuclear charge:                  17.000000
      Center of nuclear charge [Ang]:    [ -0.000000,   0.000000,  -0.000000]
    Dipole moment [D]:                     47.981125
      Cartesian components [D]:          [ -0.000000,   0.000000,  47.981125]
    RMS size of the density [Ang]:         3.555703
      Cartesian components [Ang]:        [  0.624453,   0.479008,   3.467511]
  
  Exciton analysis of the difference density matrix
    <r_h> [Ang]:                  [  0.000000,  -0.000000,  -0.233839]
    <r_e> [Ang]:                  [  0.000000,  -0.000000,  -0.244178]
    |<r_e - r_h>| [Ang]:            0.010338
    Hole size [Ang]:                3.256988
      Cartesian components [Ang]: [  0.737754,   0.755640,   3.081022]
    Electron size [Ang]:            3.229731
      Cartesian components [Ang]: [  0.730220,   0.610134,   3.086369]
--------------------------------------------------------------------------------
  Starting Davidson for singlet states of irrep B2 ... 
--------------------------------------------------------------------------------
   It NVec Conv  Avg. Norm  Max. Norm  Conv. states           Remark
--------------------------------------------------------------------------------
       100    0  1.004e-01  4.598e-01  0.0579 n n n n n n n n Guess.
    1  110    0  5.316e-03  2.839e-02  0.0366 n n n n n n n n 
    2  120    0  2.354e-02  1.920e-01  0.0366 n n n n n n n n 
    3  130    3  1.617e-02  1.135e-01  0.0366 y y y n n n n n 
    4  140    4  7.034e-03  4.541e-02  0.0366 y y y n n n y n 
    5  150    6  1.645e-03  1.030e-02  0.0366 y y y n n y y y 
    6  160    7  1.521e-04  1.441e-03  0.0366 y y y n n y y y 
    7  170    8  4.469e-06  4.232e-05  0.0366 y y y n y y y y 
    8  180   10  9.041e-08  8.357e-07  0.0366 y y y y y y y y Converged.
--------------------------------------------------------------------------------
  Davidson Summary: 
 ------------------------------------------------------------
  State  0: excitation energy =   0.0366 a.u.   (converged)
  State  1: excitation energy =   0.0449 a.u.   (converged)
  State  2: excitation energy =   0.0904 a.u.   (converged)
  State  3: excitation energy =   0.1622 a.u.   (converged)
  State  4: excitation energy =   0.1835 a.u.   (converged)
  State  5: excitation energy =   0.2021 a.u.   (converged)
  State  6: excitation energy =   0.2118 a.u.   (converged)
  State  7: excitation energy =   0.2235 a.u.   (converged)
  State  8: excitation energy =   0.2262 a.u.   (converged)
  State  9: excitation energy =   0.2475 a.u.   (converged)
 ------------------------------------------------------------


--------------------------------------------------------------------------------
                   State-averaged natural transition orbitals
--------------------------------------------------------------------------------
--------------------------------------------------------------------------------

--------------------------------------------------------------------------------
                             Excited State Summary
--------------------------------------------------------------------------------
--------------------------------------------------------------------------------

  Excited state 1 (singlet, B2)                                    [converged]
  ----------------------------------------------------------------------------
  Term symbol:  1 (1) B2                                    R^2 =  1.37909e-09

  Total energy:                                            -78.7481649697 a.u.
  Excitation energy:                                               0.996182 eV

  Osc. strength:                                                      0.000000
  Trans. dip. moment [a.u.]:           [   0.000000,    0.003153,   -0.000000]
  <i|r^2|0> [a.u.]:                    [  -0.000000,   -0.000000,   -0.000000]

  Dip. moment [a.u.]:                  [   0.000000,   -0.000000,   -1.237625]
  Total dipole [Debye]:                                               3.145730
  <r^2> [a.u.]:                        [  36.921032,   53.491763,  446.593973]
  Total <r^2> [a.u.]:                                               537.006768

  V1^2 = 0.9783, V2^2 = 0.0217

  Important amplitudes:
      occ i      occ j       vir a       vir b          v   
    ---------------------------------------------------------
     6 (A1) A               2 (B2) A                  0.6452
     6 (A1) A               3 (B2) A                  0.2681
    ---------------------------------------------------------

  Density matrix analysis:
  ------------------------
  NOs
    Occupation of frontier NOs:
       0.9974   1.0019
    Number of electrons: 18.000000
    Number of unpaired electrons: n_u =  2.40903, n_u,nl =  2.04725
    NO participation ratio (PR_NO):  2.896802
  
  
  Mulliken Population Analysis
  Atom      Charge (e)              h+              e-           Del q
  --------------------------------------------------------------------
   1 C       -0.651617        0.021007       -0.499029       -0.478021
   2 C       -0.652840        0.031325       -0.509567       -0.478242
   3 H        0.073268       -0.000794       -0.006598       -0.007391
   4 H        0.078307       -0.000923       -0.013794       -0.014717
   5 H        0.073268       -0.000794       -0.006598       -0.007391
   6 H        0.078307       -0.000923       -0.013794       -0.014717
   7 H        0.001306        1.021795       -0.021315        1.000480
  --------------------------------------------------------------------
  Sum:       -1.000000        1.070694       -1.070694        0.000000
  
  Multipole moment analysis of the density matrix
    Molecular charge:                      -1.000000
    Number of electrons:                   18.000000
      Center of electronic charge [Ang]: [ -0.000000,   0.000000,   0.036385]
    Total nuclear charge:                  17.000000
      Center of nuclear charge [Ang]:    [ -0.000000,   0.000000,  -0.000000]
    Dipole moment [D]:                     3.145729
      Cartesian components [D]:          [  0.000000,  -0.000000,  -3.145729]
    RMS size of the density [Ang]:         2.890150
      Cartesian components [Ang]:        [  0.757882,   0.912238,   2.635603]
  
  Exciton analysis of the difference density matrix
    <r_h> [Ang]:                  [  0.000000,  -0.000000,  -9.569573]
    <r_e> [Ang]:                  [ -0.000000,   0.000000,   0.371941]
    |<r_e - r_h>| [Ang]:            9.941514
    Hole size [Ang]:                2.488462
      Cartesian components [Ang]: [  0.715852,   0.716711,   2.272955]
    Electron size [Ang]:            4.511422
      Cartesian components [Ang]: [  1.900852,   3.262894,   2.468443]

  Transition density matrix analysis:
  -----------------------------------
  
  CT numbers (Mulliken)
    omega =     0.9721
    <Phe> =     0.0001
  
  Exciton analysis of the transition density matrix
    Trans. dipole moment [D]:             0.004007
      Cartesian components [D]:         [  0.000000,   0.004007,  -0.000000]
    <r_h> [Ang]:                        [ -0.000000,  -0.000000, -10.034125]
    <r_e> [Ang]:                        [  0.000000,   0.000000,   0.631676]
    |<r_e - r_h>| [Ang]:                 10.665801
    Hole size [Ang]:                      1.121556
      Cartesian components [Ang]:       [  0.641982,   0.641955,   0.658515]
    Electron size [Ang]:                  4.371512
      Cartesian components [Ang]:       [  1.946055,   3.370723,   1.990279]
    RMS electron-hole separation [Ang]:  11.581568
      Cartesian components [Ang]:       [  2.049212,   3.431306,  10.870123]
    Covariance(r_h, r_e) [Ang^2]:        -0.002706
    Correlation coefficient:             -0.000552
    Center-of-mass size [Ang]:            2.256246
      Cartesian components [Ang]:       [  1.024606,   1.715655,   1.047548]

  Decomposition into state-averaged NTOs
    H- 0 -> L+ 0:  0.5335 ( 56.9%)
    H- 0 -> L+ 1: -0.3820 ( 29.2%)
    H- 0 -> L+ 2:  0.2356 ( 11.1%)
                   omega =  97.2%
  ----------------------------------------------------------------------------


  Excited state 2 (singlet, B2)                                    [converged]
  ----------------------------------------------------------------------------
  Term symbol:  2 (1) B2                                    R^2 =  5.48096e-10

  Total energy:                                            -78.7398525272 a.u.
  Excitation energy:                                               1.222375 eV

  Osc. strength:                                                      0.000091
  Trans. dip. moment [a.u.]:           [   0.000000,   -0.055194,   -0.000000]
  <i|r^2|0> [a.u.]:                    [  -0.000000,   -0.000000,   -0.000000]

  Dip. moment [a.u.]:                  [   0.000000,   -0.000000,   -1.212441]
  Total dipole [Debye]:                                               3.081717
  <r^2> [a.u.]:                        [  32.138358,   38.330532,  458.626290]
  Total <r^2> [a.u.]:                                               529.095180

  V1^2 = 0.9695, V2^2 = 0.0305

  Important amplitudes:
      occ i      occ j       vir a       vir b          v   
    ---------------------------------------------------------
     6 (A1) A               3 (B2) A                  0.6280
     6 (A1) A               2 (B2) A                 -0.2550
    ---------------------------------------------------------

  Density matrix analysis:
  ------------------------
  NOs
    Occupation of frontier NOs:
       0.9938   1.0016
    Number of electrons: 18.000000
    Number of unpaired electrons: n_u =  2.41196, n_u,nl =  2.04604
    NO participation ratio (PR_NO):  2.913880
  
  
  Mulliken Population Analysis
  Atom      Charge (e)              h+              e-           Del q
  --------------------------------------------------------------------
   1 C       -0.625596        0.056281       -0.508282       -0.452001
   2 C       -0.647442        0.060263       -0.533107       -0.472844
   3 H        0.065203        0.002101       -0.017557       -0.015456
   4 H        0.070713        0.001893       -0.024205       -0.022311
   5 H        0.065203        0.002101       -0.017557       -0.015456
   6 H        0.070713        0.001893       -0.024205       -0.022311
   7 H        0.001207        1.020853       -0.020472        1.000381
  --------------------------------------------------------------------
  Sum:       -1.000000        1.145385       -1.145385        0.000000
  
  Multipole moment analysis of the density matrix
    Molecular charge:                      -1.000000
    Number of electrons:                   18.000000
      Center of electronic charge [Ang]: [ -0.000000,   0.000000,   0.035644]
    Total nuclear charge:                  17.000000
      Center of nuclear charge [Ang]:    [ -0.000000,   0.000000,  -0.000000]
    Dipole moment [D]:                     3.081716
      Cartesian components [D]:          [  0.000000,  -0.000000,  -3.081716]
    RMS size of the density [Ang]:         2.868787
      Cartesian components [Ang]:        [  0.707093,   0.772213,   2.670888]
  
  Exciton analysis of the difference density matrix
    <r_h> [Ang]:                  [  0.000000,   0.000000,  -8.896568]
    <r_e> [Ang]:                  [ -0.000000,   0.000000,   0.385024]
    |<r_e - r_h>| [Ang]:            9.281592
    Hole size [Ang]:                3.513994
      Cartesian components [Ang]: [  0.722345,   0.727385,   3.361143]
    Electron size [Ang]:            4.144391
      Cartesian components [Ang]: [  1.500362,   2.508875,   2.937760]

  Transition density matrix analysis:
  -----------------------------------
  
  CT numbers (Mulliken)
    omega =     0.9596
    <Phe> =     0.0001
  
  Exciton analysis of the transition density matrix
    Trans. dipole moment [D]:             0.070144
      Cartesian components [D]:         [  0.000000,  -0.070144,  -0.000000]
    <r_h> [Ang]:                        [ -0.000000,  -0.000000, -10.034372]
    <r_e> [Ang]:                        [  0.000000,   0.000000,   0.613125]
    |<r_e - r_h>| [Ang]:                 10.647497
    Hole size [Ang]:                      1.120290
      Cartesian components [Ang]:       [  0.641942,   0.641907,   0.656442]
    Electron size [Ang]:                  4.101540
      Cartesian components [Ang]:       [  1.540185,   2.664560,   2.711195]
    RMS electron-hole separation [Ang]:  11.465032
      Cartesian components [Ang]:       [  1.668610,   2.740784,  11.006853]
    Covariance(r_h, r_e) [Ang^2]:        -0.000049
    Correlation coefficient:             -0.000011
    Center-of-mass size [Ang]:            2.125887
      Cartesian components [Ang]:       [  0.834305,   1.370397,   1.394755]

  Decomposition into state-averaged NTOs
    H- 0 -> L+ 1:  0.4891 ( 47.8%)
    H- 0 -> L+ 0:  0.3554 ( 25.3%)
    H- 0 -> L+ 3:  0.3381 ( 22.9%)
                   omega =  96.0%
  ----------------------------------------------------------------------------


  Excited state 3 (singlet, B2)                                    [converged]
  ----------------------------------------------------------------------------
  Term symbol:  3 (1) B2                                    R^2 =  4.17633e-09

  Total energy:                                            -78.6943478413 a.u.
  Excitation energy:                                               2.460620 eV

  Osc. strength:                                                      0.000105
  Trans. dip. moment [a.u.]:           [  -0.000000,    0.041709,    0.000000]
  <i|r^2|0> [a.u.]:                    [  -0.000000,   -0.000000,    0.000000]

  Dip. moment [a.u.]:                  [  -0.000000,    0.000000,   -1.232606]
  Total dipole [Debye]:                                               3.132971
  <r^2> [a.u.]:                        [  30.191581,   30.685447,  451.578477]
  Total <r^2> [a.u.]:                                               512.455505

  V1^2 = 0.9490, V2^2 = 0.0510

  Important amplitudes:
      occ i      occ j       vir a       vir b          v   
    ---------------------------------------------------------
     6 (A1) A               4 (B2) A                  0.6592
     6 (A1) A               3 (B2) A                 -0.1487
    ---------------------------------------------------------

  Density matrix analysis:
  ------------------------
  NOs
    Occupation of frontier NOs:
       0.9896   1.0009
    Number of electrons: 18.000000
    Number of unpaired electrons: n_u =  2.41627, n_u,nl =  2.04441
    NO participation ratio (PR_NO):  2.935388
  
  
  Mulliken Population Analysis
  Atom      Charge (e)              h+              e-           Del q
  --------------------------------------------------------------------
   1 C       -0.564185        0.133651       -0.524240       -0.390589
   2 C       -0.571081        0.151408       -0.547892       -0.396484
   3 H        0.030510        0.004775       -0.054924       -0.050150
   4 H        0.036688        0.004545       -0.060881       -0.056336
   5 H        0.030510        0.004775       -0.054924       -0.050150
   6 H        0.036688        0.004545       -0.060881       -0.056336
   7 H        0.000870        1.018699       -0.018654        1.000044
  --------------------------------------------------------------------
  Sum:       -1.000000        1.322398       -1.322398        0.000000
  
  Multipole moment analysis of the density matrix
    Molecular charge:                      -1.000000
    Number of electrons:                   18.000000
      Center of electronic charge [Ang]: [  0.000000,  -0.000000,   0.036237]
    Total nuclear charge:                  17.000000
      Center of nuclear charge [Ang]:    [ -0.000000,   0.000000,  -0.000000]
    Dipole moment [D]:                     3.132971
      Cartesian components [D]:          [ -0.000000,   0.000000,  -3.132971]
    RMS size of the density [Ang]:         2.823301
      Cartesian components [Ang]:        [  0.685343,   0.690925,   2.650275]
  
  Exciton analysis of the difference density matrix
    <r_h> [Ang]:                  [  0.000000,   0.000000,  -7.605894]
    <r_e> [Ang]:                  [  0.000000,   0.000000,   0.441357]
    |<r_e - r_h>| [Ang]:            8.047251
    Hole size [Ang]:                4.632419
      Cartesian components [Ang]: [  0.707186,   0.691292,   4.525628]
    Electron size [Ang]:            3.368422
      Cartesian components [Ang]: [  1.259242,   1.962804,   2.430632]

  Transition density matrix analysis:
  -----------------------------------
  
  CT numbers (Mulliken)
    omega =     0.9322
    <Phe> =     0.0000
  
  Exciton analysis of the transition density matrix
    Trans. dipole moment [D]:             0.053007
      Cartesian components [D]:         [ -0.000000,   0.053007,   0.000000]
    <r_h> [Ang]:                        [ -0.000000,  -0.000000, -10.034374]
    <r_e> [Ang]:                        [  0.000000,  -0.000000,   0.621928]
    |<r_e - r_h>| [Ang]:                 10.656302
    Hole size [Ang]:                      1.120136
      Cartesian components [Ang]:       [  0.641853,   0.641818,   0.656353]
    Electron size [Ang]:                  3.436100
      Cartesian components [Ang]:       [  1.289759,   2.222508,   2.281176]
    RMS electron-hole separation [Ang]:  11.252484
      Cartesian components [Ang]:       [  1.440643,   2.313319,  10.917486]
    Covariance(r_h, r_e) [Ang^2]:        -0.000064
    Correlation coefficient:             -0.000017
    Center-of-mass size [Ang]:            1.807025
      Cartesian components [Ang]:       [  0.720322,   1.156665,   1.186846]

  Decomposition into state-averaged NTOs
    H- 0 -> L+ 3:  0.5868 ( 68.9%)
    H- 0 -> L+ 1: -0.2827 ( 16.0%)
    H- 0 -> L+ 0: -0.2039 (  8.3%)
                   omega =  93.2%
  ----------------------------------------------------------------------------


  Excited state 4 (singlet, B2)                                    [converged]
  ----------------------------------------------------------------------------
  Term symbol:  4 (1) B2                                    R^2 =  2.87394e-07

  Total energy:                                            -78.6225479391 a.u.
  Excitation energy:                                               4.414395 eV

  Osc. strength:                                                      0.000000
  Trans. dip. moment [a.u.]:           [   0.000000,   -0.000303,   -0.000000]
  <i|r^2|0> [a.u.]:                    [   0.000000,    0.000000,   -0.000000]

  Dip. moment [a.u.]:                  [  -0.000000,   -0.000000,  -29.397239]
  Total dipole [Debye]:                                              74.720343
  <r^2> [a.u.]:                        [  48.994526,   65.151982,  160.794835]
  Total <r^2> [a.u.]:                                               274.941343

  V1^2 = 0.0005, V2^2 = 0.9995

  Important amplitudes:
      occ i      occ j       vir a       vir b          v   
    ---------------------------------------------------------
     6 (A1) A   6 (A1) B    7 (A1) A    2 (B2) B     -0.3535
     6 (A1) A               2 (B2) A                 -0.0162
    ---------------------------------------------------------

  Density matrix analysis:
  ------------------------
  NOs
    Occupation of frontier NOs:
       1.0005   1.0010
    Number of electrons: 18.000000
    Number of unpaired electrons: n_u =  2.40577, n_u,nl =  2.04895
    NO participation ratio (PR_NO):  2.880010
  
  
  Mulliken Population Analysis
  Atom      Charge (e)              h+              e-           Del q
  --------------------------------------------------------------------
   1 C       -2.554102        0.000080       -2.380587       -2.380507
   2 C        0.250742        0.000688        0.424652        0.425340
   3 H        0.071946       -0.000001       -0.008712       -0.008714
   4 H        0.079869        0.000003       -0.013158       -0.013155
   5 H        0.071946       -0.000001       -0.008712       -0.008714
   6 H        0.079869        0.000003       -0.013158       -0.013155
   7 H        0.999731        1.998917       -0.000013        1.998905
  --------------------------------------------------------------------
  Sum:       -1.000000        1.999688       -1.999688        0.000000
  
  Multipole moment analysis of the density matrix
    Molecular charge:                      -1.000000
    Number of electrons:                   18.000000
      Center of electronic charge [Ang]: [  0.000000,   0.000000,   0.864242]
    Total nuclear charge:                  17.000000
      Center of nuclear charge [Ang]:    [ -0.000000,   0.000000,  -0.000000]
    Dipole moment [D]:                     74.720321
      Cartesian components [D]:          [ -0.000000,  -0.000000, -74.720321]
    RMS size of the density [Ang]:         1.878933
      Cartesian components [Ang]:        [  0.873049,   1.006766,   1.324611]
  
  Exciton analysis of the difference density matrix
    <r_h> [Ang]:                  [  0.000000,  -0.000000, -10.034282]
    <r_e> [Ang]:                  [  0.000000,   0.000000,   2.740587]
    |<r_e - r_h>| [Ang]:           12.774869
    Hole size [Ang]:                1.123786
      Cartesian components [Ang]: [  0.642372,   0.642369,   0.661524]
    Electron size [Ang]:            4.045157
      Cartesian components [Ang]: [  1.940007,   2.733296,   2.264677]

  Transition density matrix analysis:
  -----------------------------------
  
  CT numbers (Mulliken)
    omega =     0.0005
    <Phe> =     0.0001
  
  Exciton analysis of the transition density matrix
    Trans. dipole moment [D]:             0.000385
      Cartesian components [D]:         [  0.000000,  -0.000385,  -0.000000]
    <r_h> [Ang]:                        [  0.000000,  -0.000000, -10.036820]
    <r_e> [Ang]:                        [  0.000000,   0.000000,   2.163367]
    |<r_e - r_h>| [Ang]:                 12.200187
    Hole size [Ang]:                      1.084242
      Cartesian components [Ang]:       [  0.624549,   0.624558,   0.628845]
    Electron size [Ang]:                  4.129394
      Cartesian components [Ang]:       [  1.889728,   3.273162,   1.663499]
    RMS electron-hole separation [Ang]:  12.925906
      Cartesian components [Ang]:       [  1.990260,   3.332219,  12.329405]
    Covariance(r_h, r_e) [Ang^2]:        -0.003509
    Correlation coefficient:             -0.000784
    Center-of-mass size [Ang]:            2.134271
      Cartesian components [Ang]:       [  0.995130,   1.666107,   0.888211]

  Decomposition into state-averaged NTOs
                   omega =   0.1%
  ----------------------------------------------------------------------------


  Excited state 5 (singlet, B2)                                    [converged]
  ----------------------------------------------------------------------------
  Term symbol:  5 (1) B2                                    R^2 =  1.61461e-07

  Total energy:                                            -78.6012388598 a.u.
  Excitation energy:                                               4.994245 eV

  Osc. strength:                                                      0.000000
  Trans. dip. moment [a.u.]:           [   0.000000,   -0.000263,   -0.000000]
  <i|r^2|0> [a.u.]:                    [   0.000000,    0.000000,   -0.000000]

  Dip. moment [a.u.]:                  [  -0.000000,    0.000000,  -24.241807]
  Total dipole [Debye]:                                              61.616538
  <r^2> [a.u.]:                        [  46.435119,   57.457566,  160.576688]
  Total <r^2> [a.u.]:                                               264.469372

  V1^2 = 0.0005, V2^2 = 0.9995

  Important amplitudes:
      occ i      occ j       vir a       vir b          v   
    ---------------------------------------------------------
     6 (A1) A   6 (A1) B    7 (A1) A    3 (B2) B      0.3535
     6 (A1) A               3 (B2) A                  0.0153
    ---------------------------------------------------------

  Density matrix analysis:
  ------------------------
  NOs
    Occupation of frontier NOs:
       1.0005   1.0029
    Number of electrons: 18.000000
    Number of unpaired electrons: n_u =  2.40208, n_u,nl =  2.04821
    NO participation ratio (PR_NO):  2.876806
  
  
  Mulliken Population Analysis
  Atom      Charge (e)              h+              e-           Del q
  --------------------------------------------------------------------
   1 C       -0.839141        0.000029       -0.665574       -0.665546
   2 C       -1.463094        0.000711       -1.289207       -1.288497
   3 H        0.071524       -0.000002       -0.009134       -0.009136
   4 H        0.079708        0.000003       -0.013320       -0.013317
   5 H        0.071524       -0.000002       -0.009134       -0.009136
   6 H        0.079708        0.000003       -0.013320       -0.013317
   7 H        0.999773        1.998957       -0.000010        1.998946
  --------------------------------------------------------------------
  Sum:       -1.000000        1.999700       -1.999700        0.000000
  
  Multipole moment analysis of the density matrix
    Molecular charge:                      -1.000000
    Number of electrons:                   18.000000
      Center of electronic charge [Ang]: [  0.000000,  -0.000000,   0.712678]
    Total nuclear charge:                  17.000000
      Center of nuclear charge [Ang]:    [ -0.000000,   0.000000,  -0.000000]
    Dipole moment [D]:                     61.616519
      Cartesian components [D]:          [ -0.000000,   0.000000, -61.616519]
    RMS size of the density [Ang]:         1.899073
      Cartesian components [Ang]:        [  0.849940,   0.945450,   1.410746]
  
  Exciton analysis of the difference density matrix
    <r_h> [Ang]:                  [  0.000000,  -0.000000, -10.034463]
    <r_e> [Ang]:                  [  0.000000,  -0.000000,   1.376055]
    |<r_e - r_h>| [Ang]:           11.410518
    Hole size [Ang]:                1.122738
      Cartesian components [Ang]: [  0.642373,   0.642368,   0.659743]
    Electron size [Ang]:            4.529448
      Cartesian components [Ang]: [  1.845319,   2.528512,   3.273733]

  Transition density matrix analysis:
  -----------------------------------
  
  CT numbers (Mulliken)
    omega =     0.0005
    <Phe> =     0.0002
  
  Exciton analysis of the transition density matrix
    Trans. dipole moment [D]:             0.000334
      Cartesian components [D]:         [  0.000000,  -0.000334,  -0.000000]
    <r_h> [Ang]:                        [  0.000000,  -0.000000, -10.037069]
    <r_e> [Ang]:                        [ -0.000000,  -0.000000,  -0.649961]
    |<r_e - r_h>| [Ang]:                  9.387108
    Hole size [Ang]:                      1.081511
      Cartesian components [Ang]:       [  0.623618,   0.623626,   0.625986]
    Electron size [Ang]:                  4.586502
      Cartesian components [Ang]:       [  1.829110,   3.167864,   2.766767]
    RMS electron-hole separation [Ang]:  10.503593
      Cartesian components [Ang]:       [  1.932496,   3.228785,   9.806420]
    Covariance(r_h, r_e) [Ang^2]:        -0.000998
    Correlation coefficient:             -0.000201
    Center-of-mass size [Ang]:            2.356039
      Cartesian components [Ang]:       [  0.966248,   1.614271,   1.418242]

  Decomposition into state-averaged NTOs
                   omega =   0.0%
  ----------------------------------------------------------------------------


  Excited state 6 (singlet, B2)                                    [converged]
  ----------------------------------------------------------------------------
  Term symbol:  6 (1) B2                                    R^2 =  2.67988e-08

  Total energy:                                            -78.5826599723 a.u.
  Excitation energy:                                               5.499802 eV

  Osc. strength:                                                      0.000000
  Trans. dip. moment [a.u.]:           [  -0.000000,    0.000394,    0.000000]
  <i|r^2|0> [a.u.]:                    [  -0.000000,   -0.000000,    0.000000]

  Dip. moment [a.u.]:                  [   0.000000,   -0.000000,  -19.104413]
  Total dipole [Debye]:                                              48.558584
  <r^2> [a.u.]:                        [  46.687645,   63.288944,  139.911305]
  Total <r^2> [a.u.]:                                               249.887894

  V1^2 = 0.0028, V2^2 = 0.9972

  Important amplitudes:
      occ i      occ j       vir a       vir b          v   
    ---------------------------------------------------------
     6 (A1) A   6 (A1) B    8 (A1) A    2 (B2) B      0.3530
     6 (A1) A               2 (B2) A                  0.0334
    ---------------------------------------------------------

  Density matrix analysis:
  ------------------------
  NOs
    Occupation of frontier NOs:
       1.0000   1.0004
    Number of electrons: 18.000000
    Number of unpaired electrons: n_u =  2.40811, n_u,nl =  2.04894
    NO participation ratio (PR_NO):  2.882374
  
  
  Mulliken Population Analysis
  Atom      Charge (e)              h+              e-           Del q
  --------------------------------------------------------------------
   1 C       -1.136474       -0.000339       -0.962540       -0.962878
   2 C       -1.236700        0.000860       -1.062962       -1.062103
   3 H        0.083253        0.000001        0.002593        0.002594
   4 H        0.104098       -0.000011        0.011085        0.011074
   5 H        0.083253        0.000001        0.002593        0.002594
   6 H        0.104098       -0.000011        0.011085        0.011074
   7 H        0.998472        1.997674       -0.000028        1.997646
  --------------------------------------------------------------------
  Sum:       -1.000000        1.998176       -1.998176        0.000000
  
  Multipole moment analysis of the density matrix
    Molecular charge:                      -1.000000
    Number of electrons:                   18.000000
      Center of electronic charge [Ang]: [ -0.000000,   0.000000,   0.561646]
    Total nuclear charge:                  17.000000
      Center of nuclear charge [Ang]:    [ -0.000000,   0.000000,  -0.000000]
    Dipole moment [D]:                     48.558570
      Cartesian components [D]:          [  0.000000,  -0.000000, -48.558570]
    RMS size of the density [Ang]:         1.889999
      Cartesian components [Ang]:        [  0.852248,   0.992268,   1.364249]
  
  Exciton analysis of the difference density matrix
    <r_h> [Ang]:                  [  0.000000,  -0.000000, -10.034616]
    <r_e> [Ang]:                  [ -0.000000,   0.000000,   0.024069]
    |<r_e - r_h>| [Ang]:           10.058685
    Hole size [Ang]:                1.124037
      Cartesian components [Ang]: [  0.641805,   0.641809,   0.663043]
    Electron size [Ang]:            4.506737
      Cartesian components [Ang]: [  1.855302,   2.685970,   3.107104]

  Transition density matrix analysis:
  -----------------------------------
  
  CT numbers (Mulliken)
    omega =     0.0028
    <Phe> =     0.0002
  
  Exciton analysis of the transition density matrix
    Trans. dipole moment [D]:             0.000501
      Cartesian components [D]:         [ -0.000000,   0.000501,   0.000000]
    <r_h> [Ang]:                        [  0.000000,  -0.000000, -10.036513]
    <r_e> [Ang]:                        [  0.000000,   0.000000,   1.593112]
    |<r_e - r_h>| [Ang]:                 11.629625
    Hole size [Ang]:                      1.083487
      Cartesian components [Ang]:       [  0.621997,   0.622019,   0.632579]
    Electron size [Ang]:                  3.519446
      Cartesian components [Ang]:       [  1.564829,   2.710133,   1.610277]
    RMS electron-hole separation [Ang]:  12.199573
      Cartesian components [Ang]:       [  1.683915,   2.780594,  11.758499]
    Covariance(r_h, r_e) [Ang^2]:        -0.010469
    Correlation coefficient:             -0.002745
    Center-of-mass size [Ang]:            1.839803
      Cartesian components [Ang]:       [  0.841958,   1.390301,   0.862002]

  Decomposition into state-averaged NTOs
                   omega =   0.3%
  ----------------------------------------------------------------------------


  Excited state 7 (singlet, B2)                                    [converged]
  ----------------------------------------------------------------------------
  Term symbol:  7 (1) B2                                    R^2 =  1.26057e-09

  Total energy:                                            -78.5729519376 a.u.
  Excitation energy:                                               5.763971 eV

  Osc. strength:                                                      0.000002
  Trans. dip. moment [a.u.]:           [  -0.000000,    0.004128,    0.000000]
  <i|r^2|0> [a.u.]:                    [  -0.000000,   -0.000000,    0.000000]

  Dip. moment [a.u.]:                  [   0.000000,    0.000000,   -1.223843]
  Total dipole [Debye]:                                               3.110698
  <r^2> [a.u.]:                        [  31.882024,   37.367167,  441.090501]
  Total <r^2> [a.u.]:                                               510.339693

  V1^2 = 0.9654, V2^2 = 0.0346

  Important amplitudes:
      occ i      occ j       vir a       vir b          v   
    ---------------------------------------------------------
     6 (A1) A               5 (B2) A                  0.6924
     6 (A1) A   6 (A1) B   19 (A1) A    5 (B2) B     -0.0427
    ---------------------------------------------------------

  Density matrix analysis:
  ------------------------
  NOs
    Occupation of frontier NOs:
       0.9874   1.0008
    Number of electrons: 18.000000
    Number of unpaired electrons: n_u =  2.42800, n_u,nl =  2.05340
    NO participation ratio (PR_NO):  2.966282
  
  
  Mulliken Population Analysis
  Atom      Charge (e)              h+              e-           Del q
  --------------------------------------------------------------------
   1 C       -0.598384        0.069175       -0.493964       -0.424789
   2 C       -0.614131        0.077926       -0.517459       -0.439533
   3 H        0.049855       -0.001369       -0.029435       -0.030804
   4 H        0.055593       -0.001329       -0.036102       -0.037431
   5 H        0.049855       -0.001369       -0.029435       -0.030804
   6 H        0.055593       -0.001329       -0.036102       -0.037431
   7 H        0.001619        1.020841       -0.020048        1.000793
  --------------------------------------------------------------------
  Sum:       -1.000000        1.162546       -1.162546        0.000000
  
  Multipole moment analysis of the density matrix
    Molecular charge:                      -1.000000
    Number of electrons:                   18.000000
      Center of electronic charge [Ang]: [ -0.000000,  -0.000000,   0.035979]
    Total nuclear charge:                  17.000000
      Center of nuclear charge [Ang]:    [ -0.000000,   0.000000,  -0.000000]
    Dipole moment [D]:                     3.110697
      Cartesian components [D]:          [  0.000000,   0.000000,  -3.110697]
    RMS size of the density [Ang]:         2.817469
      Cartesian components [Ang]:        [  0.704268,   0.762448,   2.619315]
  
  Exciton analysis of the difference density matrix
    <r_h> [Ang]:                  [  0.000000,  -0.000000,  -8.755311]
    <r_e> [Ang]:                  [ -0.000000,  -0.000000,   0.394457]
    |<r_e - r_h>| [Ang]:            9.149768
    Hole size [Ang]:                3.674411
      Cartesian components [Ang]: [  0.720898,   0.719901,   3.530347]
    Electron size [Ang]:            3.522147
      Cartesian components [Ang]: [  1.470281,   2.442634,   2.068171]

  Transition density matrix analysis:
  -----------------------------------
  
  CT numbers (Mulliken)
    omega =     0.9578
    <Phe> =     0.0003
  
  Exciton analysis of the transition density matrix
    Trans. dipole moment [D]:             0.005246
      Cartesian components [D]:         [ -0.000000,   0.005246,   0.000000]
    <r_h> [Ang]:                        [ -0.000000,  -0.000000, -10.032628]
    <r_e> [Ang]:                        [  0.000000,  -0.000000,   0.616749]
    |<r_e - r_h>| [Ang]:                 10.649377
    Hole size [Ang]:                      1.128582
      Cartesian components [Ang]:       [  0.641908,   0.641935,   0.670501]
    Electron size [Ang]:                  3.388667
      Cartesian components [Ang]:       [  1.512224,   2.617414,   1.531465]
    RMS electron-hole separation [Ang]:  11.234025
      Cartesian components [Ang]:       [  1.642823,   2.694981,  10.781536]
    Covariance(r_h, r_e) [Ang^2]:        -0.018665
    Correlation coefficient:             -0.004881
    Center-of-mass size [Ang]:            1.783216
      Cartesian components [Ang]:       [  0.821411,   1.347493,   0.830303]

  Decomposition into state-averaged NTOs
    H- 0 -> L+ 2:  0.6491 ( 84.3%)
    H- 0 -> L+ 0: -0.1882 (  7.1%)
    H- 0 -> L+ 1:  0.1482 (  4.4%)
                   omega =  95.8%
  ----------------------------------------------------------------------------


  Excited state 8 (singlet, B2)                                    [converged]
  ----------------------------------------------------------------------------
  Term symbol:  8 (1) B2                                    R^2 =  9.73134e-08

  Total energy:                                            -78.5613164895 a.u.
  Excitation energy:                                               6.080588 eV

  Osc. strength:                                                      0.000000
  Trans. dip. moment [a.u.]:           [   0.000000,   -0.000505,   -0.000000]
  <i|r^2|0> [a.u.]:                    [   0.000000,    0.000000,   -0.000000]

  Dip. moment [a.u.]:                  [   0.000000,    0.000000,  -13.953059]
  Total dipole [Debye]:                                              35.465145
  <r^2> [a.u.]:                        [  44.140971,   55.613364,  139.534088]
  Total <r^2> [a.u.]:                                               239.288423

  V1^2 = 0.0024, V2^2 = 0.9976

  Important amplitudes:
      occ i      occ j       vir a       vir b          v   
    ---------------------------------------------------------
     6 (A1) A   6 (A1) B    8 (A1) A    3 (B2) B      0.3531
     6 (A1) A               3 (B2) A                  0.0339
    ---------------------------------------------------------

  Density matrix analysis:
  ------------------------
  NOs
    Occupation of frontier NOs:
       1.0005   1.0028
    Number of electrons: 18.000000
    Number of unpaired electrons: n_u =  2.40228, n_u,nl =  2.04819
    NO participation ratio (PR_NO):  2.877009
  
  
  Mulliken Population Analysis
  Atom      Charge (e)              h+              e-           Del q
  --------------------------------------------------------------------
   1 C        0.579698       -0.000472        0.753765        0.753294
   2 C       -2.952182        0.000837       -2.778421       -2.777585
   3 H        0.082789        0.000005        0.002124        0.002129
   4 H        0.103969       -0.000006        0.010951        0.010945
   5 H        0.082789        0.000005        0.002124        0.002129
   6 H        0.103969       -0.000006        0.010951        0.010945
   7 H        0.998969        1.998171       -0.000029        1.998143
  --------------------------------------------------------------------
  Sum:       -1.000000        1.998535       -1.998535        0.000000
  
  Multipole moment analysis of the density matrix
    Molecular charge:                      -1.000000
    Number of electrons:                   18.000000
      Center of electronic charge [Ang]: [ -0.000000,  -0.000000,   0.410202]
    Total nuclear charge:                  17.000000
      Center of nuclear charge [Ang]:    [ -0.000000,   0.000000,  -0.000000]
    Dipole moment [D]:                     35.465135
      Cartesian components [D]:          [  0.000000,   0.000000, -35.465135]
    RMS size of the density [Ang]:         1.885306
      Cartesian components [Ang]:        [  0.828678,   0.930153,   1.415092]
  
  Exciton analysis of the difference density matrix
    <r_h> [Ang]:                  [ -0.000000,  -0.000000, -10.035347]
    <r_e> [Ang]:                  [ -0.000000,   0.000000,  -1.342458]
    |<r_e - r_h>| [Ang]:            8.692888
    Hole size [Ang]:                1.120517
      Cartesian components [Ang]: [  0.641777,   0.641799,   0.657096]
    Electron size [Ang]:            4.128600
      Cartesian components [Ang]: [  1.756341,   2.477443,   2.796941]

  Transition density matrix analysis:
  -----------------------------------
  
  CT numbers (Mulliken)
    omega =     0.0024
    <Phe> =     0.0002
  
  Exciton analysis of the transition density matrix
    Trans. dipole moment [D]:             0.000642
      Cartesian components [D]:         [  0.000000,  -0.000642,  -0.000000]
    <r_h> [Ang]:                        [  0.000000,  -0.000000, -10.037630]
    <r_e> [Ang]:                        [ -0.000000,  -0.000000,  -0.686446]
    |<r_e - r_h>| [Ang]:                  9.351185
    Hole size [Ang]:                      1.072465
      Cartesian components [Ang]:       [  0.617911,   0.617921,   0.621724]
    Electron size [Ang]:                  4.611777
      Cartesian components [Ang]:       [  1.846866,   3.198512,   2.761720]
    RMS electron-hole separation [Ang]:  10.481821
      Cartesian components [Ang]:       [  1.947493,   3.257682,   9.770535]
    Covariance(r_h, r_e) [Ang^2]:        -0.002624
    Correlation coefficient:             -0.000531
    Center-of-mass size [Ang]:            2.367141
      Cartesian components [Ang]:       [  0.973746,   1.628812,   1.414972]

  Decomposition into state-averaged NTOs
                   omega =   0.2%
  ----------------------------------------------------------------------------


  Excited state 9 (singlet, B2)                                    [converged]
  ----------------------------------------------------------------------------
  Term symbol:  9 (1) B2                                    R^2 =  1.49005e-08

  Total energy:                                            -78.5585812525 a.u.
  Excitation energy:                                               6.155017 eV

  Osc. strength:                                                      0.000000
  Trans. dip. moment [a.u.]:           [   0.000000,   -0.000112,   -0.000000]
  <i|r^2|0> [a.u.]:                    [   0.000000,    0.000000,   -0.000000]

  Dip. moment [a.u.]:                  [   0.000000,   -0.000000,  -24.467661]
  Total dipole [Debye]:                                              62.190603
  <r^2> [a.u.]:                        [  46.492705,   66.201321,  109.405092]
  Total <r^2> [a.u.]:                                               222.099117

  V1^2 = 0.0001, V2^2 = 0.9999

  Important amplitudes:
      occ i      occ j       vir a       vir b          v   
    ---------------------------------------------------------
     6 (A1) A   6 (A1) B    9 (A1) A    2 (B2) B     -0.3535
     6 (A1) A               2 (B2) A                 -0.0073
    ---------------------------------------------------------

  Density matrix analysis:
  ------------------------
  NOs
    Occupation of frontier NOs:
       1.0010   1.0029
    Number of electrons: 18.000000
    Number of unpaired electrons: n_u =  2.40098, n_u,nl =  2.04877
    NO participation ratio (PR_NO):  2.875400
  
  
  Mulliken Population Analysis
  Atom      Charge (e)              h+              e-           Del q
  --------------------------------------------------------------------
   1 C       -3.238482        0.000317       -3.065203       -3.064886
   2 C        0.607729        0.000434        0.781892        0.782326
   3 H        0.164541       -0.000001        0.083883        0.083882
   4 H        0.150840        0.000010        0.057805        0.057816
   5 H        0.164541       -0.000001        0.083883        0.083882
   6 H        0.150840        0.000010        0.057805        0.057816
   7 H        0.999991        1.999165       -0.000000        1.999165
  --------------------------------------------------------------------
  Sum:       -1.000000        1.999934       -1.999934       -0.000000
  
  Multipole moment analysis of the density matrix
    Molecular charge:                      -1.000000
    Number of electrons:                   18.000000
      Center of electronic charge [Ang]: [ -0.000000,   0.000000,   0.719318]
    Total nuclear charge:                  17.000000
      Center of nuclear charge [Ang]:    [ -0.000000,   0.000000,  -0.000000]
    Dipole moment [D]:                     62.190585
      Cartesian components [D]:          [  0.000000,  -0.000000, -62.190585]
    RMS size of the density [Ang]:         1.714004
      Cartesian components [Ang]:        [  0.850467,   1.014841,   1.088399]
  
  Exciton analysis of the difference density matrix
    <r_h> [Ang]:                  [  0.000000,  -0.000000, -10.034651]
    <r_e> [Ang]:                  [ -0.000000,   0.000000,   1.434289]
    |<r_e - r_h>| [Ang]:           11.468940
    Hole size [Ang]:                1.120242
      Cartesian components [Ang]: [  0.642421,   0.642406,   0.655403]
    Electron size [Ang]:            3.798304
      Cartesian components [Ang]: [  1.847424,   2.759893,   1.843131]

  Transition density matrix analysis:
  -----------------------------------
  
  CT numbers (Mulliken)
    omega =     0.0001
    <Phe> =     0.0002
  
  Exciton analysis of the transition density matrix
    Trans. dipole moment [D]:             0.000142
      Cartesian components [D]:         [  0.000000,  -0.000142,  -0.000000]
    <r_h> [Ang]:                        [  0.000000,  -0.000000, -10.036013]
    <r_e> [Ang]:                        [  0.000000,   0.000000,   1.884350]
    |<r_e - r_h>| [Ang]:                 11.920363
    Hole size [Ang]:                      1.082007
      Cartesian components [Ang]:       [  0.617895,   0.617969,   0.638011]
    Electron size [Ang]:                  4.118046
      Cartesian components [Ang]:       [  1.837957,   3.183426,   1.856346]
    RMS electron-hole separation [Ang]:  12.659959
      Cartesian components [Ang]:       [  1.939041,   3.242864,  12.082985]
    Covariance(r_h, r_e) [Ang^2]:        -0.025240
    Correlation coefficient:             -0.005665
    Center-of-mass size [Ang]:            2.125945
      Cartesian components [Ang]:       [  0.969520,   1.621420,   0.975023]

  Decomposition into state-averaged NTOs
                   omega =   0.0%
  ----------------------------------------------------------------------------


  Excited state 10 (singlet, B2)                                    [converged]
  ----------------------------------------------------------------------------
  Term symbol:  10 (1) B2                                   R^2 =  8.35695e-07

  Total energy:                                            -78.5372777053 a.u.
  Excitation energy:                                               6.734716 eV

  Osc. strength:                                                      0.000000
  Trans. dip. moment [a.u.]:           [   0.000000,   -0.000113,   -0.000000]
  <i|r^2|0> [a.u.]:                    [   0.000000,    0.000000,   -0.000000]

  Dip. moment [a.u.]:                  [   0.000000,    0.000000,  -19.309517]
  Total dipole [Debye]:                                              49.079906
  <r^2> [a.u.]:                        [  43.931689,   58.507001,  109.180721]
  Total <r^2> [a.u.]:                                               211.619412

  V1^2 = 0.0001, V2^2 = 0.9999

  Important amplitudes:
      occ i      occ j       vir a       vir b          v   
    ---------------------------------------------------------
     6 (A1) A   6 (A1) B    9 (A1) A    3 (B2) B      0.3535
     6 (A1) A               3 (B2) A                  0.0059
    ---------------------------------------------------------

  Density matrix analysis:
  ------------------------
  NOs
    Occupation of frontier NOs:
       1.0029   1.0029
    Number of electrons: 18.000000
    Number of unpaired electrons: n_u =  2.39729, n_u,nl =  2.04803
    NO participation ratio (PR_NO):  2.872194
  
  
  Mulliken Population Analysis
  Atom      Charge (e)              h+              e-           Del q
  --------------------------------------------------------------------
   1 C       -1.523554        0.000183       -1.350142       -1.349959
   2 C       -1.106139        0.000556       -0.932098       -0.931542
   3 H        0.164140        0.000001        0.083480        0.083481
   4 H        0.150699        0.000010        0.057665        0.057675
   5 H        0.164140        0.000001        0.083480        0.083481
   6 H        0.150699        0.000010        0.057665        0.057675
   7 H        1.000014        1.999189       -0.000001        1.999188
  --------------------------------------------------------------------
  Sum:       -1.000000        1.999950       -1.999950       -0.000000
  
  Multipole moment analysis of the density matrix
    Molecular charge:                      -1.000000
    Number of electrons:                   18.000000
      Center of electronic charge [Ang]: [ -0.000000,  -0.000000,   0.567675]
    Total nuclear charge:                  17.000000
      Center of nuclear charge [Ang]:    [ -0.000000,   0.000000,  -0.000000]
    Dipole moment [D]:                     49.079891
      Cartesian components [D]:          [  0.000000,   0.000000, -49.079891]
    RMS size of the density [Ang]:         1.723351
      Cartesian components [Ang]:        [  0.826711,   0.954045,   1.173152]
  
  Exciton analysis of the difference density matrix
    <r_h> [Ang]:                  [  0.000000,  -0.000000, -10.034701]
    <r_e> [Ang]:                  [ -0.000000,  -0.000000,   0.069327]
    |<r_e - r_h>| [Ang]:           10.104028
    Hole size [Ang]:                1.120016
      Cartesian components [Ang]: [  0.642434,   0.642415,   0.654993]
    Electron size [Ang]:            3.874703
      Cartesian components [Ang]: [  1.747679,   2.557269,   2.327943]

  Transition density matrix analysis:
  -----------------------------------
  
  CT numbers (Mulliken)
    omega =     0.0001
    <Phe> =     0.0002
  
  Exciton analysis of the transition density matrix
    Trans. dipole moment [D]:             0.000144
      Cartesian components [D]:         [  0.000000,  -0.000144,  -0.000000]
    <r_h> [Ang]:                        [  0.000000,  -0.000000, -10.036492]
    <r_e> [Ang]:                        [  0.000000,  -0.000000,  -0.687537]
    |<r_e - r_h>| [Ang]:                  9.348955
    Hole size [Ang]:                      1.073134
      Cartesian components [Ang]:       [  0.613184,   0.613288,   0.632059]
    Electron size [Ang]:                  4.464720
      Cartesian components [Ang]:       [  1.814012,   3.141443,   2.602772]
    RMS electron-hole separation [Ang]:  10.417408
      Cartesian components [Ang]:       [  1.914845,   3.200733,   9.726822]
    Covariance(r_h, r_e) [Ang^2]:        -0.017045
    Correlation coefficient:             -0.003558
    Center-of-mass size [Ang]:            2.294082
      Cartesian components [Ang]:       [  0.957423,   1.600381,   1.336014]

  Decomposition into state-averaged NTOs
                   omega =   0.0%
  ----------------------------------------------------------------------------


--------------------------------------------------------------------------------
  Time of ADC calculation:  CPU 181.24 s  wall 53.14 s
================================================================================
 
 --------------------------------------------------------------
             Orbital Energies (a.u.) and Symmetries
 --------------------------------------------------------------
 
 Alpha MOs, Restricted
 -- Occupied --                  
-11.187 -11.185  -0.992  -0.732  -0.611  -0.517  -0.465  -0.327
  1 A1    2 A1    3 A1    4 A1    1 B1    5 A1    2 B1    1 B2                 
  0.022
  6 A1                                                                         
 -- Virtual --                   
  0.098   0.101   0.108   0.129   0.129   0.137   0.162   0.198
  7 A1    3 B1    2 B2    3 B2    4 B1    8 A1    9 A1    4 B2                 
  0.250   0.271   0.283   0.292   0.299   0.302   0.319   0.378
 10 A1    5 B1   11 A1    6 B1    5 B2   12 A1   13 A1    6 B2                 
  0.391   0.404   0.573   0.625   0.816   0.901   0.919   0.944
  7 B1   14 A1    8 B1   15 A1   16 A1    9 B1   17 A1   10 B1                 
  0.978   1.007   1.054   1.058   1.070   1.083   1.120   1.164
 18 A1    7 B2    8 B2   19 A1   20 A1   21 A1   11 B1    1 A2                 
  1.334   1.335   1.341   1.404   1.662   1.667   1.759   1.909
  2 A2    9 B2   22 A1   12 B1   23 A1   13 B1   14 B1   10 B2                 
  1.967   1.967   1.967   1.977   1.991   2.067   2.069   2.116
 24 A1   15 B1   11 B2   25 A1   12 B2    3 A2   26 A1   16 B1                 
  2.225   2.372   2.462   2.502   2.621   2.624   2.850   2.858
 13 B2   27 A1    4 A2   28 A1   29 A1   17 B1   18 B1   30 A1                 
  3.287   3.390
 31 A1   19 B1                                                                 
 
 Beta MOs, Restricted
 -- Occupied --                  
-11.187 -11.185  -0.992  -0.732  -0.611  -0.517  -0.465  -0.327
  1 A1    2 A1    3 A1    4 A1    1 B1    5 A1    2 B1    1 B2                 
  0.022
  6 A1                                                                         
 -- Virtual --                   
  0.098   0.101   0.108   0.129   0.129   0.137   0.162   0.198
  7 A1    3 B1    2 B2    3 B2    4 B1    8 A1    9 A1    4 B2                 
  0.250   0.271   0.283   0.292   0.299   0.302   0.319   0.378
 10 A1    5 B1   11 A1    6 B1    5 B2   12 A1   13 A1    6 B2                 
  0.391   0.404   0.573   0.625   0.816   0.901   0.919   0.944
  7 B1   14 A1    8 B1   15 A1   16 A1    9 B1   17 A1   10 B1                 
  0.978   1.007   1.054   1.058   1.070   1.083   1.120   1.164
 18 A1    7 B2    8 B2   19 A1   20 A1   21 A1   11 B1    1 A2                 
  1.334   1.335   1.341   1.404   1.662   1.667   1.759   1.909
  2 A2    9 B2   22 A1   12 B1   23 A1   13 B1   14 B1   10 B2                 
  1.967   1.967   1.967   1.977   1.991   2.067   2.069   2.116
 24 A1   15 B1   11 B2   25 A1   12 B2    3 A2   26 A1   16 B1                 
  2.225   2.372   2.462   2.502   2.621   2.624   2.850   2.858
 13 B2   27 A1    4 A2   28 A1   29 A1   17 B1   18 B1   30 A1                 
  3.287   3.390
 31 A1   19 B1                                                                 
 --------------------------------------------------------------
 
          Ground-State Mulliken Net Atomic Charges

     Atom                 Charge (a.u.)
  ----------------------------------------
      1 C                    -0.163220
      2 C                    -0.155984
      3 H                     0.073392
      4 H                     0.085819
      5 H                     0.073392
      6 H                     0.085819
      7 H                    -0.999217
  ----------------------------------------
  Sum of atomic charges =    -1.000000

 -----------------------------------------------------------------
                    Cartesian Multipole Moments
 -----------------------------------------------------------------
    Charge (ESU x 10^10)
                -4.8032
    Dipole Moment (Debye)
         X      -0.0000      Y       0.0000      Z      47.9678
       Tot      47.9678
    Quadrupole Moments (Debye-Ang)
        XX     -15.9344     XY      -0.0000     YY     -20.0940
        XZ       0.0000     YZ       0.0000     ZZ    -500.7099
    Octopole Moments (Debye-Ang^2)
       XXX      -0.0000    XXY       0.0000    XYY      -0.0000
       YYY       0.0000    XXZ      31.9741    XYZ       0.0000
       YYZ      29.3973    XZZ      -0.0000    YZZ       0.0000
       ZZZ    4947.2555
    Hexadecapole Moments (Debye-Ang^3)
      XXXX     -32.9386   XXXY      -0.0000   XXYY     -10.9533
      XYYY      -0.0000   YYYY     -27.4772   XXXZ      -0.0000
      XXYZ       0.0000   XYYZ      -0.0000   YYYZ       0.0000
      XXZZ    -418.5079   XYZZ       0.0000   YYZZ    -422.4235
      XZZZ       0.0000   YZZZ      -0.0000   ZZZZ  -51207.9649
 -----------------------------------------------------------------
 Total job time:  135.83s(wall), 227.59s(cpu) 
 Fri Mar 25 16:43:15 2022

        *************************************************************
        *                                                           *
        *  Thank you very much for using Q-Chem.  Have a nice day.  *
        *                                                           *
        *************************************************************


