/src/tsommerfeld/qchem/exe/qcprog.exe .input0.766667.16749.qcin.1 /src/jdavis/qchem.scratch/qchem16749/

                  Welcome to Q-Chem
     A Quantum Leap Into The Future Of Chemistry


 Q-Chem 5.4 (devel), Q-Chem, Inc., Pleasanton, CA (2021)

 E. Epifanovsky,  A. T. B. Gilbert,  Xintian Feng,  Joonho Lee,  Yuezhi Mao,  
 N. Mardirossian,  P. Pokhilko,  A. White,  M. Wormit,  M. P. Coons,  
 A. L. Dempwolff,  Zhengting Gan,  D. Hait,  P. R. Horn,  L. D. Jacobson,  
 I. Kaliman,  J. Kussmann,  A. W. Lange,  Ka Un Lao,  D. S. Levine,  Jie Liu,  
 S. C. McKenzie,  A. F. Morrison,  K. Nanda,  F. Plasser,  D. R. Rehn,  
 M. L. Vidal,  Zhi-Qiang You,  Ying Zhu,  B. Alam,  B. Albrecht,  
 A. Aldossary,  E. Alguire,  J. H. Andersen,  D. Barton,  K. Begam,  A. Behn,  
 Y. A. Bernard,  E. J. Berquist,  H. Burton,  A. Carreras,  K. Carter-Fenk,  
 R. Chakraborty,  A. D. Chien,  K. D. Closser,  V. Cofer-Shabica,  
 S. Dasgupta,  Jia Deng,  M. de Wergifosse,  M. Diedenhofen,  Hainam Do,  
 S. Ehlert,  Po-Tung Fang,  S. Fatehi,  Qingguo Feng,  T. Friedhoff,  
 J. Gayvert,  Qinghui Ge,  G. Gidofalvi,  M. Goldey,  J. Gomes,  
 C. Gonzalez-Espinoza,  S. Gulania,  A. Gunina,  M. W. D. Hanson-Heine,  
 P. H. P. Harbach,  A. W. Hauser,  M. F. Herbst,  M. Hernandez Vera,  
 M. Hodecker,  Z. C. Holden,  S. Houck,  Xunkun Huang,  Kerwin Hui,  
 B. C. Huynh,  M. Ivanov,  Hyunjun Ji,  Hanjie Jiang,  B. Kaduk,  S. Kaehler,  
 K. Khistyaev,  Jaehoon Kim,  P. Klunzinger,  Z. Koczor-Benda,  
 Joong Hoon Koh,  D. Kosenkov,  L. Koulias,  T. Kowalczyk,  C. M. Krauter,  
 K. Kue,  A. Kunitsa,  T. Kus,  A. Landau,  K. V. Lawler,  D. Lefrancois,  
 S. Lehtola,  Rain Li,  Yi-Pei Li,  Jiashu Liang,  M. Liebenthal,  
 Hung-Hsuan Lin,  You-Sheng Lin,  Fenglai Liu,  Kuan-Yu Liu,  
 M. Loipersberger,  A. Luenser,  A. Manjanath,  P. Manohar,  E. Mansoor,  
 S. F. Manzer,  Shan-Ping Mao,  A. V. Marenich,  T. Markovich,  S. Mason,  
 S. A. Maurer,  P. F. McLaughlin,  M. F. S. J. Menger,  J.-M. Mewes,  
 S. A. Mewes,  P. Morgante,  J. W. Mullinax,  K. J. Oosterbaan,  G. Paran,  
 Alexander C. Paul,  Suranjan K. Paul,  F. Pavosevic,  Zheng Pei,  S. Prager,  
 E. I. Proynov,  E. Ramos,  B. Rana,  A. E. Rask,  A. Rettig,  R. M. Richard,  
 F. Rob,  E. Rossomme,  T. Scheele,  M. Scheurer,  M. Schneider,  
 N. Sergueev,  S. M. Sharada,  W. Skomorowski,  D. W. Small,  C. J. Stein,  
 Yu-Chuan Su,  E. J. Sundstrom,  Zhen Tao,  J. Thirman,  T. Tsuchimochi,  
 N. M. Tubman,  S. P. Veccham,  O. Vydrov,  J. Wenzel,  J. Witte,  A. Yamada,  
 Kun Yao,  S. Yeganeh,  S. R. Yost,  A. Zech,  Igor Ying Zhang,  Xing Zhang,  
 Yu Zhang,  D. Zuev,  A. Aspuru-Guzik,  A. T. Bell,  N. A. Besley,  
 K. B. Bravaya,  B. R. Brooks,  D. Casanova,  Jeng-Da Chai,  S. Coriani,  
 C. J. Cramer,  A. E. DePrince, III,  R. A. DiStasio Jr.,  A. Dreuw,  
 B. D. Dunietz,  T. R. Furlani,  W. A. Goddard III,  S. Grimme,  
 S. Hammes-Schiffer,  T. Head-Gordon,  W. J. Hehre,  Chao-Ping Hsu,  
 T.-C. Jagau,  Yousung Jung,  A. Klamt,  Jing Kong,  D. S. Lambrecht,  
 WanZhen Liang,  N. J. Mayhall,  C. W. McCurdy,  J. B. Neaton,  
 C. Ochsenfeld,  J. A. Parkhill,  R. Peverati,  V. A. Rassolov,  Yihan Shao,  
 L. V. Slipchenko,  T. Stauch,  R. P. Steele,  J. E. Subotnik,  
 A. J. W. Thom,  A. Tkatchenko,  D. G. Truhlar,  T. Van Voorhis,  
 T. A. Wesolowski,  K. B. Whaley,  H. L. Woodcock III,  P. M. Zimmerman,  
 S. Faraji,  P. M. W. Gill,  M. Head-Gordon,  J. M. Herbert,  A. I. Krylov

 Additional authors for Version 5.4.1: 
 S. Kotaru,  Shaozhi Li,  Xiangyuan Li,  F. Matz,  A. Molle,  Haisheng Ren,  
 Yingli Su,  Hung-Yi Tsai,  C. Utku,  Fang Wang

 Contributors to earlier versions of Q-Chem not listed above: 
 R. D. Adamson,  B. Austin,  R. Baer,  J. Baker,  G. J. O. Beran,  
 K. Brandhorst,  S. T. Brown,  E. F. C. Byrd,  A. K. Chakraborty,  
 G. K. L. Chan,  Chun-Min Chang,  Yunqing Chen,  C.-L. Cheng,  
 Siu Hung Chien,  D. M. Chipman,  D. L. Crittenden,  H. Dachsel,  
 R. J. Doerksen,  A. D. Dutoi,  R. G. Edgar,  J. Fosso-Tande,  
 L. Fusti-Molnar,  D. Ghosh,  A. Ghysels,  A. Golubeva-Zadorozhnaya,  
 J. Gonthier,  M. S. Gordon,  S. R. Gwaltney,  G. Hawkins,  J. E. Herr,  
 A. Heyden,  S. Hirata,  E. G. Hohenstein,  G. Kedziora,  F. J. Keil,  
 C. Kelley,  Jihan Kim,  R. A. King,  R. Z. Khaliullin,  P. P. Korambath,  
 W. Kurlancheek,  A. Laurent,  A. M. Lee,  M. S. Lee,  S. V. Levchenko,  
 Ching Yeh Lin,  D. Liotard,  E. Livshits,  R. C. Lochan,  I. Lotan,  
 L. A. Martinez-Martinez,  P. E. Maslen,  N. Nair,  D. P. O'Neill,  
 D. Neuhauser,  E. Neuscamman,  C. M. Oana,  R. Olivares-Amaya,  R. Olson,  
 T. M. Perrine,  B. Peters,  P. A. Pieniazek,  A. Prociuk,  Y. M. Rhee,  
 J. Ritchie,  M. A. Rohrdanz,  E. Rosta,  N. J. Russ,  H. F. Schaefer III,  
 M. W. Schmidt,  N. E. Schultz,  S. Sharma,  N. Shenvi,  C. D. Sherrill,  
 A. C. Simmonett,  A. Sodt,  T. Stein,  D. Stuck,  K. S. Thanthiriwatte,  
 V. Vanovschi,  L. Vogt,  Tao Wang,  A. Warshel,  M. A. Watson,  
 C. F. Williams,  Q. Wu,  X. Xu,  Jun Yang,  W. Zhang,  Yan Zhao

 Please cite Q-Chem as follows:
 Y. Shao et al., Mol. Phys. 113, 184-215 (2015)
 DOI: 10.1080/00268976.2014.952696

 Q-Chem 5.4.1 for Intel X86 EM64T Linux

 Parts of Q-Chem use Armadillo 9.900.5 (Nocturnal Misbehaviour).
 http://arma.sourceforge.net/

 Q-Chem begins on Mon Mar 28 17:23:07 2022  

 Host: node01
0

     Scratch files written to /src/jdavis/qchem.scratch/qchem16749//
 Processing $rem in /src/tsommerfeld/qchem/config/preferences:
 Processing $rem in /home/jdavis/.qchemrc:

 Checking the input file for inconsistencies... 	...done.

--------------------------------------------------------------
User input:
--------------------------------------------------------------
$molecule
-1 1
C        -0.6645000000    0.0000000000   -0.1764707059
C         0.6645000000    0.0000000000   -0.1764707059
H        -1.1590800000    0.0000000000    0.7858782941
H         1.1590800000    0.0000000000    0.7858782941
H        -1.1590800000    0.0000000000   -1.1388187059
H         1.1590800000    0.0000000000   -1.1388187059
H         0.0000000000    0.0000000000    2.8235292941
$end

$rem
   METHOD adc(3)
   BASIS gen
   PURECART 11
   EE_STATES [0,10,0,0]
   scf_convergence 8
   ADC_DAVIDSON_MAXITER 120
   ADC_DAVIDSON_MAXSUBSPACE 200
   adc_nguess_singles 100
   THRESH 14
   S2THRESH 14
   adc_davidson_conv 5
   adc_davidson_thresh 14
   THREADS 10
   MEM_TOTAL 95000
   STATE_ANALYSIS TRUE
$end
$basis
C 1
S   9   1.00
      6.665000D+03           6.920000D-04
      1.000000D+03           5.329000D-03
      2.280000D+02           2.707700D-02
      6.471000D+01           1.017180D-01
      2.106000D+01           2.747400D-01
      7.495000D+00           4.485640D-01
      2.797000D+00           2.850740D-01
      5.215000D-01           1.520400D-02
      1.596000D-01          -3.191000D-03
S   9   1.00
      6.665000D+03          -1.460000D-04
      1.000000D+03          -1.154000D-03
      2.280000D+02          -5.725000D-03
      6.471000D+01          -2.331200D-02
      2.106000D+01          -6.395500D-02
      7.495000D+00          -1.499810D-01
      2.797000D+00          -1.272620D-01
      5.215000D-01           5.445290D-01
      1.596000D-01           5.804960D-01
S   1   1.00
      1.596000D-01           1.000000D+00
S   1   1.00
      0.0469000              1.0000000
P   4   1.00
      9.439000D+00           3.810900D-02
      2.002000D+00           2.094800D-01
      5.456000D-01           5.085570D-01
      1.517000D-01           4.688420D-01
P   1   1.00
      1.517000D-01           1.000000D+00
P   1   1.00
      0.0775356      1.0000000
P   1   1.00
      0.0387678      1.0000000
D   1   1.00
      5.500000D-01           1.0000000
****
C 2
S   9   1.00
      6.665000D+03           6.920000D-04
      1.000000D+03           5.329000D-03
      2.280000D+02           2.707700D-02
      6.471000D+01           1.017180D-01
      2.106000D+01           2.747400D-01
      7.495000D+00           4.485640D-01
      2.797000D+00           2.850740D-01
      5.215000D-01           1.520400D-02
      1.596000D-01          -3.191000D-03
S   9   1.00
      6.665000D+03          -1.460000D-04
      1.000000D+03          -1.154000D-03
      2.280000D+02          -5.725000D-03
      6.471000D+01          -2.331200D-02
      2.106000D+01          -6.395500D-02
      7.495000D+00          -1.499810D-01
      2.797000D+00          -1.272620D-01
      5.215000D-01           5.445290D-01
      1.596000D-01           5.804960D-01
S   1   1.00
      1.596000D-01           1.000000D+00
S   1   1.00
      0.0469000              1.0000000
P   4   1.00
      9.439000D+00           3.810900D-02
      2.002000D+00           2.094800D-01
      5.456000D-01           5.085570D-01
      1.517000D-01           4.688420D-01
P   1   1.00
      1.517000D-01           1.000000D+00
P   1   1.00
      0.0775356      1.0000000
P   1   1.00
      0.0387678      1.0000000
D   1   1.00
      5.500000D-01           1.0000000
****
H 3
cc-pVDZ
****
H 4
cc-pVDZ
****
H 5
cc-pVDZ
****
H 6
cc-pVDZ
****
H 7
aug-cc-pVDZ
****
$end
--------------------------------------------------------------
 ----------------------------------------------------------------
             Standard Nuclear Orientation (Angstroms)
    I     Atom           X                Y                Z
 ----------------------------------------------------------------
    1      C      -0.6645000000    -0.0000000000    -0.1764707059
    2      C       0.6645000000     0.0000000000    -0.1764707059
    3      H      -1.1590800000    -0.0000000000     0.7858782941
    4      H       1.1590800000     0.0000000000     0.7858782941
    5      H      -1.1590800000    -0.0000000000    -1.1388187059
    6      H       1.1590800000     0.0000000000    -1.1388187059
    7      H       0.0000000000     0.0000000000     2.8235292941
 ----------------------------------------------------------------
 Molecular Point Group                 C2v   NOp =  4
 Largest Abelian Subgroup              C2v   NOp =  4
 Nuclear Repulsion Energy =          36.36366470 hartrees
 There are        9 alpha and        9 beta electrons
 Requested basis set is non-standard
 There are 33 shells and 67 basis functions
 Total memory of 95000 MB is distributed as follows: 
   MEM_STATIC is set to 192 MB
   QALLOC/CCMAN JOB total memory use is  94808 MB
 Warning: actual memory use might exceed 95000 MB

 Total QAlloc Memory Limit  95000 MB
 Mega-Array Size       188 MB
 MEM_STATIC part       192 MB

                       Distance Matrix (Angstroms)
             C (  1)   C (  2)   H (  3)   H (  4)   H (  5)   H (  6)
   C (  2)  1.329000
   H (  3)  1.082000  2.061931
   H (  4)  2.061931  1.082000  2.318160
   H (  5)  1.082000  2.061931  1.924697  3.013026
   H (  6)  2.061931  1.082000  3.013026  1.924697  2.318160
   H (  7)  3.072712  3.072712  2.344246  2.344246  4.128398  4.128398

 
 A cutoff of  1.0D-14 yielded    561 shell pairs
 There are      2337 function pairs (      2484 Cartesian)
 Smallest overlap matrix eigenvalue = 2.46E-04

 Scale SEOQF with 1.000000e-01/1.000000e-01/1.000000e-01

 Standard Electronic Orientation quadrupole field applied
 Nucleus-field energy     =    -0.0000000009 hartrees
 ================ Generating on-the-fly SAD Guess ================
Attempting to make child job directory: /src/jdavis/qchem.scratch/qchem16749//Frg1/
Attempting to make child job directory: /src/jdavis/qchem.scratch/qchem16749//Frg2/
Creating input file /src/jdavis/qchem.scratch/qchem16749/Frg1.input
using default PutDataFrgm: nothing
calling putenv with: QCSCRATCH=/src/jdavis/qchem.scratch/qchem16749/ 
Spawning Job For Fragment 0
Done Job For Fragment 0
calling putenv with: QCSCRATCH=/src/jdavis/qchem.scratch 
calling putenv with: QCTHREADS=1 
Creating input file /src/jdavis/qchem.scratch/qchem16749/Frg2.input
using default PutDataFrgm: nothing
calling putenv with: QCSCRATCH=/src/jdavis/qchem.scratch/qchem16749/ 
Spawning Job For Fragment 1
Done Job For Fragment 1
calling putenv with: QCSCRATCH=/src/jdavis/qchem.scratch 
calling putenv with: QCTHREADS=1 
 Time for running child jobs:  CPU 1.77 s  wall 54.49 s
 ============= Method Specific SAD Guess Constructed =============
 Guess from on-the-fly superposition of atomic densities
 Warning: Energy on first SCF cycle will be non-variational
 A restricted Hartree-Fock SCF calculation will be
 performed using Pulay DIIS extrapolation
 SCF converges when DIIS error is below 1.0E-08
 using 10 threads for integral computing
 -------------------------------------------------------
 OpenMP Integral computing Module                
 Release: version 1.0, May 2013, Q-Chem Inc. Pittsburgh 
 -------------------------------------------------------
 ---------------------------------------
  Cycle       Energy         DIIS Error
 ---------------------------------------
    1     -78.8152353770      7.37E-02
    2     -78.4590949938      6.97E-03
    3     -78.5065371495      1.74E-03
    4     -78.5092462761      5.59E-04
    5     -78.5095736025      1.21E-04
    6     -78.5096008108      2.91E-05
    7     -78.5096033523      7.82E-06
    8     -78.5096035824      1.13E-06
    9     -78.5096035880      2.66E-07
   10     -78.5096035884      5.58E-08
   11     -78.5096035885      1.23E-08
   12     -78.5096035885      1.65E-09 Convergence criterion met
 ---------------------------------------
 SCF time:  CPU 11.25 s  wall 1.13 s
 SCF   energy in the final basis set = -78.50960359
 Total energy in the final basis set = -78.50960359
================================================================================
|                                                                              |
|                                 A D C  M A N                                 |
|                                                                              |
 ------------------------------------------------------------------------------ 
|                                                                              |
| Components:                                                                  |
|                                                                              |
| - libvmm - 1.3-trunk                                                         |
|   Authors:                                                                   |
|   Evgeny Epifanovsky, Ilya Kaliman                                           |
|                                                                              |
| - libtensor - 2.5-trunk                                                      |
|   Authors:                                                                   |
|   Evgeny Epifanovsky, Michael Wormit, Dmitry Zuev, Sam Manzer,               |
|   Ilya Kaliman                                                               |
|                                                                              |
| - libwfa - 1.1-trunk                                                         |
|   Authors:                                                                   |
|   Felix Plasser, Stefanie Mewes (Baeppler), Benjamin Thomitzni,              |
|   Michael Wormit, Feng Chen, Anna I. Krylov, Pavel Pokhilko                  |
|                                                                              |
| - libadc - 1.1-trunk                                                         |
|   Authors:                                                                   |
|   Michael Wormit, Adrian L. Dempwolff, Philipp H. P. Harbach,                |
|   Caroline Krauter, Dirk Rehn, Matthias Schneider, Jan Wenzel                |
|                                                                              |
| - adcman - 2.6-trunk                                                         |
|   Authors:                                                                   |
|   Michael Wormit, Adrian L. Dempwolff, Philipp H. P. Harbach,                |
|   Caroline Krauter, Daniel Lefrancois, Jan-Michael Mewes, Dirk Rehn,         |
|   Matthias Schneider, Jan Wenzel, Andreas Dreuw                              |
|                                                                              |
| Authors of earlier versions of ADCMAN:                                       |
| Andreas Dreuw, Jan Hendrik Starcke, Dirk Rehn, Michael Wormit                |
|                                                                              |
================================================================================

 
 Alpha MOs, Restricted
 -- Occupied --                  
-11.066 -11.064  -0.872  -0.614  -0.488  -0.399  -0.342  -0.208
  1 A1    1 B1    2 A1    2 B1    3 A1    4 A1    3 B1    1 B2                 
 -0.025
  5 A1                                                                         
 -- Virtual --                   
  0.175   0.193   0.214   0.217   0.222   0.238   0.308   0.327
  4 B1    6 A1    2 B2    1 A2    7 A1    5 B1    8 A1    2 A2                 
  0.342   0.428   0.458   0.468   0.491   0.493   0.495   0.531
  6 B1    9 A1    7 B1   10 A1    3 B2    8 B1   11 A1    9 B1                 
  0.534   0.573   0.710   0.773   0.971   1.013   1.073   1.098
 12 A1    3 A2   10 B1   11 B1   13 A1   14 A1   15 A1   12 B1                 
  1.122   1.193   1.229   1.262   1.275   1.286   1.293   1.304
 16 A1   13 B1   17 A1    4 B2   18 A1    5 B2   14 B1    4 A2                 
  1.441   1.455   1.457   1.611   1.790   1.834   1.902   1.908
 15 B1    5 A2    6 B2   16 B1   19 A1   17 B1    7 B2   20 A1                 
  1.951   2.028   2.043   2.111   2.134   2.192   2.237   2.273
 18 B1   21 A1    6 A2    8 B2   19 B1    9 B2   22 A1   23 A1                 
  2.349   2.498   2.583   2.656   2.738   2.765   3.000   3.028
  7 A2   20 B1    8 A2   24 A1   21 B1   22 B1   25 A1   26 A1                 
  3.432   3.515
 23 B1   24 B1                                                                 
 
 Beta MOs, Restricted
 -- Occupied --                  
-11.066 -11.064  -0.872  -0.614  -0.488  -0.399  -0.342  -0.208
  1 A1    1 B1    2 A1    2 B1    3 A1    4 A1    3 B1    1 B2                 
 -0.025
  5 A1                                                                         
 -- Virtual --                   
  0.175   0.193   0.214   0.217   0.222   0.238   0.308   0.327
  4 B1    6 A1    2 B2    1 A2    7 A1    5 B1    8 A1    2 A2                 
  0.342   0.428   0.458   0.468   0.491   0.493   0.495   0.531
  6 B1    9 A1    7 B1   10 A1    3 B2    8 B1   11 A1    9 B1                 
  0.534   0.573   0.710   0.773   0.971   1.013   1.073   1.098
 12 A1    3 A2   10 B1   11 B1   13 A1   14 A1   15 A1   12 B1                 
  1.122   1.193   1.229   1.262   1.275   1.286   1.293   1.304
 16 A1   13 B1   17 A1    4 B2   18 A1    5 B2   14 B1    4 A2                 
  1.441   1.455   1.457   1.611   1.790   1.834   1.902   1.908
 15 B1    5 A2    6 B2   16 B1   19 A1   17 B1    7 B2   20 A1                 
  1.951   2.028   2.043   2.111   2.134   2.192   2.237   2.273
 18 B1   21 A1    6 A2    8 B2   19 B1    9 B2   22 A1   23 A1                 
  2.349   2.498   2.583   2.656   2.738   2.765   3.000   3.028
  7 A2   20 B1    8 A2   24 A1   21 B1   22 B1   25 A1   26 A1                 
  3.432   3.515
 23 B1   24 B1                                                                 

--------------------------------------------------------------------------------
                                   HF Summary                                   
--------------------------------------------------------------------------------
  Energy:                                                  -78.5096035885 a.u.
  Dip. moment [a.u.]:                  [  -0.000000,   -0.000000,   -4.334071]
  Total dipole [Debye]:                                              11.016111
  <r^2> [a.u.]:                        [  52.416222,   16.439102,   82.213089]
  Total <r^2> [a.u.]:                                               151.068413
--------------------------------------------------------------------------------

--------------------------------------------------------------------------------
                                 MP(2) Summary                                  
--------------------------------------------------------------------------------
  MP energy contribution:                                   -0.3061718723 a.u.
  Total energy:                                            -78.8157754608 a.u.
  Dip. moment [a.u.]:                  [   0.000000,    0.000000,   -4.217212]
  Total dipole [Debye]:                                              10.719085
  <r^2> [a.u.]:                        [  52.764746,   16.428980,   81.712946]
  Total <r^2> [a.u.]:                                               150.906672

  Density matrix analysis:
  ------------------------
  NOs
    Occupation of frontier NOs:
       0.0449   1.9359
    Number of electrons: 18.000000
    Number of unpaired electrons: n_u =  0.46189, n_u,nl =  0.05062
    NO participation ratio (PR_NO): 16.178230
  
  
  Mulliken Population Analysis
  Atom      Charge (e)              h+              e-           Del q
  --------------------------------------------------------------------
   1 C       -0.395370        0.088166       -0.112966       -0.024800
   2 C       -0.395370        0.088166       -0.112966       -0.024800
   3 H        0.170549        0.016281       -0.018754       -0.002473
   4 H        0.170549        0.016281       -0.018754       -0.002473
   5 H        0.042222        0.019433       -0.011578        0.007855
   6 H        0.042222        0.019433       -0.011578        0.007855
   7 H       -0.634801        0.052579       -0.013743        0.038836
  --------------------------------------------------------------------
  Sum:       -1.000000        0.300340       -0.300340        0.000000
  
  Multipole moment analysis of the density matrix
    Molecular charge:                      -1.000000
    Number of electrons:                   18.000000
      Center of electronic charge [Ang]: [ -0.000000,  -0.000000,   0.123981]
    Total nuclear charge:                  17.000000
      Center of nuclear charge [Ang]:    [ -0.000000,   0.000000,   0.000000]
    Dipole moment [D]:                     10.719082
      Cartesian components [D]:          [  0.000000,   0.000000, -10.719082]
    RMS size of the density [Ang]:         1.527189
      Cartesian components [Ang]:        [  0.906018,   0.505557,   1.120646]
  
  Exciton analysis of the difference density matrix
    <r_h> [Ang]:                  [  0.000000,   0.000000,   0.272133]
    <r_e> [Ang]:                  [ -0.000000,   0.000000,   0.066236]
    |<r_e - r_h>| [Ang]:            0.205897
    Hole size [Ang]:                1.832452
      Cartesian components [Ang]: [  0.960922,   0.760381,   1.362472]
    Electron size [Ang]:            1.810178
      Cartesian components [Ang]: [  1.117284,   0.754150,   1.208172]
--------------------------------------------------------------------------------

--------------------------------------------------------------------------------
                                 MP(3) Summary                                  
--------------------------------------------------------------------------------
  MP energy contribution:                                   -0.0285257471 a.u.
  Total energy:                                            -78.8443012078 a.u.
--------------------------------------------------------------------------------
Less singles guess vectors found than requested: 85 (found), 100 (requested).
Adjusting number of doubles guess vectors to 15.
  Starting Davidson for singlet states of irrep A2 ... 
--------------------------------------------------------------------------------
   It NVec Conv  Avg. Norm  Max. Norm  Conv. states           Remark
--------------------------------------------------------------------------------
       100    0  7.674e-02  4.153e-01  0.1360 n n n n n n n n Guess.
    1  110    0  2.706e-02  1.277e-01  0.0887 n n n n n n n n 
    2  120    0  1.805e-02  1.269e-01  0.0846 n n n n n n n n 
    3  130    0  7.603e-03  4.499e-02  0.0843 n n n n n n n n 
    4  140    0  4.936e-03  4.382e-02  0.0843 n n n n n n n n 
    5  150    0  4.032e-03  3.919e-02  0.0843 n n n n n n n n 
    6  160    0  3.143e-03  3.109e-02  0.0843 n n n n n n n n 
    7  170    1  1.966e-03  1.954e-02  0.0843 y n n n n n n n 
    8  180    2  9.251e-04  9.208e-03  0.0843 y y n n n n n n 
    9  190    3  3.753e-04  3.737e-03  0.0843 y y y n n n n n 
   10  200    5  1.445e-04  1.439e-03  0.0843 y y y y y n n n 
   11   20    7  5.300e-05  5.281e-04  0.0843 y y y y y y n y Subspace collapsed.
   12   30    8  3.527e-05  3.517e-04  0.0843 y y y y y y y y 
   13   40    8  2.039e-05  2.035e-04  0.0843 y y y y y y y y 
   14   50    9  1.198e-05  1.196e-04  0.0843 y y y y y y y y 
   15   60    9  8.272e-06  8.262e-05  0.0843 y y y y y y y y 
   16   70    9  7.078e-06  7.073e-05  0.0843 y y y y y y y y 
   17   80    9  6.133e-06  6.129e-05  0.0843 y y y y y y y y 
   18   90    9  4.314e-06  4.312e-05  0.0843 y y y y y y y y 
   19  100    9  2.768e-06  2.767e-05  0.0843 y y y y y y y y 
   20  110    9  2.110e-06  2.110e-05  0.0843 y y y y y y y y 
   21  120    9  1.188e-06  1.188e-05  0.0843 y y y y y y y y 
   22  130   10  6.174e-07  6.173e-06  0.0843 y y y y y y y y Converged.
--------------------------------------------------------------------------------
  Davidson Summary: 
 ------------------------------------------------------------
  State  0: excitation energy =   0.0843 a.u.   (converged)
  State  1: excitation energy =   0.1514 a.u.   (converged)
  State  2: excitation energy =   0.2390 a.u.   (converged)
  State  3: excitation energy =   0.2594 a.u.   (converged)
  State  4: excitation energy =   0.3035 a.u.   (converged)
  State  5: excitation energy =   0.3376 a.u.   (converged)
  State  6: excitation energy =   0.3439 a.u.   (converged)
  State  7: excitation energy =   0.3482 a.u.   (converged)
  State  8: excitation energy =   0.3591 a.u.   (converged)
  State  9: excitation energy =   0.3639 a.u.   (converged)
 ------------------------------------------------------------


--------------------------------------------------------------------------------
                   State-averaged natural transition orbitals
--------------------------------------------------------------------------------
--------------------------------------------------------------------------------

--------------------------------------------------------------------------------
                             Excited State Summary
--------------------------------------------------------------------------------
--------------------------------------------------------------------------------

  Excited state 1 (singlet, A2)                                    [converged]
  ----------------------------------------------------------------------------
  Term symbol:  1 (1) A2                                    R^2 =  6.80713e-15

  Total energy:                                            -78.7599727016 a.u.
  Excitation energy:                                               2.294695 eV

  Osc. strength:                                                      0.000000
  Trans. dip. moment [a.u.]:           [   0.000000,   -0.000000,   -0.000000]
  <i|r^2|0> [a.u.]:                    [  -0.000000,   -0.000000,    0.000000]

  Dip. moment [a.u.]:                  [   0.000000,   -0.000000,    0.398323]
  Total dipole [Debye]:                                               1.012437
  <r^2> [a.u.]:                        [  65.330055,   28.398512,   59.632889]
  Total <r^2> [a.u.]:                                               153.361456

  V1^2 = 0.8821, V2^2 = 0.1179

  Important amplitudes:
      occ i      occ j       vir a       vir b          v   
    ---------------------------------------------------------
     5 (A1) A               1 (A2) A                  0.6045
     5 (A1) A               2 (A2) A                  0.2720
    ---------------------------------------------------------

  Density matrix analysis:
  ------------------------
  NOs
    Occupation of frontier NOs:
       0.9881   0.9891
    Number of electrons: 18.000000
    Number of unpaired electrons: n_u =  2.43530, n_u,nl =  2.05096
    NO participation ratio (PR_NO):  3.013484
  
  
  Mulliken Population Analysis
  Atom      Charge (e)              h+              e-           Del q
  --------------------------------------------------------------------
   1 C       -0.656823        0.289271       -0.550725       -0.261454
   2 C       -0.656823        0.289271       -0.550725       -0.261454
   3 H        0.079201        0.022708       -0.114055       -0.091348
   4 H        0.079201        0.022708       -0.114055       -0.091348
   5 H        0.070037        0.025213        0.002602        0.027815
   6 H        0.070037        0.025213        0.002602        0.027815
   7 H        0.015171        0.729193       -0.079220        0.649973
  --------------------------------------------------------------------
  Sum:       -1.000000        1.403576       -1.403576       -0.000000
  
  Multipole moment analysis of the density matrix
    Molecular charge:                      -1.000000
    Number of electrons:                   18.000000
      Center of electronic charge [Ang]: [ -0.000000,   0.000000,  -0.011710]
    Total nuclear charge:                  17.000000
      Center of nuclear charge [Ang]:    [ -0.000000,   0.000000,   0.000000]
    Dipole moment [D]:                     1.012437
      Cartesian components [D]:          [  0.000000,  -0.000000,   1.012437]
    RMS size of the density [Ang]:         1.544580
      Cartesian components [Ang]:        [  1.008141,   0.664680,   0.963110]
  
  Exciton analysis of the difference density matrix
    <r_h> [Ang]:                  [  0.000000,   0.000000,   1.914087]
    <r_e> [Ang]:                  [ -0.000000,   0.000000,   0.173936]
    |<r_e - r_h>| [Ang]:            1.740152
    Hole size [Ang]:                2.155177
      Cartesian components [Ang]: [  1.018996,   0.953634,   1.642259]
    Electron size [Ang]:            2.961084
      Cartesian components [Ang]: [  1.882888,   1.815893,   1.387546]

  Transition density matrix analysis:
  -----------------------------------
  
  CT numbers (Mulliken)
    omega =     0.8653
    <Phe> =     0.0003
  
  Exciton analysis of the transition density matrix
    Trans. dipole moment [D]:             0.000000
      Cartesian components [D]:         [  0.000000,  -0.000000,  -0.000000]
    <r_h> [Ang]:                        [  0.000000,   0.000000,   2.621024]
    <r_e> [Ang]:                        [ -0.000000,   0.000000,  -0.175581]
    |<r_e - r_h>| [Ang]:                  2.796605
    Hole size [Ang]:                      1.544777
      Cartesian components [Ang]:       [  0.805058,   0.788357,   1.056745]
    Electron size [Ang]:                  3.151369
      Cartesian components [Ang]:       [  2.100392,   2.032616,   1.178112]
    RMS electron-hole separation [Ang]:   4.485249
      Cartesian components [Ang]:       [  2.245322,   2.179611,   3.213297]
    Covariance(r_h, r_e) [Ang^2]:         0.010502
    Correlation coefficient:              0.002157
    Center-of-mass size [Ang]:            1.756308
      Cartesian components [Ang]:       [  1.126728,   1.090340,   0.791366]

  Decomposition into state-averaged NTOs
    H- 1 -> L+ 0:  0.5723 ( 65.5%)
    H- 1 -> L+ 3:  0.3223 ( 20.8%)
                   omega =  86.5%
  ----------------------------------------------------------------------------


  Excited state 2 (singlet, A2)                                    [converged]
  ----------------------------------------------------------------------------
  Term symbol:  2 (1) A2                                    R^2 =  9.60373e-14

  Total energy:                                            -78.6928752749 a.u.
  Excitation energy:                                               4.120509 eV

  Osc. strength:                                                      0.000000
  Trans. dip. moment [a.u.]:           [  -0.000000,   -0.000000,    0.000000]
  <i|r^2|0> [a.u.]:                    [  -0.000000,    0.000000,   -0.000000]

  Dip. moment [a.u.]:                  [   0.000000,    0.000000,    0.414487]
  Total dipole [Debye]:                                               1.053520
  <r^2> [a.u.]:                        [  67.511079,   30.927092,   60.623478]
  Total <r^2> [a.u.]:                                               159.061649

  V1^2 = 0.8595, V2^2 = 0.1405

  Important amplitudes:
      occ i      occ j       vir a       vir b          v   
    ---------------------------------------------------------
     5 (A1) A               2 (A2) A                 -0.5792
     5 (A1) A               1 (A2) A                  0.2882
    ---------------------------------------------------------

  Density matrix analysis:
  ------------------------
  NOs
    Occupation of frontier NOs:
       0.9722   0.9867
    Number of electrons: 18.000000
    Number of unpaired electrons: n_u =  2.48121, n_u,nl =  2.06940
    NO participation ratio (PR_NO):  3.177405
  
  
  Mulliken Population Analysis
  Atom      Charge (e)              h+              e-           Del q
  --------------------------------------------------------------------
   1 C       -0.626359        0.314696       -0.545685       -0.230989
   2 C       -0.626359        0.314696       -0.545685       -0.230989
   3 H        0.062820        0.021031       -0.128759       -0.107729
   4 H        0.062820        0.021031       -0.128759       -0.107729
   5 H        0.052115        0.015470       -0.005577        0.009893
   6 H        0.052115        0.015470       -0.005577        0.009893
   7 H        0.022847        0.730291       -0.072643        0.657649
  --------------------------------------------------------------------
  Sum:       -1.000000        1.432685       -1.432685       -0.000000
  
  Multipole moment analysis of the density matrix
    Molecular charge:                      -1.000000
    Number of electrons:                   18.000000
      Center of electronic charge [Ang]: [ -0.000000,  -0.000000,  -0.012185]
    Total nuclear charge:                  17.000000
      Center of nuclear charge [Ang]:    [ -0.000000,   0.000000,   0.000000]
    Dipole moment [D]:                     1.053520
      Cartesian components [D]:          [  0.000000,   0.000000,   1.053520]
    RMS size of the density [Ang]:         1.573021
      Cartesian components [Ang]:        [  1.024831,   0.693640,   0.971071]
  
  Exciton analysis of the difference density matrix
    <r_h> [Ang]:                  [  0.000000,   0.000000,   1.875822]
    <r_e> [Ang]:                  [ -0.000000,  -0.000000,   0.165055]
    |<r_e - r_h>| [Ang]:            1.710766
    Hole size [Ang]:                2.132895
      Cartesian components [Ang]: [  1.003100,   0.935819,   1.633178]
    Electron size [Ang]:            3.103973
      Cartesian components [Ang]: [  1.971925,   1.926010,   1.427112]

  Transition density matrix analysis:
  -----------------------------------
  
  CT numbers (Mulliken)
    omega =     0.8420
    <Phe> =    -0.0003
  
  Exciton analysis of the transition density matrix
    Trans. dipole moment [D]:             0.000000
      Cartesian components [D]:         [ -0.000000,  -0.000000,   0.000000]
    <r_h> [Ang]:                        [  0.000000,   0.000000,   2.619025]
    <r_e> [Ang]:                        [ -0.000000,  -0.000000,  -0.175446]
    |<r_e - r_h>| [Ang]:                  2.794472
    Hole size [Ang]:                      1.545613
      Cartesian components [Ang]:       [  0.804467,   0.787533,   1.059029]
    Electron size [Ang]:                  3.379751
      Cartesian components [Ang]:       [  2.241115,   2.188622,   1.268878]
    RMS electron-hole separation [Ang]:   4.647979
      Cartesian components [Ang]:       [  2.378541,   2.325147,   3.246528]
    Covariance(r_h, r_e) [Ang^2]:         0.008497
    Correlation coefficient:              0.001627
    Center-of-mass size [Ang]:            1.859343
      Cartesian components [Ang]:       [  1.191855,   1.163426,   0.826485]

  Decomposition into state-averaged NTOs
    H- 1 -> L+ 3:  0.5771 ( 66.6%)
    H- 1 -> L+ 0: -0.2957 ( 17.5%)
                   omega =  84.2%
  ----------------------------------------------------------------------------


  Excited state 3 (singlet, A2)                                    [converged]
  ----------------------------------------------------------------------------
  Term symbol:  3 (1) A2                                    R^2 =  1.74852e-12

  Total energy:                                            -78.6052904433 a.u.
  Excitation energy:                                               6.503814 eV

  Osc. strength:                                                      0.000000
  Trans. dip. moment [a.u.]:           [   0.000000,   -0.000000,    0.000000]
  <i|r^2|0> [a.u.]:                    [   0.000000,    0.000000,    0.000000]

  Dip. moment [a.u.]:                  [  -0.000000,   -0.000000,   -2.440050]
  Total dipole [Debye]:                                               6.201989
  <r^2> [a.u.]:                        [  84.919943,   21.540862,   88.432411]
  Total <r^2> [a.u.]:                                               194.893216

  V1^2 = 0.9256, V2^2 = 0.0744

  Important amplitudes:
      occ i      occ j       vir a       vir b          v   
    ---------------------------------------------------------
     1 (B2) A               4 (B1) A                  0.6621
     1 (B2) A               6 (B1) A                  0.1274
    ---------------------------------------------------------

  Density matrix analysis:
  ------------------------
  NOs
    Occupation of frontier NOs:
       0.9779   0.9834
    Number of electrons: 18.000000
    Number of unpaired electrons: n_u =  2.36706, n_u,nl =  2.03315
    NO participation ratio (PR_NO):  2.899817
  
  
  Mulliken Population Analysis
  Atom      Charge (e)              h+              e-           Del q
  --------------------------------------------------------------------
   1 C       -0.518145        0.530387       -0.653162       -0.122775
   2 C       -0.518145        0.530387       -0.653162       -0.122775
   3 H        0.220707        0.070798       -0.020639        0.050159
   4 H        0.220707        0.070798       -0.020639        0.050159
   5 H        0.093548        0.121981       -0.070655        0.051326
   6 H        0.093548        0.121981       -0.070655        0.051326
   7 H       -0.592221        0.080880       -0.038299        0.042581
  --------------------------------------------------------------------
  Sum:       -1.000000        1.527210       -1.527210        0.000000
  
  Multipole moment analysis of the density matrix
    Molecular charge:                      -1.000000
    Number of electrons:                   18.000000
      Center of electronic charge [Ang]: [  0.000000,   0.000000,   0.071734]
    Total nuclear charge:                  17.000000
      Center of nuclear charge [Ang]:    [ -0.000000,   0.000000,   0.000000]
    Dipole moment [D]:                     6.201987
      Cartesian components [D]:          [ -0.000000,  -0.000000,  -6.201987]
    RMS size of the density [Ang]:         1.739780
      Cartesian components [Ang]:        [  1.149396,   0.578890,   1.170730]
  
  Exciton analysis of the difference density matrix
    <r_h> [Ang]:                  [ -0.000000,  -0.000000,  -0.036629]
    <r_e> [Ang]:                  [  0.000000,   0.000000,  -0.652415]
    |<r_e - r_h>| [Ang]:            0.615786
    Hole size [Ang]:                1.869753
      Cartesian components [Ang]: [  1.075319,   0.904063,   1.233829]
    Electron size [Ang]:            3.337218
      Cartesian components [Ang]: [  2.655612,   1.324629,   1.526470]

  Transition density matrix analysis:
  -----------------------------------
  
  CT numbers (Mulliken)
    omega =     0.8954
    <Phe> =    -0.0026
  
  Exciton analysis of the transition density matrix
    Trans. dipole moment [D]:             0.000000
      Cartesian components [D]:         [  0.000000,  -0.000000,   0.000000]
    <r_h> [Ang]:                        [ -0.000000,   0.000000,  -0.183952]
    <r_e> [Ang]:                        [  0.000000,   0.000000,  -1.076680]
    |<r_e - r_h>| [Ang]:                  0.892728
    Hole size [Ang]:                      1.279685
      Cartesian components [Ang]:       [  0.764725,   0.883528,   0.521697]
    Electron size [Ang]:                  3.863632
      Cartesian components [Ang]:       [  3.198716,   1.562557,   1.501426]
    RMS electron-hole separation [Ang]:   4.155066
      Cartesian components [Ang]:       [  3.277480,   1.789177,   1.822511]
    Covariance(r_h, r_e) [Ang^2]:         0.048816
    Correlation coefficient:              0.009873
    Center-of-mass size [Ang]:            2.041009
      Cartesian components [Ang]:       [  1.650099,   0.900452,   0.795033]

  Decomposition into state-averaged NTOs
    H- 0 -> L+ 1: -0.6488 ( 84.2%)
    H- 0 -> L+ 2:  0.1624 (  5.3%)
                   omega =  89.5%
  ----------------------------------------------------------------------------


  Excited state 4 (singlet, A2)                                    [converged]
  ----------------------------------------------------------------------------
  Term symbol:  4 (1) A2                                    R^2 =  2.18591e-11

  Total energy:                                            -78.5848617740 a.u.
  Excitation energy:                                               7.059706 eV

  Osc. strength:                                                      0.000000
  Trans. dip. moment [a.u.]:           [   0.000000,    0.000000,   -0.000000]
  <i|r^2|0> [a.u.]:                    [  -0.000000,   -0.000000,   -0.000000]

  Dip. moment [a.u.]:                  [  -0.000000,   -0.000000,    1.109418]
  Total dipole [Debye]:                                               2.819860
  <r^2> [a.u.]:                        [  63.595599,   44.237127,   63.168050]
  Total <r^2> [a.u.]:                                               171.000777

  V1^2 = 0.0312, V2^2 = 0.9688

  Important amplitudes:
      occ i      occ j       vir a       vir b          v   
    ---------------------------------------------------------
     5 (A1) A   1 (B2) B    2 (A2) A    2 (B2) B      0.2358
     5 (A1) A   1 (B2) B    1 (A2) A    2 (B2) B      0.1251
    ---------------------------------------------------------

  Density matrix analysis:
  ------------------------
  NOs
    Occupation of frontier NOs:
       0.9741   1.0109
    Number of electrons: 18.000000
    Number of unpaired electrons: n_u =  4.06458, n_u,nl =  3.94572
    NO participation ratio (PR_NO):  4.852157
  
  
  Mulliken Population Analysis
  Atom      Charge (e)              h+              e-           Del q
  --------------------------------------------------------------------
   1 C       -0.796811        0.571466       -0.972908       -0.401441
   2 C       -0.796811        0.571466       -0.972908       -0.401441
   3 H        0.166773        0.012119       -0.015895       -0.003776
   4 H        0.166773        0.012119       -0.015895       -0.003776
   5 H        0.035120        0.003288       -0.010390       -0.007102
   6 H        0.035120        0.003288       -0.010390       -0.007102
   7 H        0.189837        0.826765       -0.002127        0.824638
  --------------------------------------------------------------------
  Sum:       -1.000000        2.000513       -2.000513        0.000000
  
  Multipole moment analysis of the density matrix
    Molecular charge:                      -1.000000
    Number of electrons:                   18.000000
      Center of electronic charge [Ang]: [  0.000000,   0.000000,  -0.032615]
    Total nuclear charge:                  17.000000
      Center of nuclear charge [Ang]:    [ -0.000000,   0.000000,   0.000000]
    Dipole moment [D]:                     2.819859
      Cartesian components [D]:          [ -0.000000,  -0.000000,   2.819859]
    RMS size of the density [Ang]:         1.630711
      Cartesian components [Ang]:        [  0.994669,   0.829580,   0.990783]
  
  Exciton analysis of the difference density matrix
    <r_h> [Ang]:                  [  0.000000,   0.000000,   1.244574]
    <r_e> [Ang]:                  [  0.000000,   0.000000,  -0.164431]
    |<r_e - r_h>| [Ang]:            1.409004
    Hole size [Ang]:                2.010509
      Cartesian components [Ang]: [  0.788202,   0.862880,   1.635946]
    Electron size [Ang]:            2.894272
      Cartesian components [Ang]: [  1.461967,   2.153393,   1.265845]

  Transition density matrix analysis:
  -----------------------------------
  
  CT numbers (Mulliken)
    omega =     0.0307
    <Phe> =     0.0000
  
  Exciton analysis of the transition density matrix
    Trans. dipole moment [D]:             0.000000
      Cartesian components [D]:         [  0.000000,   0.000000,  -0.000000]
    <r_h> [Ang]:                        [  0.000000,  -0.000000,   2.510150]
    <r_e> [Ang]:                        [  0.000000,   0.000000,  -0.175208]
    |<r_e - r_h>| [Ang]:                  2.685358
    Hole size [Ang]:                      1.647479
      Cartesian components [Ang]:       [  0.825614,   0.786031,   1.189414]
    Electron size [Ang]:                  3.109967
      Cartesian components [Ang]:       [  2.051948,   2.019232,   1.176479]
    RMS electron-hole separation [Ang]:   4.427537
      Cartesian components [Ang]:       [  2.213218,   2.166557,   3.163982]
    Covariance(r_h, r_e) [Ang^2]:        -0.002931
    Correlation coefficient:             -0.000572
    Center-of-mass size [Ang]:            1.759277
      Cartesian components [Ang]:       [  1.105206,   1.083549,   0.836358]

  Decomposition into state-averaged NTOs
    H- 1 -> L+ 0:  0.0793 (  1.3%)
                   omega =   3.1%
  ----------------------------------------------------------------------------


  Excited state 5 (singlet, A2)                                    [converged]
  ----------------------------------------------------------------------------
  Term symbol:  5 (1) A2                                    R^2 =  4.77662e-11

  Total energy:                                            -78.5407900553 a.u.
  Excitation energy:                                               8.258958 eV

  Osc. strength:                                                      0.000000
  Trans. dip. moment [a.u.]:           [   0.000000,   -0.000000,    0.000000]
  <i|r^2|0> [a.u.]:                    [  -0.000000,   -0.000000,   -0.000000]

  Dip. moment [a.u.]:                  [  -0.000000,   -0.000000,   -4.807836]
  Total dipole [Debye]:                                              12.220302
  <r^2> [a.u.]:                        [  77.631915,   21.119984,   97.064547]
  Total <r^2> [a.u.]:                                               195.816446

  V1^2 = 0.9017, V2^2 = 0.0983

  Important amplitudes:
      occ i      occ j       vir a       vir b          v   
    ---------------------------------------------------------
     1 (B2) A               5 (B1) A                  0.6611
     1 (B2) A               8 (B1) A                 -0.0957
    ---------------------------------------------------------

  Density matrix analysis:
  ------------------------
  NOs
    Occupation of frontier NOs:
       0.9781   0.9796
    Number of electrons: 18.000000
    Number of unpaired electrons: n_u =  2.39696, n_u,nl =  2.03934
    NO participation ratio (PR_NO):  2.981659
  
  
  Mulliken Population Analysis
  Atom      Charge (e)              h+              e-           Del q
  --------------------------------------------------------------------
   1 C       -0.493196        0.529573       -0.627400       -0.097826
   2 C       -0.493196        0.529573       -0.627400       -0.097826
   3 H        0.161593        0.079609       -0.088565       -0.008956
   4 H        0.161593        0.079609       -0.088565       -0.008956
   5 H        0.082049        0.099328       -0.059501        0.039827
   6 H        0.082049        0.099328       -0.059501        0.039827
   7 H       -0.500890        0.156564       -0.022653        0.133911
  --------------------------------------------------------------------
  Sum:       -1.000000        1.573584       -1.573584        0.000000
  
  Multipole moment analysis of the density matrix
    Molecular charge:                      -1.000000
    Number of electrons:                   18.000000
      Center of electronic charge [Ang]: [  0.000000,   0.000000,   0.141344]
    Total nuclear charge:                  17.000000
      Center of nuclear charge [Ang]:    [ -0.000000,   0.000000,   0.000000]
    Dipole moment [D]:                     12.220298
      Cartesian components [D]:          [ -0.000000,  -0.000000, -12.220298]
    RMS size of the density [Ang]:         1.739645
      Cartesian components [Ang]:        [  1.098968,   0.573207,   1.220684]
  
  Exciton analysis of the difference density matrix
    <r_h> [Ang]:                  [ -0.000000,  -0.000000,   0.125740]
    <r_e> [Ang]:                  [  0.000000,  -0.000000,   0.324359]
    |<r_e - r_h>| [Ang]:            0.198620
    Hole size [Ang]:                1.910401
      Cartesian components [Ang]: [  1.053003,   0.886243,   1.324912]
    Electron size [Ang]:            3.398852
      Cartesian components [Ang]: [  2.352461,   1.272878,   2.097117]

  Transition density matrix analysis:
  -----------------------------------
  
  CT numbers (Mulliken)
    omega =     0.8720
    <Phe> =    -0.0007
  
  Exciton analysis of the transition density matrix
    Trans. dipole moment [D]:             0.000000
      Cartesian components [D]:         [  0.000000,  -0.000000,   0.000000]
    <r_h> [Ang]:                        [  0.000000,   0.000000,  -0.183497]
    <r_e> [Ang]:                        [ -0.000000,  -0.000000,   0.370131]
    |<r_e - r_h>| [Ang]:                  0.553628
    Hole size [Ang]:                      1.279707
      Cartesian components [Ang]:       [  0.764469,   0.883932,   0.521442]
    Electron size [Ang]:                  4.036999
      Cartesian components [Ang]:       [  2.821387,   1.477266,   2.480892]
    RMS electron-hole separation [Ang]:   4.264336
      Cartesian components [Ang]:       [  2.913871,   1.721261,   2.594451]
    Covariance(r_h, r_e) [Ang^2]:         0.028479
    Correlation coefficient:              0.005513
    Center-of-mass size [Ang]:            2.120847
      Cartesian components [Ang]:       [  1.466171,   0.860895,   1.267752]

  Decomposition into state-averaged NTOs
    H- 0 -> L+ 2:  0.6391 ( 81.7%)
    H- 0 -> L+ 1:  0.1653 (  5.5%)
                   omega =  87.2%
  ----------------------------------------------------------------------------


  Excited state 6 (singlet, A2)                                    [converged]
  ----------------------------------------------------------------------------
  Term symbol:  6 (1) A2                                    R^2 =  9.45675e-10

  Total energy:                                            -78.5067110382 a.u.
  Excitation energy:                                               9.186296 eV

  Osc. strength:                                                      0.000000
  Trans. dip. moment [a.u.]:           [   0.000000,   -0.000000,    0.000000]
  <i|r^2|0> [a.u.]:                    [  -0.000000,   -0.000000,   -0.000000]

  Dip. moment [a.u.]:                  [   0.000000,   -0.000000,    1.442451]
  Total dipole [Debye]:                                               3.666346
  <r^2> [a.u.]:                        [ 101.874137,   28.637166,   76.874198]
  Total <r^2> [a.u.]:                                               207.385501

  V1^2 = 0.0166, V2^2 = 0.9834

  Important amplitudes:
      occ i      occ j       vir a       vir b          v   
    ---------------------------------------------------------
     5 (A1) A   1 (B2) A    6 (A1) A    4 (B1) A      0.1724
     5 (A1) A   1 (B2) B    6 (A1) A    4 (B1) B      0.1426
    ---------------------------------------------------------

  Density matrix analysis:
  ------------------------
  NOs
    Occupation of frontier NOs:
       0.8928   0.9397
    Number of electrons: 18.000000
    Number of unpaired electrons: n_u =  4.18822, n_u,nl =  4.01634
    NO participation ratio (PR_NO):  5.500739
  
  
  Mulliken Population Analysis
  Atom      Charge (e)              h+              e-           Del q
  --------------------------------------------------------------------
   1 C       -0.770432        0.564794       -0.939857       -0.375062
   2 C       -0.770432        0.564794       -0.939857       -0.375062
   3 H        0.126524        0.010828       -0.054852       -0.044024
   4 H        0.126524        0.010828       -0.054852       -0.044024
   5 H        0.052787        0.006208        0.004356        0.010565
   6 H        0.052787        0.006208        0.004356        0.010565
   7 H        0.182243        0.832646       -0.015602        0.817044
  --------------------------------------------------------------------
  Sum:       -1.000000        1.996307       -1.996307       -0.000000
  
  Multipole moment analysis of the density matrix
    Molecular charge:                      -1.000000
    Number of electrons:                   18.000000
      Center of electronic charge [Ang]: [ -0.000000,   0.000000,  -0.042406]
    Total nuclear charge:                  17.000000
      Center of nuclear charge [Ang]:    [ -0.000000,   0.000000,   0.000000]
    Dipole moment [D]:                     3.666345
      Cartesian components [D]:          [  0.000000,  -0.000000,   3.666345]
    RMS size of the density [Ang]:         1.795697
      Cartesian components [Ang]:        [  1.258916,   0.667467,   1.092769]
  
  Exciton analysis of the difference density matrix
    <r_h> [Ang]:                  [ -0.000000,  -0.000000,   1.236522]
    <r_e> [Ang]:                  [ -0.000000,   0.000000,  -0.263730]
    |<r_e - r_h>| [Ang]:            1.500252
    Hole size [Ang]:                1.971276
      Cartesian components [Ang]: [  0.772797,   0.826419,   1.614232]
    Electron size [Ang]:            3.642503
      Cartesian components [Ang]: [  2.736046,   1.547724,   1.840226]

  Transition density matrix analysis:
  -----------------------------------
  
  CT numbers (Mulliken)
    omega =     0.0160
    <Phe> =    -0.0006
  
  Exciton analysis of the transition density matrix
    Trans. dipole moment [D]:             0.000000
      Cartesian components [D]:         [  0.000000,  -0.000000,   0.000000]
    <r_h> [Ang]:                        [  0.000000,  -0.000000,  -0.098087]
    <r_e> [Ang]:                        [  0.000000,   0.000000,   0.861045]
    |<r_e - r_h>| [Ang]:                  0.959132
    Hole size [Ang]:                      1.360718
      Cartesian components [Ang]:       [  0.780259,   0.857927,   0.711836]
    Electron size [Ang]:                  3.803180
      Cartesian components [Ang]:       [  2.963504,   1.460697,   1.883664]
    RMS electron-hole separation [Ang]:   4.168179
      Cartesian components [Ang]:       [  3.064074,   1.686979,   2.266995]
    Covariance(r_h, r_e) [Ang^2]:        -0.069025
    Correlation coefficient:             -0.013338
    Center-of-mass size [Ang]:            2.011074
      Cartesian components [Ang]:       [  1.532463,   0.850507,   0.986213]

  Decomposition into state-averaged NTOs
    H- 0 -> L+ 2:  0.0854 (  1.5%)
                   omega =   1.6%
  ----------------------------------------------------------------------------


  Excited state 7 (singlet, A2)                                    [converged]
  ----------------------------------------------------------------------------
  Term symbol:  7 (1) A2                                    R^2 =  6.43648e-09

  Total energy:                                            -78.5004380355 a.u.
  Excitation energy:                                               9.356993 eV

  Osc. strength:                                                      0.000000
  Trans. dip. moment [a.u.]:           [  -0.000000,    0.000000,   -0.000000]
  <i|r^2|0> [a.u.]:                    [   0.000000,    0.000000,    0.000000]

  Dip. moment [a.u.]:                  [   0.000000,   -0.000000,   -4.094876]
  Total dipole [Debye]:                                              10.408139
  <r^2> [a.u.]:                        [  53.969492,   19.828669,   81.171172]
  Total <r^2> [a.u.]:                                               154.969333

  V1^2 = 0.9304, V2^2 = 0.0696

  Important amplitudes:
      occ i      occ j       vir a       vir b          v   
    ---------------------------------------------------------
     4 (A1) A               2 (A2) A                 -0.5296
     4 (A1) A               1 (A2) A                 -0.3877
    ---------------------------------------------------------

  Density matrix analysis:
  ------------------------
  NOs
    Occupation of frontier NOs:
       0.9860   1.0290
    Number of electrons: 18.000000
    Number of unpaired electrons: n_u =  2.45497, n_u,nl =  2.05823
    NO participation ratio (PR_NO):  3.121177
  
  
  Mulliken Population Analysis
  Atom      Charge (e)              h+              e-           Del q
  --------------------------------------------------------------------
   1 C       -0.502219        0.442476       -0.549325       -0.106849
   2 C       -0.502219        0.442476       -0.549325       -0.106849
   3 H        0.214449        0.062699       -0.018799        0.043900
   4 H        0.214449        0.062699       -0.018799        0.043900
   5 H        0.100258        0.067249       -0.009213        0.058036
   6 H        0.100258        0.067249       -0.009213        0.058036
   7 H       -0.624975        0.017496       -0.007670        0.009826
  --------------------------------------------------------------------
  Sum:       -1.000000        1.162344       -1.162344        0.000000
  
  Multipole moment analysis of the density matrix
    Molecular charge:                      -1.000000
    Number of electrons:                   18.000000
      Center of electronic charge [Ang]: [ -0.000000,   0.000000,   0.120384]
    Total nuclear charge:                  17.000000
      Center of nuclear charge [Ang]:    [ -0.000000,   0.000000,   0.000000]
    Dipole moment [D]:                     10.408136
      Cartesian components [D]:          [  0.000000,  -0.000000, -10.408136]
    RMS size of the density [Ang]:         1.548027
      Cartesian components [Ang]:        [  0.916303,   0.555407,   1.117273]
  
  Exciton analysis of the difference density matrix
    <r_h> [Ang]:                  [ -0.000000,   0.000000,  -0.101534]
    <r_e> [Ang]:                  [ -0.000000,   0.000000,  -0.157230]
    |<r_e - r_h>| [Ang]:            0.055695
    Hole size [Ang]:                1.500722
      Cartesian components [Ang]: [  1.117802,   0.556974,   0.832144]
    Electron size [Ang]:            1.793465
      Cartesian components [Ang]: [  1.240856,   1.062668,   0.739952]

  Transition density matrix analysis:
  -----------------------------------
  
  CT numbers (Mulliken)
    omega =     0.8989
    <Phe> =    -0.0158
  
  Exciton analysis of the transition density matrix
    Trans. dipole moment [D]:             0.000000
      Cartesian components [D]:         [ -0.000000,   0.000000,  -0.000000]
    <r_h> [Ang]:                        [  0.000000,   0.000000,  -0.137592]
    <r_e> [Ang]:                        [ -0.000000,   0.000000,  -0.186575]
    |<r_e - r_h>| [Ang]:                  0.048983
    Hole size [Ang]:                      1.300596
      Cartesian components [Ang]:       [  1.073792,   0.417502,   0.603500]
    Electron size [Ang]:                  1.821861
      Cartesian components [Ang]:       [  1.277271,   1.110121,   0.674823]
    RMS electron-hole separation [Ang]:   2.221106
      Cartesian components [Ang]:       [  1.645100,   1.185316,   0.906634]
    Covariance(r_h, r_e) [Ang^2]:         0.039906
    Correlation coefficient:              0.016841
    Center-of-mass size [Ang]:            1.128111
      Cartesian components [Ang]:       [  0.845953,   0.593376,   0.452662]

  Decomposition into state-averaged NTOs
    H- 2 -> L+ 0:  0.6638 ( 88.1%)
                   omega =  89.9%
  ----------------------------------------------------------------------------


  Excited state 8 (singlet, A2)                                    [converged]
  ----------------------------------------------------------------------------
  Term symbol:  8 (1) A2                                    R^2 =  1.15249e-09

  Total energy:                                            -78.4960747660 a.u.
  Excitation energy:                                               9.475723 eV

  Osc. strength:                                                      0.000000
  Trans. dip. moment [a.u.]:           [   0.000000,    0.000000,   -0.000000]
  <i|r^2|0> [a.u.]:                    [   0.000000,    0.000000,    0.000000]

  Dip. moment [a.u.]:                  [   0.000000,   -0.000000,    2.467582]
  Total dipole [Debye]:                                               6.271970
  <r^2> [a.u.]:                        [ 101.089382,   28.254851,   80.684357]
  Total <r^2> [a.u.]:                                               210.028590

  V1^2 = 0.0045, V2^2 = 0.9955

  Important amplitudes:
      occ i      occ j       vir a       vir b          v   
    ---------------------------------------------------------
     5 (A1) A   1 (B2) A    6 (A1) A    4 (B1) A      0.1727
     5 (A1) A   1 (B2) B    4 (B1) A    6 (A1) B     -0.1556
    ---------------------------------------------------------

  Density matrix analysis:
  ------------------------
  NOs
    Occupation of frontier NOs:
       0.8665   0.9375
    Number of electrons: 18.000000
    Number of unpaired electrons: n_u =  4.29284, n_u,nl =  4.07416
    NO participation ratio (PR_NO):  5.484289
  
  
  Mulliken Population Analysis
  Atom      Charge (e)              h+              e-           Del q
  --------------------------------------------------------------------
   1 C       -0.727049        0.567029       -0.898708       -0.331679
   2 C       -0.727049        0.567029       -0.898708       -0.331679
   3 H        0.133376        0.012897       -0.050069       -0.037173
   4 H        0.133376        0.012897       -0.050069       -0.037173
   5 H        0.004213        0.003897       -0.041906       -0.038009
   6 H        0.004213        0.003897       -0.041906       -0.038009
   7 H        0.178920        0.828268       -0.014547        0.813721
  --------------------------------------------------------------------
  Sum:       -1.000000        1.995913       -1.995913        0.000000
  
  Multipole moment analysis of the density matrix
    Molecular charge:                      -1.000000
    Number of electrons:                   18.000000
      Center of electronic charge [Ang]: [ -0.000000,   0.000000,  -0.072544]
    Total nuclear charge:                  17.000000
      Center of nuclear charge [Ang]:    [ -0.000000,   0.000000,   0.000000]
    Dipole moment [D]:                     6.271968
      Cartesian components [D]:          [  0.000000,  -0.000000,   6.271968]
    RMS size of the density [Ang]:         1.806151
      Cartesian components [Ang]:        [  1.254058,   0.662997,   1.118014]
  
  Exciton analysis of the difference density matrix
    <r_h> [Ang]:                  [  0.000000,  -0.000000,   1.242867]
    <r_e> [Ang]:                  [ -0.000000,   0.000000,  -0.529475]
    |<r_e - r_h>| [Ang]:            1.772342
    Hole size [Ang]:                1.978011
      Cartesian components [Ang]: [  0.767530,   0.826334,   1.624991]
    Electron size [Ang]:            3.670390
      Cartesian components [Ang]: [  2.714608,   1.530363,   1.939241]

  Transition density matrix analysis:
  -----------------------------------
  
  CT numbers (Mulliken)
    omega =     0.0044
    <Phe> =    -0.0045
  
  Exciton analysis of the transition density matrix
    Trans. dipole moment [D]:             0.000000
      Cartesian components [D]:         [  0.000000,   0.000000,  -0.000000]
    <r_h> [Ang]:                        [  0.000000,   0.000000,   0.031250]
    <r_e> [Ang]:                        [  0.000000,   0.000000,  -0.927102]
    |<r_e - r_h>| [Ang]:                  0.958352
    Hole size [Ang]:                      1.481164
      Cartesian components [Ang]:       [  0.839467,   0.799844,   0.921626]
    Electron size [Ang]:                  3.195493
      Cartesian components [Ang]:       [  2.252364,   1.517326,   1.683970]
    RMS electron-hole separation [Ang]:   3.618020
      Cartesian components [Ang]:       [  2.413993,   1.727261,   2.068641]
    Covariance(r_h, r_e) [Ang^2]:         0.116697
    Correlation coefficient:              0.024656
    Center-of-mass size [Ang]:            1.777528
      Cartesian components [Ang]:       [  1.196697,   0.851561,   1.001182]

  Decomposition into state-averaged NTOs
                   omega =   0.4%
  ----------------------------------------------------------------------------


  Excited state 9 (singlet, A2)                                    [converged]
  ----------------------------------------------------------------------------
  Term symbol:  9 (1) A2                                    R^2 =  1.19789e-07

  Total energy:                                            -78.4851809006 a.u.
  Excitation energy:                                               9.772161 eV

  Osc. strength:                                                      0.000000
  Trans. dip. moment [a.u.]:           [  -0.000000,    0.000000,    0.000000]
  <i|r^2|0> [a.u.]:                    [   0.000000,   -0.000000,   -0.000000]

  Dip. moment [a.u.]:                  [  -0.000000,   -0.000000,   -0.053862]
  Total dipole [Debye]:                                               0.136902
  <r^2> [a.u.]:                        [  98.052468,   31.372181,   75.605833]
  Total <r^2> [a.u.]:                                               205.030482

  V1^2 = 0.0234, V2^2 = 0.9766

  Important amplitudes:
      occ i      occ j       vir a       vir b          v   
    ---------------------------------------------------------
     5 (A1) A   1 (B2) B    4 (B1) A    8 (A1) B     -0.1654
     5 (A1) A   1 (B2) A    7 (A1) A    4 (B1) A      0.1485
    ---------------------------------------------------------

  Density matrix analysis:
  ------------------------
  NOs
    Occupation of frontier NOs:
       0.8808   0.9423
    Number of electrons: 18.000000
    Number of unpaired electrons: n_u =  4.28992, n_u,nl =  4.05364
    NO participation ratio (PR_NO):  5.880413
  
  
  Mulliken Population Analysis
  Atom      Charge (e)              h+              e-           Del q
  --------------------------------------------------------------------
   1 C       -0.750869        0.561742       -0.917241       -0.355499
   2 C       -0.750869        0.561742       -0.917241       -0.355499
   3 H        0.153666        0.013102       -0.029984       -0.016882
   4 H        0.153666        0.013102       -0.029984       -0.016882
   5 H        0.040407        0.006087       -0.007903       -0.001815
   6 H        0.040407        0.006087       -0.007903       -0.001815
   7 H        0.113592        0.817401       -0.069008        0.748394
  --------------------------------------------------------------------
  Sum:       -1.000000        1.979264       -1.979264        0.000000
  
  Multipole moment analysis of the density matrix
    Molecular charge:                      -1.000000
    Number of electrons:                   18.000000
      Center of electronic charge [Ang]: [  0.000000,   0.000000,   0.001583]
    Total nuclear charge:                  17.000000
      Center of nuclear charge [Ang]:    [ -0.000000,   0.000000,   0.000000]
    Dipole moment [D]:                     0.136902
      Cartesian components [D]:          [ -0.000000,  -0.000000,  -0.136902]
    RMS size of the density [Ang]:         1.785969
      Cartesian components [Ang]:        [  1.235077,   0.698614,   1.084531]
  
  Exciton analysis of the difference density matrix
    <r_h> [Ang]:                  [ -0.000000,  -0.000000,   1.231023]
    <r_e> [Ang]:                  [  0.000000,   0.000000,   0.117908]
    |<r_e - r_h>| [Ang]:            1.113116
    Hole size [Ang]:                1.976975
      Cartesian components [Ang]: [  0.764947,   0.825664,   1.625289]
    Electron size [Ang]:            3.614892
      Cartesian components [Ang]: [  2.644334,   1.672095,   1.810812]

  Transition density matrix analysis:
  -----------------------------------
  
  CT numbers (Mulliken)
    omega =     0.0227
    <Phe> =    -0.0025
  
  Exciton analysis of the transition density matrix
    Trans. dipole moment [D]:             0.000000
      Cartesian components [D]:         [ -0.000000,   0.000000,   0.000000]
    <r_h> [Ang]:                        [ -0.000000,  -0.000000,  -0.166611]
    <r_e> [Ang]:                        [  0.000000,  -0.000000,  -0.408058]
    |<r_e - r_h>| [Ang]:                  0.241446
    Hole size [Ang]:                      1.317007
      Cartesian components [Ang]:       [  0.828115,   0.828203,   0.602340]
    Electron size [Ang]:                  3.506348
      Cartesian components [Ang]:       [  2.541563,   1.769066,   1.644793]
    RMS electron-hole separation [Ang]:   3.737727
      Cartesian components [Ang]:       [  2.656517,   1.949235,   1.764653]
    Covariance(r_h, r_e) [Ang^2]:         0.058341
    Correlation coefficient:              0.012634
    Center-of-mass size [Ang]:            1.880536
      Cartesian components [Ang]:       [  1.344763,   0.978712,   0.877583]

  Decomposition into state-averaged NTOs
    H- 0 -> L+ 5: -0.0939 (  1.8%)
                   omega =   2.3%
  ----------------------------------------------------------------------------


  Excited state 10 (singlet, A2)                                    [converged]
  ----------------------------------------------------------------------------
  Term symbol:  10 (1) A2                                   R^2 =  6.17294e-06

  Total energy:                                            -78.4804455219 a.u.
  Excitation energy:                                               9.901017 eV

  Osc. strength:                                                      0.000000
  Trans. dip. moment [a.u.]:           [   0.000000,   -0.000000,    0.000000]
  <i|r^2|0> [a.u.]:                    [   0.000000,    0.000000,    0.000000]

  Dip. moment [a.u.]:                  [  -0.000000,   -0.000000,   -3.681861]
  Total dipole [Debye]:                                               9.358359
  <r^2> [a.u.]:                        [  58.133739,   42.341567,   83.121049]
  Total <r^2> [a.u.]:                                               183.596356

  V1^2 = 0.8690, V2^2 = 0.1310

  Important amplitudes:
      occ i      occ j       vir a       vir b          v   
    ---------------------------------------------------------
     3 (B1) A               2 (B2) A                 -0.6446
     3 (B1) A               3 (B2) A                 -0.1114
    ---------------------------------------------------------

  Density matrix analysis:
  ------------------------
  NOs
    Occupation of frontier NOs:
       0.9710   1.0739
    Number of electrons: 18.000000
    Number of unpaired electrons: n_u =  2.60019, n_u,nl =  2.15009
    NO participation ratio (PR_NO):  3.663507
  
  
  Mulliken Population Analysis
  Atom      Charge (e)              h+              e-           Del q
  --------------------------------------------------------------------
   1 C       -0.688225        0.340304       -0.633159       -0.292855
   2 C       -0.688225        0.340304       -0.633159       -0.292855
   3 H        0.268127        0.145435       -0.047857        0.097579
   4 H        0.268127        0.145435       -0.047857        0.097579
   5 H        0.191932        0.167564       -0.017854        0.149710
   6 H        0.191932        0.167564       -0.017854        0.149710
   7 H       -0.543669        0.116455       -0.025322        0.091133
  --------------------------------------------------------------------
  Sum:       -1.000000        1.423061       -1.423061        0.000000
  
  Multipole moment analysis of the density matrix
    Molecular charge:                      -1.000000
    Number of electrons:                   18.000000
      Center of electronic charge [Ang]: [  0.000000,   0.000000,   0.108242]
    Total nuclear charge:                  17.000000
      Center of nuclear charge [Ang]:    [ -0.000000,   0.000000,   0.000000]
    Dipole moment [D]:                     9.358356
      Cartesian components [D]:          [ -0.000000,  -0.000000,  -9.358356]
    RMS size of the density [Ang]:         1.686570
      Cartesian components [Ang]:        [  0.950997,   0.811612,   1.131994]
  
  Exciton analysis of the difference density matrix
    <r_h> [Ang]:                  [  0.000000,  -0.000000,   0.134245]
    <r_e> [Ang]:                  [  0.000000,   0.000000,  -0.064830]
    |<r_e - r_h>| [Ang]:            0.199075
    Hole size [Ang]:                1.976199
      Cartesian components [Ang]: [  1.175545,   0.714499,   1.418783]
    Electron size [Ang]:            3.217425
      Cartesian components [Ang]: [  1.561541,   2.368451,   1.517844]

  Transition density matrix analysis:
  -----------------------------------
  
  CT numbers (Mulliken)
    omega =     0.8540
    <Phe> =    -0.0007
  
  Exciton analysis of the transition density matrix
    Trans. dipole moment [D]:             0.000000
      Cartesian components [D]:         [  0.000000,  -0.000000,   0.000000]
    <r_h> [Ang]:                        [ -0.000000,  -0.000000,  -0.113819]
    <r_e> [Ang]:                        [  0.000000,   0.000000,  -0.177910]
    |<r_e - r_h>| [Ang]:                  0.064091
    Hole size [Ang]:                      1.528506
      Cartesian components [Ang]:       [  1.124579,   0.424155,   0.944323]
    Electron size [Ang]:                  3.629642
      Cartesian components [Ang]:       [  1.683112,   2.783088,   1.611167]
    RMS electron-hole separation [Ang]:   3.896117
      Cartesian components [Ang]:       [  1.941315,   2.814282,   1.868380]
    Covariance(r_h, r_e) [Ang^2]:         0.167508
    Correlation coefficient:              0.030193
    Center-of-mass size [Ang]:            1.990330
      Cartesian components [Ang]:       [  1.051949,   1.408083,   0.933873]

  Decomposition into state-averaged NTOs
    H- 3 -> L+ 4: -0.6488 ( 84.2%)
                   omega =  85.4%
  ----------------------------------------------------------------------------


--------------------------------------------------------------------------------
  Time of ADC calculation:  CPU 566.06 s  wall 136.56 s
================================================================================
 
 --------------------------------------------------------------
             Orbital Energies (a.u.) and Symmetries
 --------------------------------------------------------------
 
 Alpha MOs, Restricted
 -- Occupied --                  
-11.066 -11.064  -0.872  -0.614  -0.488  -0.399  -0.342  -0.208
  1 A1    1 B1    2 A1    2 B1    3 A1    4 A1    3 B1    1 B2                 
 -0.025
  5 A1                                                                         
 -- Virtual --                   
  0.175   0.193   0.214   0.217   0.222   0.238   0.308   0.327
  4 B1    6 A1    2 B2    1 A2    7 A1    5 B1    8 A1    2 A2                 
  0.342   0.428   0.458   0.468   0.491   0.493   0.495   0.531
  6 B1    9 A1    7 B1   10 A1    3 B2    8 B1   11 A1    9 B1                 
  0.534   0.573   0.710   0.773   0.971   1.013   1.073   1.098
 12 A1    3 A2   10 B1   11 B1   13 A1   14 A1   15 A1   12 B1                 
  1.122   1.193   1.229   1.262   1.275   1.286   1.293   1.304
 16 A1   13 B1   17 A1    4 B2   18 A1    5 B2   14 B1    4 A2                 
  1.441   1.455   1.457   1.611   1.790   1.834   1.902   1.908
 15 B1    5 A2    6 B2   16 B1   19 A1   17 B1    7 B2   20 A1                 
  1.951   2.028   2.043   2.111   2.134   2.192   2.237   2.273
 18 B1   21 A1    6 A2    8 B2   19 B1    9 B2   22 A1   23 A1                 
  2.349   2.498   2.583   2.656   2.738   2.765   3.000   3.028
  7 A2   20 B1    8 A2   24 A1   21 B1   22 B1   25 A1   26 A1                 
  3.432   3.515
 23 B1   24 B1                                                                 
 
 Beta MOs, Restricted
 -- Occupied --                  
-11.066 -11.064  -0.872  -0.614  -0.488  -0.399  -0.342  -0.208
  1 A1    1 B1    2 A1    2 B1    3 A1    4 A1    3 B1    1 B2                 
 -0.025
  5 A1                                                                         
 -- Virtual --                   
  0.175   0.193   0.214   0.217   0.222   0.238   0.308   0.327
  4 B1    6 A1    2 B2    1 A2    7 A1    5 B1    8 A1    2 A2                 
  0.342   0.428   0.458   0.468   0.491   0.493   0.495   0.531
  6 B1    9 A1    7 B1   10 A1    3 B2    8 B1   11 A1    9 B1                 
  0.534   0.573   0.710   0.773   0.971   1.013   1.073   1.098
 12 A1    3 A2   10 B1   11 B1   13 A1   14 A1   15 A1   12 B1                 
  1.122   1.193   1.229   1.262   1.275   1.286   1.293   1.304
 16 A1   13 B1   17 A1    4 B2   18 A1    5 B2   14 B1    4 A2                 
  1.441   1.455   1.457   1.611   1.790   1.834   1.902   1.908
 15 B1    5 A2    6 B2   16 B1   19 A1   17 B1    7 B2   20 A1                 
  1.951   2.028   2.043   2.111   2.134   2.192   2.237   2.273
 18 B1   21 A1    6 A2    8 B2   19 B1    9 B2   22 A1   23 A1                 
  2.349   2.498   2.583   2.656   2.738   2.765   3.000   3.028
  7 A2   20 B1    8 A2   24 A1   21 B1   22 B1   25 A1   26 A1                 
  3.432   3.515
 23 B1   24 B1                                                                 
 --------------------------------------------------------------
 
          Ground-State Mulliken Net Atomic Charges

     Atom                 Charge (a.u.)
  ----------------------------------------
      1 C                    -0.370570
      2 C                    -0.370570
      3 H                     0.173021
      4 H                     0.173021
      5 H                     0.034367
      6 H                     0.034367
      7 H                    -0.673637
  ----------------------------------------
  Sum of atomic charges =    -1.000000

 -----------------------------------------------------------------
                    Cartesian Multipole Moments
 -----------------------------------------------------------------
    Charge (ESU x 10^10)
                -4.8032
    Dipole Moment (Debye)
         X      -0.0000      Y      -0.0000      Z     -11.0161
       Tot      11.0161
    Quadrupole Moments (Debye-Ang)
        XX     -19.2390     XY       0.0000     YY     -22.1112
        XZ      -0.0000     YZ       0.0000     ZZ     -52.1002
    Octopole Moments (Debye-Ang^2)
       XXX      -0.0000    XXY      -0.0000    XYY       0.0000
       YYY       0.0000    XXZ      -8.7210    XYZ      -0.0000
       YYZ      -9.5296    XZZ      -0.0000    YZZ       0.0000
       ZZZ    -115.8421
    Hexadecapole Moments (Debye-Ang^3)
      XXXX     -90.3184   XXXY       0.0000   XXYY     -22.4820
      XYYY       0.0000   YYYY     -41.4878   XXXZ      -0.0000
      XXYZ       0.0000   XYYZ      -0.0000   YYYZ       0.0000
      XXZZ     -58.0029   XYZZ       0.0000   YYZZ     -52.4366
      XZZZ      -0.0000   YZZZ       0.0000   ZZZZ    -504.3028
 -----------------------------------------------------------------
 Total job time:  219.40s(wall), 611.36s(cpu) 
 Mon Mar 28 17:26:46 2022

        *************************************************************
        *                                                           *
        *  Thank you very much for using Q-Chem.  Have a nice day.  *
        *                                                           *
        *************************************************************


