/src/tsommerfeld/qchem/exe/qcprog.exe .input0.5.15531.qcin.1 /src/jdavis/qchem.scratch/qchem15531/

                  Welcome to Q-Chem
     A Quantum Leap Into The Future Of Chemistry


 Q-Chem 5.4 (devel), Q-Chem, Inc., Pleasanton, CA (2021)

 E. Epifanovsky,  A. T. B. Gilbert,  Xintian Feng,  Joonho Lee,  Yuezhi Mao,  
 N. Mardirossian,  P. Pokhilko,  A. White,  M. Wormit,  M. P. Coons,  
 A. L. Dempwolff,  Zhengting Gan,  D. Hait,  P. R. Horn,  L. D. Jacobson,  
 I. Kaliman,  J. Kussmann,  A. W. Lange,  Ka Un Lao,  D. S. Levine,  Jie Liu,  
 S. C. McKenzie,  A. F. Morrison,  K. Nanda,  F. Plasser,  D. R. Rehn,  
 M. L. Vidal,  Zhi-Qiang You,  Ying Zhu,  B. Alam,  B. Albrecht,  
 A. Aldossary,  E. Alguire,  J. H. Andersen,  D. Barton,  K. Begam,  A. Behn,  
 Y. A. Bernard,  E. J. Berquist,  H. Burton,  A. Carreras,  K. Carter-Fenk,  
 R. Chakraborty,  A. D. Chien,  K. D. Closser,  V. Cofer-Shabica,  
 S. Dasgupta,  Jia Deng,  M. de Wergifosse,  M. Diedenhofen,  Hainam Do,  
 S. Ehlert,  Po-Tung Fang,  S. Fatehi,  Qingguo Feng,  T. Friedhoff,  
 J. Gayvert,  Qinghui Ge,  G. Gidofalvi,  M. Goldey,  J. Gomes,  
 C. Gonzalez-Espinoza,  S. Gulania,  A. Gunina,  M. W. D. Hanson-Heine,  
 P. H. P. Harbach,  A. W. Hauser,  M. F. Herbst,  M. Hernandez Vera,  
 M. Hodecker,  Z. C. Holden,  S. Houck,  Xunkun Huang,  Kerwin Hui,  
 B. C. Huynh,  M. Ivanov,  Hyunjun Ji,  Hanjie Jiang,  B. Kaduk,  S. Kaehler,  
 K. Khistyaev,  Jaehoon Kim,  P. Klunzinger,  Z. Koczor-Benda,  
 Joong Hoon Koh,  D. Kosenkov,  L. Koulias,  T. Kowalczyk,  C. M. Krauter,  
 K. Kue,  A. Kunitsa,  T. Kus,  A. Landau,  K. V. Lawler,  D. Lefrancois,  
 S. Lehtola,  Rain Li,  Yi-Pei Li,  Jiashu Liang,  M. Liebenthal,  
 Hung-Hsuan Lin,  You-Sheng Lin,  Fenglai Liu,  Kuan-Yu Liu,  
 M. Loipersberger,  A. Luenser,  A. Manjanath,  P. Manohar,  E. Mansoor,  
 S. F. Manzer,  Shan-Ping Mao,  A. V. Marenich,  T. Markovich,  S. Mason,  
 S. A. Maurer,  P. F. McLaughlin,  M. F. S. J. Menger,  J.-M. Mewes,  
 S. A. Mewes,  P. Morgante,  J. W. Mullinax,  K. J. Oosterbaan,  G. Paran,  
 Alexander C. Paul,  Suranjan K. Paul,  F. Pavosevic,  Zheng Pei,  S. Prager,  
 E. I. Proynov,  E. Ramos,  B. Rana,  A. E. Rask,  A. Rettig,  R. M. Richard,  
 F. Rob,  E. Rossomme,  T. Scheele,  M. Scheurer,  M. Schneider,  
 N. Sergueev,  S. M. Sharada,  W. Skomorowski,  D. W. Small,  C. J. Stein,  
 Yu-Chuan Su,  E. J. Sundstrom,  Zhen Tao,  J. Thirman,  T. Tsuchimochi,  
 N. M. Tubman,  S. P. Veccham,  O. Vydrov,  J. Wenzel,  J. Witte,  A. Yamada,  
 Kun Yao,  S. Yeganeh,  S. R. Yost,  A. Zech,  Igor Ying Zhang,  Xing Zhang,  
 Yu Zhang,  D. Zuev,  A. Aspuru-Guzik,  A. T. Bell,  N. A. Besley,  
 K. B. Bravaya,  B. R. Brooks,  D. Casanova,  Jeng-Da Chai,  S. Coriani,  
 C. J. Cramer,  A. E. DePrince, III,  R. A. DiStasio Jr.,  A. Dreuw,  
 B. D. Dunietz,  T. R. Furlani,  W. A. Goddard III,  S. Grimme,  
 S. Hammes-Schiffer,  T. Head-Gordon,  W. J. Hehre,  Chao-Ping Hsu,  
 T.-C. Jagau,  Yousung Jung,  A. Klamt,  Jing Kong,  D. S. Lambrecht,  
 WanZhen Liang,  N. J. Mayhall,  C. W. McCurdy,  J. B. Neaton,  
 C. Ochsenfeld,  J. A. Parkhill,  R. Peverati,  V. A. Rassolov,  Yihan Shao,  
 L. V. Slipchenko,  T. Stauch,  R. P. Steele,  J. E. Subotnik,  
 A. J. W. Thom,  A. Tkatchenko,  D. G. Truhlar,  T. Van Voorhis,  
 T. A. Wesolowski,  K. B. Whaley,  H. L. Woodcock III,  P. M. Zimmerman,  
 S. Faraji,  P. M. W. Gill,  M. Head-Gordon,  J. M. Herbert,  A. I. Krylov

 Additional authors for Version 5.4.1: 
 S. Kotaru,  Shaozhi Li,  Xiangyuan Li,  F. Matz,  A. Molle,  Haisheng Ren,  
 Yingli Su,  Hung-Yi Tsai,  C. Utku,  Fang Wang

 Contributors to earlier versions of Q-Chem not listed above: 
 R. D. Adamson,  B. Austin,  R. Baer,  J. Baker,  G. J. O. Beran,  
 K. Brandhorst,  S. T. Brown,  E. F. C. Byrd,  A. K. Chakraborty,  
 G. K. L. Chan,  Chun-Min Chang,  Yunqing Chen,  C.-L. Cheng,  
 Siu Hung Chien,  D. M. Chipman,  D. L. Crittenden,  H. Dachsel,  
 R. J. Doerksen,  A. D. Dutoi,  R. G. Edgar,  J. Fosso-Tande,  
 L. Fusti-Molnar,  D. Ghosh,  A. Ghysels,  A. Golubeva-Zadorozhnaya,  
 J. Gonthier,  M. S. Gordon,  S. R. Gwaltney,  G. Hawkins,  J. E. Herr,  
 A. Heyden,  S. Hirata,  E. G. Hohenstein,  G. Kedziora,  F. J. Keil,  
 C. Kelley,  Jihan Kim,  R. A. King,  R. Z. Khaliullin,  P. P. Korambath,  
 W. Kurlancheek,  A. Laurent,  A. M. Lee,  M. S. Lee,  S. V. Levchenko,  
 Ching Yeh Lin,  D. Liotard,  E. Livshits,  R. C. Lochan,  I. Lotan,  
 L. A. Martinez-Martinez,  P. E. Maslen,  N. Nair,  D. P. O'Neill,  
 D. Neuhauser,  E. Neuscamman,  C. M. Oana,  R. Olivares-Amaya,  R. Olson,  
 T. M. Perrine,  B. Peters,  P. A. Pieniazek,  A. Prociuk,  Y. M. Rhee,  
 J. Ritchie,  M. A. Rohrdanz,  E. Rosta,  N. J. Russ,  H. F. Schaefer III,  
 M. W. Schmidt,  N. E. Schultz,  S. Sharma,  N. Shenvi,  C. D. Sherrill,  
 A. C. Simmonett,  A. Sodt,  T. Stein,  D. Stuck,  K. S. Thanthiriwatte,  
 V. Vanovschi,  L. Vogt,  Tao Wang,  A. Warshel,  M. A. Watson,  
 C. F. Williams,  Q. Wu,  X. Xu,  Jun Yang,  W. Zhang,  Yan Zhao

 Please cite Q-Chem as follows:
 Y. Shao et al., Mol. Phys. 113, 184-215 (2015)
 DOI: 10.1080/00268976.2014.952696

 Q-Chem 5.4.1 for Intel X86 EM64T Linux

 Parts of Q-Chem use Armadillo 9.900.5 (Nocturnal Misbehaviour).
 http://arma.sourceforge.net/

 Q-Chem begins on Mon Mar 28 16:23:35 2022  

 Host: node01
0

     Scratch files written to /src/jdavis/qchem.scratch/qchem15531//
 Processing $rem in /src/tsommerfeld/qchem/config/preferences:
 Processing $rem in /home/jdavis/.qchemrc:

 Checking the input file for inconsistencies... 	...done.

--------------------------------------------------------------
User input:
--------------------------------------------------------------
$molecule
-1 1
C        -0.6645000000    0.0000000000   -0.1764707059
C         0.6645000000    0.0000000000   -0.1764707059
H        -1.1590800000    0.0000000000    0.7858782941
H         1.1590800000    0.0000000000    0.7858782941
H        -1.1590800000    0.0000000000   -1.1388187059
H         1.1590800000    0.0000000000   -1.1388187059
H         0.0000000000    0.0000000000    2.8235292941
$end

$rem
   METHOD adc(3)
   BASIS gen
   PURECART 11
   EE_STATES [0,10,0,0]
   scf_convergence 8
   ADC_DAVIDSON_MAXITER 120
   ADC_DAVIDSON_MAXSUBSPACE 200
   adc_nguess_singles 100
   THRESH 14
   S2THRESH 14
   adc_davidson_conv 5
   adc_davidson_thresh 14
   THREADS 10
   MEM_TOTAL 95000
   STATE_ANALYSIS TRUE
$end
$basis
C 1
S   9   1.00
      6.665000D+03           6.920000D-04
      1.000000D+03           5.329000D-03
      2.280000D+02           2.707700D-02
      6.471000D+01           1.017180D-01
      2.106000D+01           2.747400D-01
      7.495000D+00           4.485640D-01
      2.797000D+00           2.850740D-01
      5.215000D-01           1.520400D-02
      1.596000D-01          -3.191000D-03
S   9   1.00
      6.665000D+03          -1.460000D-04
      1.000000D+03          -1.154000D-03
      2.280000D+02          -5.725000D-03
      6.471000D+01          -2.331200D-02
      2.106000D+01          -6.395500D-02
      7.495000D+00          -1.499810D-01
      2.797000D+00          -1.272620D-01
      5.215000D-01           5.445290D-01
      1.596000D-01           5.804960D-01
S   1   1.00
      1.596000D-01           1.000000D+00
S   1   1.00
      0.0469000              1.0000000
P   4   1.00
      9.439000D+00           3.810900D-02
      2.002000D+00           2.094800D-01
      5.456000D-01           5.085570D-01
      1.517000D-01           4.688420D-01
P   1   1.00
      1.517000D-01           1.000000D+00
P   1   1.00
      0.0505667      1.0000000
P   1   1.00
      0.0252833      1.0000000
D   1   1.00
      5.500000D-01           1.0000000
****
C 2
S   9   1.00
      6.665000D+03           6.920000D-04
      1.000000D+03           5.329000D-03
      2.280000D+02           2.707700D-02
      6.471000D+01           1.017180D-01
      2.106000D+01           2.747400D-01
      7.495000D+00           4.485640D-01
      2.797000D+00           2.850740D-01
      5.215000D-01           1.520400D-02
      1.596000D-01          -3.191000D-03
S   9   1.00
      6.665000D+03          -1.460000D-04
      1.000000D+03          -1.154000D-03
      2.280000D+02          -5.725000D-03
      6.471000D+01          -2.331200D-02
      2.106000D+01          -6.395500D-02
      7.495000D+00          -1.499810D-01
      2.797000D+00          -1.272620D-01
      5.215000D-01           5.445290D-01
      1.596000D-01           5.804960D-01
S   1   1.00
      1.596000D-01           1.000000D+00
S   1   1.00
      0.0469000              1.0000000
P   4   1.00
      9.439000D+00           3.810900D-02
      2.002000D+00           2.094800D-01
      5.456000D-01           5.085570D-01
      1.517000D-01           4.688420D-01
P   1   1.00
      1.517000D-01           1.000000D+00
P   1   1.00
      0.0505667      1.0000000
P   1   1.00
      0.0252833      1.0000000
D   1   1.00
      5.500000D-01           1.0000000
****
H 3
cc-pVDZ
****
H 4
cc-pVDZ
****
H 5
cc-pVDZ
****
H 6
cc-pVDZ
****
H 7
aug-cc-pVDZ
****
$end
--------------------------------------------------------------
 ----------------------------------------------------------------
             Standard Nuclear Orientation (Angstroms)
    I     Atom           X                Y                Z
 ----------------------------------------------------------------
    1      C      -0.6645000000    -0.0000000000    -0.1764707059
    2      C       0.6645000000     0.0000000000    -0.1764707059
    3      H      -1.1590800000    -0.0000000000     0.7858782941
    4      H       1.1590800000     0.0000000000     0.7858782941
    5      H      -1.1590800000    -0.0000000000    -1.1388187059
    6      H       1.1590800000     0.0000000000    -1.1388187059
    7      H       0.0000000000     0.0000000000     2.8235292941
 ----------------------------------------------------------------
 Molecular Point Group                 C2v   NOp =  4
 Largest Abelian Subgroup              C2v   NOp =  4
 Nuclear Repulsion Energy =          36.36366470 hartrees
 There are        9 alpha and        9 beta electrons
 Requested basis set is non-standard
 There are 33 shells and 67 basis functions
 Total memory of 95000 MB is distributed as follows: 
   MEM_STATIC is set to 192 MB
   QALLOC/CCMAN JOB total memory use is  94808 MB
 Warning: actual memory use might exceed 95000 MB

 Total QAlloc Memory Limit  95000 MB
 Mega-Array Size       188 MB
 MEM_STATIC part       192 MB

                       Distance Matrix (Angstroms)
             C (  1)   C (  2)   H (  3)   H (  4)   H (  5)   H (  6)
   C (  2)  1.329000
   H (  3)  1.082000  2.061931
   H (  4)  2.061931  1.082000  2.318160
   H (  5)  1.082000  2.061931  1.924697  3.013026
   H (  6)  2.061931  1.082000  3.013026  1.924697  2.318160
   H (  7)  3.072712  3.072712  2.344246  2.344246  4.128398  4.128398

 
 A cutoff of  1.0D-14 yielded    561 shell pairs
 There are      2337 function pairs (      2484 Cartesian)
 Smallest overlap matrix eigenvalue = 1.73E-04

 Scale SEOQF with 1.000000e-01/1.000000e-01/1.000000e-01

 Standard Electronic Orientation quadrupole field applied
 Nucleus-field energy     =    -0.0000000009 hartrees
 ================ Generating on-the-fly SAD Guess ================
Attempting to make child job directory: /src/jdavis/qchem.scratch/qchem15531//Frg1/
Attempting to make child job directory: /src/jdavis/qchem.scratch/qchem15531//Frg2/
Creating input file /src/jdavis/qchem.scratch/qchem15531/Frg1.input
using default PutDataFrgm: nothing
calling putenv with: QCSCRATCH=/src/jdavis/qchem.scratch/qchem15531/ 
Spawning Job For Fragment 0
Done Job For Fragment 0
calling putenv with: QCSCRATCH=/src/jdavis/qchem.scratch 
calling putenv with: QCTHREADS=1 
Creating input file /src/jdavis/qchem.scratch/qchem15531/Frg2.input
using default PutDataFrgm: nothing
calling putenv with: QCSCRATCH=/src/jdavis/qchem.scratch/qchem15531/ 
Spawning Job For Fragment 1
Done Job For Fragment 1
calling putenv with: QCSCRATCH=/src/jdavis/qchem.scratch 
calling putenv with: QCTHREADS=1 
 Time for running child jobs:  CPU 1.77 s  wall 54.48 s
 ============= Method Specific SAD Guess Constructed =============
 Guess from on-the-fly superposition of atomic densities
 Warning: Energy on first SCF cycle will be non-variational
 A restricted Hartree-Fock SCF calculation will be
 performed using Pulay DIIS extrapolation
 SCF converges when DIIS error is below 1.0E-08
 using 10 threads for integral computing
 -------------------------------------------------------
 OpenMP Integral computing Module                
 Release: version 1.0, May 2013, Q-Chem Inc. Pittsburgh 
 -------------------------------------------------------
 ---------------------------------------
  Cycle       Energy         DIIS Error
 ---------------------------------------
    1     -78.8140095544      7.37E-02
    2     -78.4602683357      6.97E-03
    3     -78.5100912740      1.75E-03
    4     -78.5127721162      5.52E-04
    5     -78.5130910133      1.22E-04
    6     -78.5131169187      2.88E-05
    7     -78.5131191991      7.72E-06
    8     -78.5131194167      1.16E-06
    9     -78.5131194227      2.72E-07
   10     -78.5131194232      5.75E-08
   11     -78.5131194232      1.22E-08
   12     -78.5131194232      1.77E-09 Convergence criterion met
 ---------------------------------------
 SCF time:  CPU 11.73 s  wall 1.18 s
 SCF   energy in the final basis set = -78.51311942
 Total energy in the final basis set = -78.51311942
================================================================================
|                                                                              |
|                                 A D C  M A N                                 |
|                                                                              |
 ------------------------------------------------------------------------------ 
|                                                                              |
| Components:                                                                  |
|                                                                              |
| - libvmm - 1.3-trunk                                                         |
|   Authors:                                                                   |
|   Evgeny Epifanovsky, Ilya Kaliman                                           |
|                                                                              |
| - libtensor - 2.5-trunk                                                      |
|   Authors:                                                                   |
|   Evgeny Epifanovsky, Michael Wormit, Dmitry Zuev, Sam Manzer,               |
|   Ilya Kaliman                                                               |
|                                                                              |
| - libwfa - 1.1-trunk                                                         |
|   Authors:                                                                   |
|   Felix Plasser, Stefanie Mewes (Baeppler), Benjamin Thomitzni,              |
|   Michael Wormit, Feng Chen, Anna I. Krylov, Pavel Pokhilko                  |
|                                                                              |
| - libadc - 1.1-trunk                                                         |
|   Authors:                                                                   |
|   Michael Wormit, Adrian L. Dempwolff, Philipp H. P. Harbach,                |
|   Caroline Krauter, Dirk Rehn, Matthias Schneider, Jan Wenzel                |
|                                                                              |
| - adcman - 2.6-trunk                                                         |
|   Authors:                                                                   |
|   Michael Wormit, Adrian L. Dempwolff, Philipp H. P. Harbach,                |
|   Caroline Krauter, Daniel Lefrancois, Jan-Michael Mewes, Dirk Rehn,         |
|   Matthias Schneider, Jan Wenzel, Andreas Dreuw                              |
|                                                                              |
| Authors of earlier versions of ADCMAN:                                       |
| Andreas Dreuw, Jan Hendrik Starcke, Dirk Rehn, Michael Wormit                |
|                                                                              |
================================================================================

 
 Alpha MOs, Restricted
 -- Occupied --                  
-11.071 -11.069  -0.876  -0.619  -0.493  -0.404  -0.348  -0.213
  1 A1    1 B1    2 A1    2 B1    3 A1    4 A1    3 B1    1 B2                 
 -0.034
  5 A1                                                                         
 -- Virtual --                   
  0.145   0.167   0.169   0.173   0.177   0.186   0.266   0.287
  4 B1    2 B2    6 A1    1 A2    7 A1    5 B1    8 A1    2 A2                 
  0.324   0.332   0.345   0.371   0.372   0.383   0.453   0.474
  6 B1    7 B1    9 A1    3 B2    8 B1   10 A1    3 A2   11 A1                 
  0.502   0.507   0.666   0.707   0.887   0.987   1.031   1.032
 12 A1    9 B1   10 B1   11 B1   13 A1   14 A1   15 A1   16 A1                 
  1.087   1.092   1.119   1.140   1.154   1.230   1.242   1.280
 12 B1    4 B2   17 A1    4 A2   13 B1   14 B1   18 A1    5 B2                 
  1.447   1.450   1.465   1.517   1.775   1.780   1.879   1.885
  6 B2    5 A2   15 B1   16 B1   19 A1   17 B1   20 A1    7 B2                 
  1.934   1.980   2.021   2.087   2.103   2.176   2.187   2.239
 18 B1   21 A1    6 A2   19 B1    8 B2   22 A1    9 B2   23 A1                 
  2.337   2.483   2.578   2.625   2.727   2.750   2.964   2.993
  7 A2   20 B1    8 A2   24 A1   21 B1   22 B1   25 A1   26 A1                 
  3.409   3.509
 23 B1   24 B1                                                                 
 
 Beta MOs, Restricted
 -- Occupied --                  
-11.071 -11.069  -0.876  -0.619  -0.493  -0.404  -0.348  -0.213
  1 A1    1 B1    2 A1    2 B1    3 A1    4 A1    3 B1    1 B2                 
 -0.034
  5 A1                                                                         
 -- Virtual --                   
  0.145   0.167   0.169   0.173   0.177   0.186   0.266   0.287
  4 B1    2 B2    6 A1    1 A2    7 A1    5 B1    8 A1    2 A2                 
  0.324   0.332   0.345   0.371   0.372   0.383   0.453   0.474
  6 B1    7 B1    9 A1    3 B2    8 B1   10 A1    3 A2   11 A1                 
  0.502   0.507   0.666   0.707   0.887   0.987   1.031   1.032
 12 A1    9 B1   10 B1   11 B1   13 A1   14 A1   15 A1   16 A1                 
  1.087   1.092   1.119   1.140   1.154   1.230   1.242   1.280
 12 B1    4 B2   17 A1    4 A2   13 B1   14 B1   18 A1    5 B2                 
  1.447   1.450   1.465   1.517   1.775   1.780   1.879   1.885
  6 B2    5 A2   15 B1   16 B1   19 A1   17 B1   20 A1    7 B2                 
  1.934   1.980   2.021   2.087   2.103   2.176   2.187   2.239
 18 B1   21 A1    6 A2   19 B1    8 B2   22 A1    9 B2   23 A1                 
  2.337   2.483   2.578   2.625   2.727   2.750   2.964   2.993
  7 A2   20 B1    8 A2   24 A1   21 B1   22 B1   25 A1   26 A1                 
  3.409   3.509
 23 B1   24 B1                                                                 

--------------------------------------------------------------------------------
                                   HF Summary                                   
--------------------------------------------------------------------------------
  Energy:                                                  -78.5131194232 a.u.
  Dip. moment [a.u.]:                  [  -0.000000,    0.000000,   -4.255284]
  Total dipole [Debye]:                                              10.815856
  <r^2> [a.u.]:                        [  53.351062,   17.225270,   84.448751]
  Total <r^2> [a.u.]:                                               155.025083
--------------------------------------------------------------------------------

--------------------------------------------------------------------------------
                                 MP(2) Summary                                  
--------------------------------------------------------------------------------
  MP energy contribution:                                   -0.3056248301 a.u.
  Total energy:                                            -78.8187442533 a.u.
  Dip. moment [a.u.]:                  [  -0.000000,    0.000000,   -4.076160]
  Total dipole [Debye]:                                              10.360568
  <r^2> [a.u.]:                        [  53.967495,   17.460180,   84.398747]
  Total <r^2> [a.u.]:                                               155.826423

  Density matrix analysis:
  ------------------------
  NOs
    Occupation of frontier NOs:
       0.0449   1.9361
    Number of electrons: 18.000000
    Number of unpaired electrons: n_u =  0.46955, n_u,nl =  0.05181
    NO participation ratio (PR_NO): 16.341126
  
  
  Mulliken Population Analysis
  Atom      Charge (e)              h+              e-           Del q
  --------------------------------------------------------------------
   1 C       -0.373329        0.089497       -0.120413       -0.030916
   2 C       -0.373329        0.089497       -0.120413       -0.030916
   3 H        0.137405        0.015060       -0.017539       -0.002479
   4 H        0.137405        0.015060       -0.017539       -0.002479
   5 H        0.028164        0.019191       -0.011578        0.007612
   6 H        0.028164        0.019191       -0.011578        0.007612
   7 H       -0.584478        0.064935       -0.013370        0.051565
  --------------------------------------------------------------------
  Sum:       -1.000000        0.312430       -0.312430        0.000000
  
  Multipole moment analysis of the density matrix
    Molecular charge:                      -1.000000
    Number of electrons:                   18.000000
      Center of electronic charge [Ang]: [  0.000000,  -0.000000,   0.119834]
    Total nuclear charge:                  17.000000
      Center of nuclear charge [Ang]:    [ -0.000000,   0.000000,   0.000000]
    Dipole moment [D]:                     10.360565
      Cartesian components [D]:          [ -0.000000,   0.000000, -10.360565]
    RMS size of the density [Ang]:         1.552370
      Cartesian components [Ang]:        [  0.916286,   0.521182,   1.139580]
  
  Exciton analysis of the difference density matrix
    <r_h> [Ang]:                  [  0.000000,   0.000000,   0.333636]
    <r_e> [Ang]:                  [  0.000000,  -0.000000,   0.030245]
    |<r_e - r_h>| [Ang]:            0.303391
    Hole size [Ang]:                1.930679
      Cartesian components [Ang]: [  0.979986,   0.789298,   1.464294]
    Electron size [Ang]:            2.134515
      Cartesian components [Ang]: [  1.229990,   0.912984,   1.486519]
--------------------------------------------------------------------------------

--------------------------------------------------------------------------------
                                 MP(3) Summary                                  
--------------------------------------------------------------------------------
  MP energy contribution:                                   -0.0285881167 a.u.
  Total energy:                                            -78.8473323700 a.u.
--------------------------------------------------------------------------------
Less singles guess vectors found than requested: 85 (found), 100 (requested).
Adjusting number of doubles guess vectors to 15.
  Starting Davidson for singlet states of irrep A2 ... 
--------------------------------------------------------------------------------
   It NVec Conv  Avg. Norm  Max. Norm  Conv. states           Remark
--------------------------------------------------------------------------------
       100    0  7.162e-02  3.419e-01  0.1115 n n n n n n n n Guess.
    1  110    0  3.188e-02  1.563e-01  0.0765 n n n n n n n n 
    2  120    0  1.981e-02  1.123e-01  0.0740 n n n n n n n n 
    3  130    0  1.301e-02  1.022e-01  0.0738 n n n n n n n n 
    4  140    0  4.934e-03  3.354e-02  0.0738 n n n n n n n n 
    5  150    0  3.108e-03  2.836e-02  0.0738 n n n n n n n n 
    6  160    0  3.418e-03  3.346e-02  0.0738 n n n n n n n n 
    7  170    1  3.711e-03  3.600e-02  0.0738 y n n n n n n n 
    8  180    2  1.901e-03  1.853e-02  0.0738 y y n n n n n n 
    9  190    3  2.678e-03  2.554e-02  0.0738 y y n n y n n n 
   10  200    5  1.211e-03  1.161e-02  0.0738 y y y y y n n n 
   11   20    6  4.449e-04  4.234e-03  0.0738 y y y y y y n n Subspace collapsed.
   12   30    6  3.010e-04  2.864e-03  0.0738 y y y y y y n n 
   13   40    6  1.669e-04  1.596e-03  0.0738 y y y y y y n n 
   14   50    8  9.185e-05  8.739e-04  0.0738 y y y y y y y y 
   15   60    8  5.412e-05  5.203e-04  0.0738 y y y y y y y y 
   16   70    8  3.010e-05  2.893e-04  0.0738 y y y y y y y y 
   17   80    8  2.113e-05  1.996e-04  0.0738 y y y y y y y y 
   18   90    8  2.013e-05  1.932e-04  0.0738 y y y y y y y y 
   19  100    8  2.213e-05  2.165e-04  0.0738 y y y y y y y y 
   20  110    8  2.420e-05  2.404e-04  0.0738 y y y y y y y y 
   21  120    8  2.003e-05  1.997e-04  0.0738 y y y y y y y y 
   22  130    9  1.008e-05  1.005e-04  0.0738 y y y y y y y y 
   23  139    9  5.002e-06  4.989e-05  0.0738 y y y y y y y y 
   24  148    9  1.976e-06  1.970e-05  0.0738 y y y y y y y y 
   25  156   10  9.783e-07  9.763e-06  0.0738 y y y y y y y y Converged.
--------------------------------------------------------------------------------
  Davidson Summary: 
 ------------------------------------------------------------
  State  0: excitation energy =   0.0738 a.u.   (converged)
  State  1: excitation energy =   0.1224 a.u.   (converged)
  State  2: excitation energy =   0.2311 a.u.   (converged)
  State  3: excitation energy =   0.2315 a.u.   (converged)
  State  4: excitation energy =   0.2809 a.u.   (converged)
  State  5: excitation energy =   0.2882 a.u.   (converged)
  State  6: excitation energy =   0.3286 a.u.   (converged)
  State  7: excitation energy =   0.3375 a.u.   (converged)
  State  8: excitation energy =   0.3441 a.u.   (converged)
  State  9: excitation energy =   0.3464 a.u.   (converged)
 ------------------------------------------------------------


--------------------------------------------------------------------------------
                   State-averaged natural transition orbitals
--------------------------------------------------------------------------------
--------------------------------------------------------------------------------

--------------------------------------------------------------------------------
                             Excited State Summary
--------------------------------------------------------------------------------
--------------------------------------------------------------------------------

  Excited state 1 (singlet, A2)                                    [converged]
  ----------------------------------------------------------------------------
  Term symbol:  1 (1) A2                                    R^2 =  5.07840e-15

  Total energy:                                            -78.7734966911 a.u.
  Excitation energy:                                               2.009171 eV

  Osc. strength:                                                      0.000000
  Trans. dip. moment [a.u.]:           [  -0.000000,   -0.000000,    0.000000]
  <i|r^2|0> [a.u.]:                    [  -0.000000,    0.000000,    0.000000]

  Dip. moment [a.u.]:                  [   0.000000,    0.000000,    0.464829]
  Total dipole [Debye]:                                               1.181479
  <r^2> [a.u.]:                        [  80.234055,   43.382277,   64.298702]
  Total <r^2> [a.u.]:                                               187.915034

  V1^2 = 0.8784, V2^2 = 0.1216

  Important amplitudes:
      occ i      occ j       vir a       vir b          v   
    ---------------------------------------------------------
     5 (A1) A               1 (A2) A                  0.6282
     5 (A1) A               2 (A2) A                  0.2089
    ---------------------------------------------------------

  Density matrix analysis:
  ------------------------
  NOs
    Occupation of frontier NOs:
       0.9855   0.9932
    Number of electrons: 18.000000
    Number of unpaired electrons: n_u =  2.42734, n_u,nl =  2.05052
    NO participation ratio (PR_NO):  2.989191
  
  
  Mulliken Population Analysis
  Atom      Charge (e)              h+              e-           Del q
  --------------------------------------------------------------------
   1 C       -0.657444        0.263334       -0.547448       -0.284114
   2 C       -0.657444        0.263334       -0.547448       -0.284114
   3 H        0.082185        0.027585       -0.082805       -0.055219
   4 H        0.082185        0.027585       -0.082805       -0.055219
   5 H        0.065895        0.039152       -0.001420        0.037732
   6 H        0.065895        0.039152       -0.001420        0.037732
   7 H        0.018726        0.701907       -0.098703        0.603204
  --------------------------------------------------------------------
  Sum:       -1.000000        1.362048       -1.362048       -0.000000
  
  Multipole moment analysis of the density matrix
    Molecular charge:                      -1.000000
    Number of electrons:                   18.000000
      Center of electronic charge [Ang]: [ -0.000000,  -0.000000,  -0.013665]
    Total nuclear charge:                  17.000000
      Center of nuclear charge [Ang]:    [ -0.000000,   0.000000,   0.000000]
    Dipole moment [D]:                     1.181479
      Cartesian components [D]:          [  0.000000,   0.000000,   1.181479]
    RMS size of the density [Ang]:         1.709747
      Cartesian components [Ang]:        [  1.117234,   0.821526,   1.000059]
  
  Exciton analysis of the difference density matrix
    <r_h> [Ang]:                  [  0.000000,  -0.000000,   1.921341]
    <r_e> [Ang]:                  [ -0.000000,  -0.000000,   0.157094]
    |<r_e - r_h>| [Ang]:            1.764247
    Hole size [Ang]:                2.507663
      Cartesian components [Ang]: [  1.174142,   1.073580,   1.938348]
    Electron size [Ang]:            4.068472
      Cartesian components [Ang]: [  2.603622,   2.545976,   1.814282]

  Transition density matrix analysis:
  -----------------------------------
  
  CT numbers (Mulliken)
    omega =     0.8653
    <Phe> =     0.0010
  
  Exciton analysis of the transition density matrix
    Trans. dipole moment [D]:             0.000000
      Cartesian components [D]:         [ -0.000000,  -0.000000,   0.000000]
    <r_h> [Ang]:                        [  0.000000,  -0.000000,   2.574524]
    <r_e> [Ang]:                        [ -0.000000,  -0.000000,  -0.176149]
    |<r_e - r_h>| [Ang]:                  2.750673
    Hole size [Ang]:                      1.858345
      Cartesian components [Ang]:       [  0.922255,   0.894152,   1.342902]
    Electron size [Ang]:                  4.467371
      Cartesian components [Ang]:       [  2.947135,   2.907100,   1.679455]
    RMS electron-hole separation [Ang]:   5.564470
      Cartesian components [Ang]:       [  3.086289,   3.041067,   3.491425]
    Covariance(r_h, r_e) [Ang^2]:         0.006865
    Correlation coefficient:              0.000827
    Center-of-mass size [Ang]:            2.419947
      Cartesian components [Ang]:       [  1.544922,   1.520969,   1.075182]

  Decomposition into state-averaged NTOs
    H- 0 -> L+ 3:  0.4785 ( 45.8%)
    H- 0 -> L+ 0:  0.4180 ( 34.9%)
    H- 0 -> L+ 5: -0.1696 (  5.8%)
                   omega =  86.5%
  ----------------------------------------------------------------------------


  Excited state 2 (singlet, A2)                                    [converged]
  ----------------------------------------------------------------------------
  Term symbol:  2 (1) A2                                    R^2 =  5.31415e-15

  Total energy:                                            -78.7249293913 a.u.
  Excitation energy:                                               3.330754 eV

  Osc. strength:                                                      0.000000
  Trans. dip. moment [a.u.]:           [  -0.000000,    0.000000,   -0.000000]
  <i|r^2|0> [a.u.]:                    [   0.000000,    0.000000,   -0.000000]

  Dip. moment [a.u.]:                  [   0.000000,   -0.000000,    0.441557]
  Total dipole [Debye]:                                               1.122325
  <r^2> [a.u.]:                        [  66.730103,   29.829667,   60.775342]
  Total <r^2> [a.u.]:                                               157.335112

  V1^2 = 0.8499, V2^2 = 0.1501

  Important amplitudes:
      occ i      occ j       vir a       vir b          v   
    ---------------------------------------------------------
     5 (A1) A               2 (A2) A                  0.5946
     5 (A1) A               1 (A2) A                 -0.2154
    ---------------------------------------------------------

  Density matrix analysis:
  ------------------------
  NOs
    Occupation of frontier NOs:
       0.9817   0.9855
    Number of electrons: 18.000000
    Number of unpaired electrons: n_u =  2.45032, n_u,nl =  2.05497
    NO participation ratio (PR_NO):  3.079618
  
  
  Mulliken Population Analysis
  Atom      Charge (e)              h+              e-           Del q
  --------------------------------------------------------------------
   1 C       -0.576801        0.360857       -0.564328       -0.203471
   2 C       -0.576801        0.360857       -0.564328       -0.203471
   3 H        0.037333        0.031547       -0.131618       -0.100071
   4 H        0.037333        0.031547       -0.131618       -0.100071
   5 H        0.025804        0.012763       -0.015122       -0.002359
   6 H        0.025804        0.012763       -0.015122       -0.002359
   7 H        0.027326        0.695238       -0.083434        0.611804
  --------------------------------------------------------------------
  Sum:       -1.000000        1.505571       -1.505571       -0.000000
  
  Multipole moment analysis of the density matrix
    Molecular charge:                      -1.000000
    Number of electrons:                   18.000000
      Center of electronic charge [Ang]: [ -0.000000,   0.000000,  -0.012981]
    Total nuclear charge:                  17.000000
      Center of nuclear charge [Ang]:    [ -0.000000,   0.000000,   0.000000]
    Dipole moment [D]:                     1.122325
      Cartesian components [D]:          [  0.000000,  -0.000000,   1.122325]
    RMS size of the density [Ang]:         1.564454
      Cartesian components [Ang]:        [  1.018886,   0.681223,   0.972277]
  
  Exciton analysis of the difference density matrix
    <r_h> [Ang]:                  [  0.000000,  -0.000000,   1.737678]
    <r_e> [Ang]:                  [ -0.000000,   0.000000,   0.149794]
    |<r_e - r_h>| [Ang]:            1.587885
    Hole size [Ang]:                2.460192
      Cartesian components [Ang]: [  1.146810,   1.071413,   1.894583]
    Electron size [Ang]:            3.054544
      Cartesian components [Ang]: [  1.920665,   1.857038,   1.480776]

  Transition density matrix analysis:
  -----------------------------------
  
  CT numbers (Mulliken)
    omega =     0.8289
    <Phe> =    -0.0005
  
  Exciton analysis of the transition density matrix
    Trans. dipole moment [D]:             0.000000
      Cartesian components [D]:         [ -0.000000,   0.000000,  -0.000000]
    <r_h> [Ang]:                        [  0.000000,  -0.000000,   2.561514]
    <r_e> [Ang]:                        [ -0.000000,   0.000000,  -0.174990]
    |<r_e - r_h>| [Ang]:                  2.736504
    Hole size [Ang]:                      1.862243
      Cartesian components [Ang]:       [  0.919955,   0.890300,   1.352405]
    Electron size [Ang]:                  3.247781
      Cartesian components [Ang]:       [  2.160880,   2.096344,   1.218203]
    RMS electron-hole separation [Ang]:   4.634805
      Cartesian components [Ang]:       [  2.344353,   2.277032,   3.286419]
    Covariance(r_h, r_e) [Ang^2]:         0.011534
    Correlation coefficient:              0.001907
    Center-of-mass size [Ang]:            1.873439
      Cartesian components [Ang]:       [  1.176376,   1.139047,   0.910212]

  Decomposition into state-averaged NTOs
    H- 0 -> L+ 0:  0.4777 ( 45.6%)
    H- 0 -> L+ 3: -0.4308 ( 37.1%)
                   omega =  82.9%
  ----------------------------------------------------------------------------


  Excited state 3 (singlet, A2)                                    [converged]
  ----------------------------------------------------------------------------
  Term symbol:  3 (1) A2                                    R^2 =  1.71967e-13

  Total energy:                                            -78.6162306171 a.u.
  Excitation energy:                                               6.288599 eV

  Osc. strength:                                                      0.000000
  Trans. dip. moment [a.u.]:           [  -0.000000,   -0.000000,   -0.000000]
  <i|r^2|0> [a.u.]:                    [  -0.000000,   -0.000000,   -0.000000]

  Dip. moment [a.u.]:                  [  -0.000000,    0.000000,    0.900978]
  Total dipole [Debye]:                                               2.290057
  <r^2> [a.u.]:                        [  71.087239,   54.271434,   71.715702]
  Total <r^2> [a.u.]:                                               197.074375

  V1^2 = 0.1339, V2^2 = 0.8661

  Important amplitudes:
      occ i      occ j       vir a       vir b          v   
    ---------------------------------------------------------
     5 (A1) A   1 (B2) B    2 (A2) A    2 (B2) B     -0.2222
     1 (B2) A               4 (B1) A                  0.2146
    ---------------------------------------------------------

  Density matrix analysis:
  ------------------------
  NOs
    Occupation of frontier NOs:
       0.8880   1.0107
    Number of electrons: 18.000000
    Number of unpaired electrons: n_u =  4.13233, n_u,nl =  3.98126
    NO participation ratio (PR_NO):  5.139527
  
  
  Mulliken Population Analysis
  Atom      Charge (e)              h+              e-           Del q
  --------------------------------------------------------------------
   1 C       -0.752569        0.551247       -0.930486       -0.379239
   2 C       -0.752569        0.551247       -0.930486       -0.379239
   3 H        0.148519        0.016800       -0.005685        0.011114
   4 H        0.148519        0.016800       -0.005685        0.011114
   5 H        0.035238        0.014978       -0.007904        0.007074
   6 H        0.035238        0.014978       -0.007904        0.007074
   7 H        0.137623        0.724077       -0.001976        0.722101
  --------------------------------------------------------------------
  Sum:       -1.000000        1.890127       -1.890127        0.000000
  
  Multipole moment analysis of the density matrix
    Molecular charge:                      -1.000000
    Number of electrons:                   18.000000
      Center of electronic charge [Ang]: [  0.000000,  -0.000000,  -0.026488]
    Total nuclear charge:                  17.000000
      Center of nuclear charge [Ang]:    [ -0.000000,   0.000000,   0.000000]
    Dipole moment [D]:                     2.290056
      Cartesian components [D]:          [ -0.000000,   0.000000,   2.290056]
    RMS size of the density [Ang]:         1.750775
      Cartesian components [Ang]:        [  1.051625,   0.918862,   1.055931]
  
  Exciton analysis of the difference density matrix
    <r_h> [Ang]:                  [  0.000000,  -0.000000,   1.146970]
    <r_e> [Ang]:                  [  0.000000,  -0.000000,  -0.246475]
    |<r_e - r_h>| [Ang]:            1.393445
    Hole size [Ang]:                2.109757
      Cartesian components [Ang]: [  0.849351,   0.885952,   1.716032]
    Electron size [Ang]:            3.437570
      Cartesian components [Ang]: [  1.804922,   2.497723,   1.523325]

  Transition density matrix analysis:
  -----------------------------------
  
  CT numbers (Mulliken)
    omega =     0.1303
    <Phe> =    -0.0016
  
  Exciton analysis of the transition density matrix
    Trans. dipole moment [D]:             0.000000
      Cartesian components [D]:         [ -0.000000,  -0.000000,  -0.000000]
    <r_h> [Ang]:                        [  0.000000,  -0.000000,   0.504415]
    <r_e> [Ang]:                        [  0.000000,  -0.000000,  -1.152416]
    |<r_e - r_h>| [Ang]:                  1.656831
    Hole size [Ang]:                      1.875876
      Cartesian components [Ang]:       [  0.808516,   0.885197,   1.442788]
    Electron size [Ang]:                  4.181265
      Cartesian components [Ang]:       [  3.206685,   2.055897,   1.724364]
    RMS electron-hole separation [Ang]:   4.726742
      Cartesian components [Ang]:       [  3.300119,   2.235114,   2.540781]
    Covariance(r_h, r_e) [Ang^2]:         0.702441
    Correlation coefficient:              0.089557
    Center-of-mass size [Ang]:            2.366789
      Cartesian components [Ang]:       [  1.656976,   1.120808,   1.264877]

  Decomposition into state-averaged NTOs
    H- 1 -> L+ 1: -0.2205 (  9.7%)
    H- 0 -> L+ 5:  0.1052 (  2.2%)
                   omega =  13.0%
  ----------------------------------------------------------------------------


  Excited state 4 (singlet, A2)                                    [converged]
  ----------------------------------------------------------------------------
  Term symbol:  4 (1) A2                                    R^2 =  1.63770e-13

  Total energy:                                            -78.6158579276 a.u.
  Excitation energy:                                               6.298740 eV

  Osc. strength:                                                      0.000000
  Trans. dip. moment [a.u.]:           [   0.000000,    0.000000,    0.000000]
  <i|r^2|0> [a.u.]:                    [   0.000000,   -0.000000,    0.000000]

  Dip. moment [a.u.]:                  [  -0.000000,    0.000000,   -1.254043]
  Total dipole [Debye]:                                               3.187461
  <r^2> [a.u.]:                        [  88.349150,   29.493535,   92.834281]
  Total <r^2> [a.u.]:                                               210.676966

  V1^2 = 0.8237, V2^2 = 0.1763

  Important amplitudes:
      occ i      occ j       vir a       vir b          v   
    ---------------------------------------------------------
     1 (B2) A               4 (B1) A                 -0.6131
     1 (B2) A               6 (B1) A                 -0.1509
    ---------------------------------------------------------

  Density matrix analysis:
  ------------------------
  NOs
    Occupation of frontier NOs:
       0.8798   0.9795
    Number of electrons: 18.000000
    Number of unpaired electrons: n_u =  2.60295, n_u,nl =  2.17315
    NO participation ratio (PR_NO):  3.783587
  
  
  Mulliken Population Analysis
  Atom      Charge (e)              h+              e-           Del q
  --------------------------------------------------------------------
   1 C       -0.537489        0.541430       -0.705589       -0.164159
   2 C       -0.537489        0.541430       -0.705589       -0.164159
   3 H        0.179356        0.062511       -0.020559        0.041952
   4 H        0.179356        0.062511       -0.020559        0.041952
   5 H        0.095985        0.107856       -0.040035        0.067821
   6 H        0.095985        0.107856       -0.040035        0.067821
   7 H       -0.475704        0.138726       -0.029952        0.108774
  --------------------------------------------------------------------
  Sum:       -1.000000        1.562320       -1.562320        0.000000
  
  Multipole moment analysis of the density matrix
    Molecular charge:                      -1.000000
    Number of electrons:                   18.000000
      Center of electronic charge [Ang]: [  0.000000,  -0.000000,   0.036867]
    Total nuclear charge:                  17.000000
      Center of nuclear charge [Ang]:    [ -0.000000,   0.000000,   0.000000]
    Dipole moment [D]:                     3.187460
      Cartesian components [D]:          [ -0.000000,   0.000000,  -3.187460]
    RMS size of the density [Ang]:         1.810020
      Cartesian components [Ang]:        [  1.172374,   0.677374,   1.201198]
  
  Exciton analysis of the difference density matrix
    <r_h> [Ang]:                  [  0.000000,  -0.000000,   0.108808]
    <r_e> [Ang]:                  [  0.000000,  -0.000000,  -0.847078]
    |<r_e - r_h>| [Ang]:            0.955886
    Hole size [Ang]:                2.120403
      Cartesian components [Ang]: [  1.125814,   0.976999,   1.508020]
    Electron size [Ang]:            3.690767
      Cartesian components [Ang]: [  2.725800,   1.763908,   1.755107]

  Transition density matrix analysis:
  -----------------------------------
  
  CT numbers (Mulliken)
    omega =     0.7971
    <Phe> =    -0.0017
  
  Exciton analysis of the transition density matrix
    Trans. dipole moment [D]:             0.000000
      Cartesian components [D]:         [  0.000000,   0.000000,   0.000000]
    <r_h> [Ang]:                        [  0.000000,  -0.000000,  -0.173767]
    <r_e> [Ang]:                        [  0.000000,  -0.000000,  -1.493053]
    |<r_e - r_h>| [Ang]:                  1.319285
    Hole size [Ang]:                      1.290661
      Cartesian components [Ang]:       [  0.764450,   0.881773,   0.551269]
    Electron size [Ang]:                  4.243667
      Cartesian components [Ang]:       [  3.413274,   1.881645,   1.678597]
    RMS electron-hole separation [Ang]:   4.615653
      Cartesian components [Ang]:       [  3.489421,   2.072182,   2.198695]
    Covariance(r_h, r_e) [Ang^2]:         0.055389
    Correlation coefficient:              0.010113
    Center-of-mass size [Ang]:            2.224033
      Cartesian components [Ang]:       [  1.753111,   1.041907,   0.887331]

  Decomposition into state-averaged NTOs
    H- 1 -> L+ 1:  0.6296 ( 79.3%)
                   omega =  79.7%
  ----------------------------------------------------------------------------


  Excited state 5 (singlet, A2)                                    [converged]
  ----------------------------------------------------------------------------
  Term symbol:  5 (1) A2                                    R^2 =  5.60996e-13

  Total energy:                                            -78.5664249840 a.u.
  Excitation energy:                                               7.643879 eV

  Osc. strength:                                                      0.000000
  Trans. dip. moment [a.u.]:           [   0.000000,   -0.000000,    0.000000]
  <i|r^2|0> [a.u.]:                    [   0.000000,    0.000000,    0.000000]

  Dip. moment [a.u.]:                  [   0.000000,    0.000000,   -5.485535]
  Total dipole [Debye]:                                              13.942842
  <r^2> [a.u.]:                        [  89.251866,   25.826691,  109.094418]
  Total <r^2> [a.u.]:                                               224.172976

  V1^2 = 0.9030, V2^2 = 0.0970

  Important amplitudes:
      occ i      occ j       vir a       vir b          v   
    ---------------------------------------------------------
     1 (B2) A               5 (B1) A                 -0.6459
     1 (B2) A               4 (B1) A                 -0.1113
    ---------------------------------------------------------

  Density matrix analysis:
  ------------------------
  NOs
    Occupation of frontier NOs:
       0.9840   0.9856
    Number of electrons: 18.000000
    Number of unpaired electrons: n_u =  2.40633, n_u,nl =  2.04065
    NO participation ratio (PR_NO):  2.968845
  
  
  Mulliken Population Analysis
  Atom      Charge (e)              h+              e-           Del q
  --------------------------------------------------------------------
   1 C       -0.519405        0.542829       -0.688904       -0.146076
   2 C       -0.519405        0.542829       -0.688904       -0.146076
   3 H        0.144302        0.087510       -0.080613        0.006897
   4 H        0.144302        0.087510       -0.080613        0.006897
   5 H        0.109171        0.098287       -0.017279        0.081008
   6 H        0.109171        0.098287       -0.017279        0.081008
   7 H       -0.468136        0.157439       -0.041098        0.116342
  --------------------------------------------------------------------
  Sum:       -1.000000        1.614691       -1.614691       -0.000000
  
  Multipole moment analysis of the density matrix
    Molecular charge:                      -1.000000
    Number of electrons:                   18.000000
      Center of electronic charge [Ang]: [ -0.000000,  -0.000000,   0.161268]
    Total nuclear charge:                  17.000000
      Center of nuclear charge [Ang]:    [ -0.000000,   0.000000,   0.000000]
    Dipole moment [D]:                     13.942837
      Cartesian components [D]:          [  0.000000,   0.000000, -13.942837]
    RMS size of the density [Ang]:         1.860506
      Cartesian components [Ang]:        [  1.178348,   0.633869,   1.292745]
  
  Exciton analysis of the difference density matrix
    <r_h> [Ang]:                  [  0.000000,  -0.000000,   0.153123]
    <r_e> [Ang]:                  [ -0.000000,   0.000000,   0.615013]
    |<r_e - r_h>| [Ang]:            0.461890
    Hole size [Ang]:                2.060629
      Cartesian components [Ang]: [  1.128833,   0.937862,   1.446494]
    Electron size [Ang]:            3.967925
      Cartesian components [Ang]: [  2.719094,   1.526614,   2.453652]

  Transition density matrix analysis:
  -----------------------------------
  
  CT numbers (Mulliken)
    omega =     0.8738
    <Phe> =    -0.0008
  
  Exciton analysis of the transition density matrix
    Trans. dipole moment [D]:             0.000000
      Cartesian components [D]:         [  0.000000,  -0.000000,   0.000000]
    <r_h> [Ang]:                        [  0.000000,  -0.000000,  -0.172651]
    <r_e> [Ang]:                        [ -0.000000,   0.000000,   0.811571]
    |<r_e - r_h>| [Ang]:                  0.984222
    Hole size [Ang]:                      1.291552
      Cartesian components [Ang]:       [  0.764338,   0.882246,   0.552752]
    Electron size [Ang]:                  4.795710
      Cartesian components [Ang]:       [  3.333924,   1.827029,   2.923311]
    RMS electron-hole separation [Ang]:   5.060292
      Cartesian components [Ang]:       [  3.413886,   2.027876,   3.136824]
    Covariance(r_h, r_e) [Ang^2]:         0.014536
    Correlation coefficient:              0.002347
    Center-of-mass size [Ang]:            2.484754
      Cartesian components [Ang]:       [  1.713470,   1.014951,   1.485900]

  Decomposition into state-averaged NTOs
    H- 1 -> L+ 2:  0.6590 ( 86.9%)
                   omega =  87.4%
  ----------------------------------------------------------------------------


  Excited state 6 (singlet, A2)                                    [converged]
  ----------------------------------------------------------------------------
  Term symbol:  6 (1) A2                                    R^2 =  4.73804e-12

  Total energy:                                            -78.5591726989 a.u.
  Excitation energy:                                               7.841223 eV

  Osc. strength:                                                      0.000000
  Trans. dip. moment [a.u.]:           [  -0.000000,   -0.000000,    0.000000]
  <i|r^2|0> [a.u.]:                    [  -0.000000,   -0.000000,   -0.000000]

  Dip. moment [a.u.]:                  [  -0.000000,   -0.000000,    0.465776]
  Total dipole [Debye]:                                               1.183885
  <r^2> [a.u.]:                        [  67.688137,   32.294781,   61.507238]
  Total <r^2> [a.u.]:                                               161.490156

  V1^2 = 0.8071, V2^2 = 0.1929

  Important amplitudes:
      occ i      occ j       vir a       vir b          v   
    ---------------------------------------------------------
     5 (A1) A               3 (A2) A                  0.6106
     5 (A1) A               2 (A2) A                 -0.1597
    ---------------------------------------------------------

  Density matrix analysis:
  ------------------------
  NOs
    Occupation of frontier NOs:
       0.9107   0.9808
    Number of electrons: 18.000000
    Number of unpaired electrons: n_u =  2.60026, n_u,nl =  2.13803
    NO participation ratio (PR_NO):  3.686683
  
  
  Mulliken Population Analysis
  Atom      Charge (e)              h+              e-           Del q
  --------------------------------------------------------------------
   1 C       -0.611217        0.321220       -0.559107       -0.237887
   2 C       -0.611217        0.321220       -0.559107       -0.237887
   3 H        0.057333        0.024105       -0.104177       -0.080071
   4 H        0.057333        0.024105       -0.104177       -0.080071
   5 H        0.036057        0.012129       -0.004235        0.007893
   6 H        0.036057        0.012129       -0.004235        0.007893
   7 H        0.035653        0.697516       -0.077385        0.620131
  --------------------------------------------------------------------
  Sum:       -1.000000        1.412423       -1.412423        0.000000
  
  Multipole moment analysis of the density matrix
    Molecular charge:                      -1.000000
    Number of electrons:                   18.000000
      Center of electronic charge [Ang]: [  0.000000,   0.000000,  -0.013693]
    Total nuclear charge:                  17.000000
      Center of nuclear charge [Ang]:    [ -0.000000,   0.000000,   0.000000]
    Dipole moment [D]:                     1.183885
      Cartesian components [D]:          [ -0.000000,  -0.000000,   1.183885]
    RMS size of the density [Ang]:         1.584972
      Cartesian components [Ang]:        [  1.026174,   0.708812,   0.978105]
  
  Exciton analysis of the difference density matrix
    <r_h> [Ang]:                  [  0.000000,  -0.000000,   1.844445]
    <r_e> [Ang]:                  [  0.000000,   0.000000,   0.142767]
    |<r_e - r_h>| [Ang]:            1.701677
    Hole size [Ang]:                2.449263
      Cartesian components [Ang]: [  1.136199,   1.088208,   1.877164]
    Electron size [Ang]:            3.240892
      Cartesian components [Ang]: [  2.002802,   2.031088,   1.538455]

  Transition density matrix analysis:
  -----------------------------------
  
  CT numbers (Mulliken)
    omega =     0.7933
    <Phe> =     0.0001
  
  Exciton analysis of the transition density matrix
    Trans. dipole moment [D]:             0.000000
      Cartesian components [D]:         [ -0.000000,  -0.000000,   0.000000]
    <r_h> [Ang]:                        [  0.000000,  -0.000000,   2.550050]
    <r_e> [Ang]:                        [  0.000000,   0.000000,  -0.167557]
    |<r_e - r_h>| [Ang]:                  2.717607
    Hole size [Ang]:                      1.868942
      Cartesian components [Ang]:       [  0.919310,   0.890830,   1.361704]
    Electron size [Ang]:                  3.387771
      Cartesian components [Ang]:       [  2.235027,   2.197499,   1.285550]
    RMS electron-hole separation [Ang]:   4.731760
      Cartesian components [Ang]:       [  2.414901,   2.370556,   3.307305]
    Covariance(r_h, r_e) [Ang^2]:        -0.017114
    Correlation coefficient:             -0.002703
    Center-of-mass size [Ang]:            1.932337
      Cartesian components [Ang]:       [  1.209257,   1.185920,   0.930171]

  Decomposition into state-averaged NTOs
    H- 0 -> L+ 5:  0.6070 ( 73.7%)
    H- 0 -> L+ 3:  0.1353 (  3.7%)
    H- 0 -> L+ 0:  0.0853 (  1.5%)
                   omega =  79.3%
  ----------------------------------------------------------------------------


  Excited state 7 (singlet, A2)                                    [converged]
  ----------------------------------------------------------------------------
  Term symbol:  7 (1) A2                                    R^2 =  4.62020e-10

  Total energy:                                            -78.5186995989 a.u.
  Excitation energy:                                               8.942552 eV

  Osc. strength:                                                      0.000000
  Trans. dip. moment [a.u.]:           [  -0.000000,    0.000000,   -0.000000]
  <i|r^2|0> [a.u.]:                    [  -0.000000,   -0.000000,   -0.000000]

  Dip. moment [a.u.]:                  [  -0.000000,    0.000000,    0.915121]
  Total dipole [Debye]:                                               2.326005
  <r^2> [a.u.]:                        [ 102.973794,   34.696927,   98.142766]
  Total <r^2> [a.u.]:                                               235.813487

  V1^2 = 0.0131, V2^2 = 0.9869

  Important amplitudes:
      occ i      occ j       vir a       vir b          v   
    ---------------------------------------------------------
     5 (A1) A   1 (B2) B    7 (A1) A    5 (B1) B     -0.1485
     5 (A1) A   1 (B2) B    5 (B1) A    7 (A1) B     -0.1470
    ---------------------------------------------------------

  Density matrix analysis:
  ------------------------
  NOs
    Occupation of frontier NOs:
       0.8343   0.9392
    Number of electrons: 18.000000
    Number of unpaired electrons: n_u =  4.27707, n_u,nl =  4.09609
    NO participation ratio (PR_NO):  5.680930
  
  
  Mulliken Population Analysis
  Atom      Charge (e)              h+              e-           Del q
  --------------------------------------------------------------------
   1 C       -0.692825        0.572827       -0.892322       -0.319495
   2 C       -0.692825        0.572827       -0.892322       -0.319495
   3 H        0.117014        0.014771       -0.035162       -0.020390
   4 H        0.117014        0.014771       -0.035162       -0.020390
   5 H       -0.000179        0.005100       -0.033443       -0.028343
   6 H       -0.000179        0.005100       -0.033443       -0.028343
   7 H        0.151979        0.806761       -0.070304        0.736457
  --------------------------------------------------------------------
  Sum:       -1.000000        1.992156       -1.992156        0.000000
  
  Multipole moment analysis of the density matrix
    Molecular charge:                      -1.000000
    Number of electrons:                   18.000000
      Center of electronic charge [Ang]: [  0.000000,  -0.000000,  -0.026903]
    Total nuclear charge:                  17.000000
      Center of nuclear charge [Ang]:    [ -0.000000,   0.000000,   0.000000]
    Dipole moment [D]:                     2.326004
      Cartesian components [D]:          [ -0.000000,   0.000000,   2.326004]
    RMS size of the density [Ang]:         1.915166
      Cartesian components [Ang]:        [  1.265693,   0.734701,   1.235353]
  
  Exciton analysis of the difference density matrix
    <r_h> [Ang]:                  [ -0.000000,  -0.000000,   1.226858]
    <r_e> [Ang]:                  [  0.000000,  -0.000000,  -0.098978]
    |<r_e - r_h>| [Ang]:            1.325836
    Hole size [Ang]:                2.048061
      Cartesian components [Ang]: [  0.807010,   0.860214,   1.674312]
    Electron size [Ang]:            4.115017
      Cartesian components [Ang]: [  2.745881,   1.778443,   2.496125]

  Transition density matrix analysis:
  -----------------------------------
  
  CT numbers (Mulliken)
    omega =     0.0127
    <Phe> =    -0.0027
  
  Exciton analysis of the transition density matrix
    Trans. dipole moment [D]:             0.000000
      Cartesian components [D]:         [ -0.000000,   0.000000,  -0.000000]
    <r_h> [Ang]:                        [  0.000000,  -0.000000,  -0.141943]
    <r_e> [Ang]:                        [ -0.000000,  -0.000000,   0.005192]
    |<r_e - r_h>| [Ang]:                  0.147135
    Hole size [Ang]:                      1.322191
      Cartesian components [Ang]:       [  0.773304,   0.872448,   0.623717]
    Electron size [Ang]:                  4.349967
      Cartesian components [Ang]:       [  3.118528,   1.603086,   2.574317]
    RMS electron-hole separation [Ang]:   4.548846
      Cartesian components [Ang]:       [  3.216678,   1.817881,   2.653355]
    Covariance(r_h, r_e) [Ang^2]:         0.000023
    Correlation coefficient:              0.000004
    Center-of-mass size [Ang]:            2.273238
      Cartesian components [Ang]:       [  1.604635,   0.916162,   1.324162]

  Decomposition into state-averaged NTOs
                   omega =   1.3%
  ----------------------------------------------------------------------------


  Excited state 8 (singlet, A2)                                    [converged]
  ----------------------------------------------------------------------------
  Term symbol:  8 (1) A2                                    R^2 =  5.34046e-09

  Total energy:                                            -78.5098131053 a.u.
  Excitation energy:                                               9.184366 eV

  Osc. strength:                                                      0.000000
  Trans. dip. moment [a.u.]:           [  -0.000000,   -0.000000,    0.000000]
  <i|r^2|0> [a.u.]:                    [   0.000000,    0.000000,    0.000000]

  Dip. moment [a.u.]:                  [  -0.000000,    0.000000,    2.064460]
  Total dipole [Debye]:                                               5.247335
  <r^2> [a.u.]:                        [ 108.297407,   35.416428,   85.801193]
  Total <r^2> [a.u.]:                                               229.515028

  V1^2 = 0.0201, V2^2 = 0.9799

  Important amplitudes:
      occ i      occ j       vir a       vir b          v   
    ---------------------------------------------------------
     5 (A1) A   1 (B2) A    7 (A1) A    4 (B1) A     -0.1743
     5 (A1) A   1 (B2) A    7 (A1) A    5 (B1) A      0.1359
    ---------------------------------------------------------

  Density matrix analysis:
  ------------------------
  NOs
    Occupation of frontier NOs:
       0.9155   0.9420
    Number of electrons: 18.000000
    Number of unpaired electrons: n_u =  4.23015, n_u,nl =  3.98591
    NO participation ratio (PR_NO):  5.442376
  
  
  Mulliken Population Analysis
  Atom      Charge (e)              h+              e-           Del q
  --------------------------------------------------------------------
   1 C       -0.780584        0.572741       -0.979996       -0.407254
   2 C       -0.780584        0.572741       -0.979996       -0.407254
   3 H        0.148207        0.013919       -0.003116        0.010803
   4 H        0.148207        0.013919       -0.003116        0.010803
   5 H        0.033320        0.006358       -0.001202        0.005157
   6 H        0.033320        0.006358       -0.001202        0.005157
   7 H        0.198113        0.800827       -0.018236        0.782591
  --------------------------------------------------------------------
  Sum:       -1.000000        1.986862       -1.986862        0.000000
  
  Multipole moment analysis of the density matrix
    Molecular charge:                      -1.000000
    Number of electrons:                   18.000000
      Center of electronic charge [Ang]: [  0.000000,  -0.000000,  -0.060693]
    Total nuclear charge:                  17.000000
      Center of nuclear charge [Ang]:    [ -0.000000,   0.000000,   0.000000]
    Dipole moment [D]:                     5.247334
      Cartesian components [D]:          [ -0.000000,   0.000000,   5.247334]
    RMS size of the density [Ang]:         1.888627
      Cartesian components [Ang]:        [  1.297998,   0.742279,   1.153749]
  
  Exciton analysis of the difference density matrix
    <r_h> [Ang]:                  [ -0.000000,  -0.000000,   1.217993]
    <r_e> [Ang]:                  [  0.000000,  -0.000000,  -0.417489]
    |<r_e - r_h>| [Ang]:            1.635481
    Hole size [Ang]:                2.042090
      Cartesian components [Ang]: [  0.805238,   0.857645,   1.669182]
    Electron size [Ang]:            3.983092
      Cartesian components [Ang]: [  2.881956,   1.807293,   2.071965]

  Transition density matrix analysis:
  -----------------------------------
  
  CT numbers (Mulliken)
    omega =     0.0194
    <Phe> =    -0.0096
  
  Exciton analysis of the transition density matrix
    Trans. dipole moment [D]:             0.000000
      Cartesian components [D]:         [ -0.000000,  -0.000000,   0.000000]
    <r_h> [Ang]:                        [  0.000000,  -0.000000,  -0.094131]
    <r_e> [Ang]:                        [ -0.000000,  -0.000000,  -0.476608]
    |<r_e - r_h>| [Ang]:                  0.382477
    Hole size [Ang]:                      1.381383
      Cartesian components [Ang]:       [  0.853619,   0.794316,   0.740686]
    Electron size [Ang]:                  2.779840
      Cartesian components [Ang]:       [  2.025213,   1.383290,   1.308638]
    RMS electron-hole separation [Ang]:   3.091634
      Cartesian components [Ang]:       [  2.183843,   1.562253,   1.532448]
    Covariance(r_h, r_e) [Ang^2]:         0.111909
    Correlation coefficient:              0.029143
    Center-of-mass size [Ang]:            1.569996
      Cartesian components [Ang]:       [  1.105795,   0.813668,   0.761609]

  Decomposition into state-averaged NTOs
                   omega =   1.9%
  ----------------------------------------------------------------------------


  Excited state 9 (singlet, A2)                                    [converged]
  ----------------------------------------------------------------------------
  Term symbol:  9 (1) A2                                    R^2 =  6.23144e-07

  Total energy:                                            -78.5031838714 a.u.
  Excitation energy:                                               9.364757 eV

  Osc. strength:                                                      0.000000
  Trans. dip. moment [a.u.]:           [   0.000000,   -0.000000,   -0.000000]
  <i|r^2|0> [a.u.]:                    [   0.000000,   -0.000000,   -0.000000]

  Dip. moment [a.u.]:                  [   0.000000,    0.000000,   -3.872779]
  Total dipole [Debye]:                                               9.843623
  <r^2> [a.u.]:                        [  56.724352,   21.587286,   84.028078]
  Total <r^2> [a.u.]:                                               162.339716

  V1^2 = 0.9198, V2^2 = 0.0802

  Important amplitudes:
      occ i      occ j       vir a       vir b          v   
    ---------------------------------------------------------
     4 (A1) A               2 (A2) A                 -0.5579
     4 (A1) A               3 (A2) A                 -0.2535
    ---------------------------------------------------------

  Density matrix analysis:
  ------------------------
  NOs
    Occupation of frontier NOs:
       0.9409   1.0758
    Number of electrons: 18.000000
    Number of unpaired electrons: n_u =  2.48618, n_u,nl =  2.08416
    NO participation ratio (PR_NO):  3.497862
  
  
  Mulliken Population Analysis
  Atom      Charge (e)              h+              e-           Del q
  --------------------------------------------------------------------
   1 C       -0.485406        0.437768       -0.549844       -0.112076
   2 C       -0.485406        0.437768       -0.549844       -0.112076
   3 H        0.182922        0.063306       -0.017789        0.045518
   4 H        0.182922        0.063306       -0.017789        0.045518
   5 H        0.087131        0.067909       -0.008942        0.058967
   6 H        0.087131        0.067909       -0.008942        0.058967
   7 H       -0.569295        0.023791       -0.008608        0.015183
  --------------------------------------------------------------------
  Sum:       -1.000000        1.161757       -1.161757       -0.000000
  
  Multipole moment analysis of the density matrix
    Molecular charge:                      -1.000000
    Number of electrons:                   18.000000
      Center of electronic charge [Ang]: [ -0.000000,  -0.000000,   0.113855]
    Total nuclear charge:                  17.000000
      Center of nuclear charge [Ang]:    [ -0.000000,   0.000000,   0.000000]
    Dipole moment [D]:                     9.843620
      Cartesian components [D]:          [  0.000000,   0.000000,  -9.843620]
    RMS size of the density [Ang]:         1.585112
      Cartesian components [Ang]:        [  0.939398,   0.579514,   1.137661]
  
  Exciton analysis of the difference density matrix
    <r_h> [Ang]:                  [  0.000000,   0.000000,  -0.076972]
    <r_e> [Ang]:                  [ -0.000000,  -0.000000,  -0.169612]
    |<r_e - r_h>| [Ang]:            0.092640
    Hole size [Ang]:                1.588023
      Cartesian components [Ang]: [  1.132393,   0.610263,   0.931172]
    Electron size [Ang]:            2.017159
      Cartesian components [Ang]: [  1.395286,   1.169279,   0.868846]

  Transition density matrix analysis:
  -----------------------------------
  
  CT numbers (Mulliken)
    omega =     0.8889
    <Phe> =    -0.0145
  
  Exciton analysis of the transition density matrix
    Trans. dipole moment [D]:             0.000000
      Cartesian components [D]:         [  0.000000,  -0.000000,  -0.000000]
    <r_h> [Ang]:                        [ -0.000000,   0.000000,  -0.141125]
    <r_e> [Ang]:                        [ -0.000000,  -0.000000,  -0.207125]
    |<r_e - r_h>| [Ang]:                  0.066000
    Hole size [Ang]:                      1.302234
      Cartesian components [Ang]:       [  1.067107,   0.437730,   0.604555]
    Electron size [Ang]:                  1.996913
      Cartesian components [Ang]:       [  1.395766,   1.199591,   0.774905]
    RMS electron-hole separation [Ang]:   2.361657
      Cartesian components [Ang]:       [  1.726923,   1.275455,   0.984060]
    Covariance(r_h, r_e) [Ang^2]:         0.055203
    Correlation coefficient:              0.021228
    Center-of-mass size [Ang]:            1.203524
      Cartesian components [Ang]:       [  0.893238,   0.639232,   0.491912]

  Decomposition into state-averaged NTOs
    H- 2 -> L+ 0: -0.6475 ( 83.8%)
    H- 1 -> L+ 6:  0.1347 (  3.6%)
                   omega =  88.9%
  ----------------------------------------------------------------------------


  Excited state 10 (singlet, A2)                                    [converged]
  ----------------------------------------------------------------------------
  Term symbol:  10 (1) A2                                   R^2 =  9.76313e-06

  Total energy:                                            -78.5008930774 a.u.
  Excitation energy:                                               9.427093 eV

  Osc. strength:                                                      0.000000
  Trans. dip. moment [a.u.]:           [   0.000000,   -0.000000,    0.000000]
  <i|r^2|0> [a.u.]:                    [  -0.000000,   -0.000000,   -0.000000]

  Dip. moment [a.u.]:                  [  -0.000000,    0.000000,   -3.532739]
  Total dipole [Debye]:                                               8.979329
  <r^2> [a.u.]:                        [  63.551223,   53.926067,   88.156980]
  Total <r^2> [a.u.]:                                               205.634270

  V1^2 = 0.8537, V2^2 = 0.1463

  Important amplitudes:
      occ i      occ j       vir a       vir b          v   
    ---------------------------------------------------------
     3 (B1) A               2 (B2) A                  0.6345
     3 (B1) A               3 (B2) A                  0.1351
    ---------------------------------------------------------

  Density matrix analysis:
  ------------------------
  NOs
    Occupation of frontier NOs:
       0.9617   1.0847
    Number of electrons: 18.000000
    Number of unpaired electrons: n_u =  2.63376, n_u,nl =  2.16358
    NO participation ratio (PR_NO):  3.826445
  
  
  Mulliken Population Analysis
  Atom      Charge (e)              h+              e-           Del q
  --------------------------------------------------------------------
   1 C       -0.684867        0.335636       -0.647174       -0.311538
   2 C       -0.684867        0.335636       -0.647174       -0.311538
   3 H        0.246001        0.159263       -0.050666        0.108597
   4 H        0.246001        0.159263       -0.050666        0.108597
   5 H        0.187561        0.176749       -0.017351        0.159397
   6 H        0.187561        0.176749       -0.017351        0.159397
   7 H       -0.497390        0.125681       -0.038594        0.087087
  --------------------------------------------------------------------
  Sum:       -1.000000        1.468977       -1.468977        0.000000
  
  Multipole moment analysis of the density matrix
    Molecular charge:                      -1.000000
    Number of electrons:                   18.000000
      Center of electronic charge [Ang]: [  0.000000,  -0.000000,   0.103858]
    Total nuclear charge:                  17.000000
      Center of nuclear charge [Ang]:    [ -0.000000,   0.000000,   0.000000]
    Dipole moment [D]:                     8.979326
      Cartesian components [D]:          [ -0.000000,   0.000000,  -8.979326]
    RMS size of the density [Ang]:         1.785580
      Cartesian components [Ang]:        [  0.994322,   0.915934,   1.166484]
  
  Exciton analysis of the difference density matrix
    <r_h> [Ang]:                  [  0.000000,  -0.000000,   0.165868]
    <r_e> [Ang]:                  [  0.000000,  -0.000000,  -0.029892]
    |<r_e - r_h>| [Ang]:            0.195759
    Hole size [Ang]:                2.150595
      Cartesian components [Ang]: [  1.230896,   0.825484,   1.558375]
    Electron size [Ang]:            3.761178
      Cartesian components [Ang]: [  1.828123,   2.762762,   1.780892]

  Transition density matrix analysis:
  -----------------------------------
  
  CT numbers (Mulliken)
    omega =     0.8394
    <Phe> =    -0.0005
  
  Exciton analysis of the transition density matrix
    Trans. dipole moment [D]:             0.000000
      Cartesian components [D]:         [  0.000000,  -0.000000,   0.000000]
    <r_h> [Ang]:                        [  0.000000,   0.000000,  -0.124665]
    <r_e> [Ang]:                        [  0.000000,   0.000000,  -0.176388]
    |<r_e - r_h>| [Ang]:                  0.051723
    Hole size [Ang]:                      1.522880
      Cartesian components [Ang]:       [  1.127546,   0.415537,   0.935484]
    Electron size [Ang]:                  4.281735
      Cartesian components [Ang]:       [  1.958019,   3.297442,   1.904282]
    RMS electron-hole separation [Ang]:   4.515375
      Cartesian components [Ang]:       [  2.200270,   3.323204,   2.122202]
    Covariance(r_h, r_e) [Ang^2]:         0.133238
    Correlation coefficient:              0.020433
    Center-of-mass size [Ang]:            2.286859
      Cartesian components [Ang]:       [  1.158578,   1.661919,   1.060869]

  Decomposition into state-averaged NTOs
    H- 3 -> L+ 4: -0.6436 ( 82.9%)
                   omega =  83.9%
  ----------------------------------------------------------------------------


--------------------------------------------------------------------------------
  Time of ADC calculation:  CPU 650.21 s  wall 155.72 s
================================================================================
 
 --------------------------------------------------------------
             Orbital Energies (a.u.) and Symmetries
 --------------------------------------------------------------
 
 Alpha MOs, Restricted
 -- Occupied --                  
-11.071 -11.069  -0.876  -0.619  -0.493  -0.404  -0.348  -0.213
  1 A1    1 B1    2 A1    2 B1    3 A1    4 A1    3 B1    1 B2                 
 -0.034
  5 A1                                                                         
 -- Virtual --                   
  0.145   0.167   0.169   0.173   0.177   0.186   0.266   0.287
  4 B1    2 B2    6 A1    1 A2    7 A1    5 B1    8 A1    2 A2                 
  0.324   0.332   0.345   0.371   0.372   0.383   0.453   0.474
  6 B1    7 B1    9 A1    3 B2    8 B1   10 A1    3 A2   11 A1                 
  0.502   0.507   0.666   0.707   0.887   0.987   1.031   1.032
 12 A1    9 B1   10 B1   11 B1   13 A1   14 A1   15 A1   16 A1                 
  1.087   1.092   1.119   1.140   1.154   1.230   1.242   1.280
 12 B1    4 B2   17 A1    4 A2   13 B1   14 B1   18 A1    5 B2                 
  1.447   1.450   1.465   1.517   1.775   1.780   1.879   1.885
  6 B2    5 A2   15 B1   16 B1   19 A1   17 B1   20 A1    7 B2                 
  1.934   1.980   2.021   2.087   2.103   2.176   2.187   2.239
 18 B1   21 A1    6 A2   19 B1    8 B2   22 A1    9 B2   23 A1                 
  2.337   2.483   2.578   2.625   2.727   2.750   2.964   2.993
  7 A2   20 B1    8 A2   24 A1   21 B1   22 B1   25 A1   26 A1                 
  3.409   3.509
 23 B1   24 B1                                                                 
 
 Beta MOs, Restricted
 -- Occupied --                  
-11.071 -11.069  -0.876  -0.619  -0.493  -0.404  -0.348  -0.213
  1 A1    1 B1    2 A1    2 B1    3 A1    4 A1    3 B1    1 B2                 
 -0.034
  5 A1                                                                         
 -- Virtual --                   
  0.145   0.167   0.169   0.173   0.177   0.186   0.266   0.287
  4 B1    2 B2    6 A1    1 A2    7 A1    5 B1    8 A1    2 A2                 
  0.324   0.332   0.345   0.371   0.372   0.383   0.453   0.474
  6 B1    7 B1    9 A1    3 B2    8 B1   10 A1    3 A2   11 A1                 
  0.502   0.507   0.666   0.707   0.887   0.987   1.031   1.032
 12 A1    9 B1   10 B1   11 B1   13 A1   14 A1   15 A1   16 A1                 
  1.087   1.092   1.119   1.140   1.154   1.230   1.242   1.280
 12 B1    4 B2   17 A1    4 A2   13 B1   14 B1   18 A1    5 B2                 
  1.447   1.450   1.465   1.517   1.775   1.780   1.879   1.885
  6 B2    5 A2   15 B1   16 B1   19 A1   17 B1   20 A1    7 B2                 
  1.934   1.980   2.021   2.087   2.103   2.176   2.187   2.239
 18 B1   21 A1    6 A2   19 B1    8 B2   22 A1    9 B2   23 A1                 
  2.337   2.483   2.578   2.625   2.727   2.750   2.964   2.993
  7 A2   20 B1    8 A2   24 A1   21 B1   22 B1   25 A1   26 A1                 
  3.409   3.509
 23 B1   24 B1                                                                 
 --------------------------------------------------------------
 
          Ground-State Mulliken Net Atomic Charges

     Atom                 Charge (a.u.)
  ----------------------------------------
      1 C                    -0.342414
      2 C                    -0.342414
      3 H                     0.139884
      4 H                     0.139884
      5 H                     0.020551
      6 H                     0.020551
      7 H                    -0.636042
  ----------------------------------------
  Sum of atomic charges =    -1.000000

 -----------------------------------------------------------------
                    Cartesian Multipole Moments
 -----------------------------------------------------------------
    Charge (ESU x 10^10)
                -4.8032
    Dipole Moment (Debye)
         X      -0.0000      Y       0.0000      Z     -10.8159
       Tot      10.8159
    Quadrupole Moments (Debye-Ang)
        XX     -20.4964     XY       0.0000     YY     -23.1686
        XZ       0.0000     YZ       0.0000     ZZ     -55.1072
    Octopole Moments (Debye-Ang^2)
       XXX      -0.0000    XXY      -0.0000    XYY      -0.0000
       YYY       0.0000    XXZ      -7.1146    XYZ      -0.0000
       YYZ     -10.1507    XZZ      -0.0000    YZZ       0.0000
       ZZZ    -117.9319
    Hexadecapole Moments (Debye-Ang^3)
      XXXX    -113.2534   XXXY       0.0000   XXYY     -28.1443
      XYYY       0.0000   YYYY     -56.4017   XXXZ       0.0000
      XXYZ       0.0000   XYYZ       0.0000   YYYZ       0.0000
      XXZZ     -75.2903   XYZZ       0.0000   YYZZ     -67.9226
      XZZZ       0.0000   YZZZ       0.0000   ZZZZ    -590.7800
 -----------------------------------------------------------------
 Total job time:  238.38s(wall), 695.75s(cpu) 
 Mon Mar 28 16:27:34 2022

        *************************************************************
        *                                                           *
        *  Thank you very much for using Q-Chem.  Have a nice day.  *
        *                                                           *
        *************************************************************


