/src/tsommerfeld/qchem/exe/qcprog.exe .input0.733333.16599.qcin.1 /src/jdavis/qchem.scratch/qchem16599/

                  Welcome to Q-Chem
     A Quantum Leap Into The Future Of Chemistry


 Q-Chem 5.4 (devel), Q-Chem, Inc., Pleasanton, CA (2021)

 E. Epifanovsky,  A. T. B. Gilbert,  Xintian Feng,  Joonho Lee,  Yuezhi Mao,  
 N. Mardirossian,  P. Pokhilko,  A. White,  M. Wormit,  M. P. Coons,  
 A. L. Dempwolff,  Zhengting Gan,  D. Hait,  P. R. Horn,  L. D. Jacobson,  
 I. Kaliman,  J. Kussmann,  A. W. Lange,  Ka Un Lao,  D. S. Levine,  Jie Liu,  
 S. C. McKenzie,  A. F. Morrison,  K. Nanda,  F. Plasser,  D. R. Rehn,  
 M. L. Vidal,  Zhi-Qiang You,  Ying Zhu,  B. Alam,  B. Albrecht,  
 A. Aldossary,  E. Alguire,  J. H. Andersen,  D. Barton,  K. Begam,  A. Behn,  
 Y. A. Bernard,  E. J. Berquist,  H. Burton,  A. Carreras,  K. Carter-Fenk,  
 R. Chakraborty,  A. D. Chien,  K. D. Closser,  V. Cofer-Shabica,  
 S. Dasgupta,  Jia Deng,  M. de Wergifosse,  M. Diedenhofen,  Hainam Do,  
 S. Ehlert,  Po-Tung Fang,  S. Fatehi,  Qingguo Feng,  T. Friedhoff,  
 J. Gayvert,  Qinghui Ge,  G. Gidofalvi,  M. Goldey,  J. Gomes,  
 C. Gonzalez-Espinoza,  S. Gulania,  A. Gunina,  M. W. D. Hanson-Heine,  
 P. H. P. Harbach,  A. W. Hauser,  M. F. Herbst,  M. Hernandez Vera,  
 M. Hodecker,  Z. C. Holden,  S. Houck,  Xunkun Huang,  Kerwin Hui,  
 B. C. Huynh,  M. Ivanov,  Hyunjun Ji,  Hanjie Jiang,  B. Kaduk,  S. Kaehler,  
 K. Khistyaev,  Jaehoon Kim,  P. Klunzinger,  Z. Koczor-Benda,  
 Joong Hoon Koh,  D. Kosenkov,  L. Koulias,  T. Kowalczyk,  C. M. Krauter,  
 K. Kue,  A. Kunitsa,  T. Kus,  A. Landau,  K. V. Lawler,  D. Lefrancois,  
 S. Lehtola,  Rain Li,  Yi-Pei Li,  Jiashu Liang,  M. Liebenthal,  
 Hung-Hsuan Lin,  You-Sheng Lin,  Fenglai Liu,  Kuan-Yu Liu,  
 M. Loipersberger,  A. Luenser,  A. Manjanath,  P. Manohar,  E. Mansoor,  
 S. F. Manzer,  Shan-Ping Mao,  A. V. Marenich,  T. Markovich,  S. Mason,  
 S. A. Maurer,  P. F. McLaughlin,  M. F. S. J. Menger,  J.-M. Mewes,  
 S. A. Mewes,  P. Morgante,  J. W. Mullinax,  K. J. Oosterbaan,  G. Paran,  
 Alexander C. Paul,  Suranjan K. Paul,  F. Pavosevic,  Zheng Pei,  S. Prager,  
 E. I. Proynov,  E. Ramos,  B. Rana,  A. E. Rask,  A. Rettig,  R. M. Richard,  
 F. Rob,  E. Rossomme,  T. Scheele,  M. Scheurer,  M. Schneider,  
 N. Sergueev,  S. M. Sharada,  W. Skomorowski,  D. W. Small,  C. J. Stein,  
 Yu-Chuan Su,  E. J. Sundstrom,  Zhen Tao,  J. Thirman,  T. Tsuchimochi,  
 N. M. Tubman,  S. P. Veccham,  O. Vydrov,  J. Wenzel,  J. Witte,  A. Yamada,  
 Kun Yao,  S. Yeganeh,  S. R. Yost,  A. Zech,  Igor Ying Zhang,  Xing Zhang,  
 Yu Zhang,  D. Zuev,  A. Aspuru-Guzik,  A. T. Bell,  N. A. Besley,  
 K. B. Bravaya,  B. R. Brooks,  D. Casanova,  Jeng-Da Chai,  S. Coriani,  
 C. J. Cramer,  A. E. DePrince, III,  R. A. DiStasio Jr.,  A. Dreuw,  
 B. D. Dunietz,  T. R. Furlani,  W. A. Goddard III,  S. Grimme,  
 S. Hammes-Schiffer,  T. Head-Gordon,  W. J. Hehre,  Chao-Ping Hsu,  
 T.-C. Jagau,  Yousung Jung,  A. Klamt,  Jing Kong,  D. S. Lambrecht,  
 WanZhen Liang,  N. J. Mayhall,  C. W. McCurdy,  J. B. Neaton,  
 C. Ochsenfeld,  J. A. Parkhill,  R. Peverati,  V. A. Rassolov,  Yihan Shao,  
 L. V. Slipchenko,  T. Stauch,  R. P. Steele,  J. E. Subotnik,  
 A. J. W. Thom,  A. Tkatchenko,  D. G. Truhlar,  T. Van Voorhis,  
 T. A. Wesolowski,  K. B. Whaley,  H. L. Woodcock III,  P. M. Zimmerman,  
 S. Faraji,  P. M. W. Gill,  M. Head-Gordon,  J. M. Herbert,  A. I. Krylov

 Additional authors for Version 5.4.1: 
 S. Kotaru,  Shaozhi Li,  Xiangyuan Li,  F. Matz,  A. Molle,  Haisheng Ren,  
 Yingli Su,  Hung-Yi Tsai,  C. Utku,  Fang Wang

 Contributors to earlier versions of Q-Chem not listed above: 
 R. D. Adamson,  B. Austin,  R. Baer,  J. Baker,  G. J. O. Beran,  
 K. Brandhorst,  S. T. Brown,  E. F. C. Byrd,  A. K. Chakraborty,  
 G. K. L. Chan,  Chun-Min Chang,  Yunqing Chen,  C.-L. Cheng,  
 Siu Hung Chien,  D. M. Chipman,  D. L. Crittenden,  H. Dachsel,  
 R. J. Doerksen,  A. D. Dutoi,  R. G. Edgar,  J. Fosso-Tande,  
 L. Fusti-Molnar,  D. Ghosh,  A. Ghysels,  A. Golubeva-Zadorozhnaya,  
 J. Gonthier,  M. S. Gordon,  S. R. Gwaltney,  G. Hawkins,  J. E. Herr,  
 A. Heyden,  S. Hirata,  E. G. Hohenstein,  G. Kedziora,  F. J. Keil,  
 C. Kelley,  Jihan Kim,  R. A. King,  R. Z. Khaliullin,  P. P. Korambath,  
 W. Kurlancheek,  A. Laurent,  A. M. Lee,  M. S. Lee,  S. V. Levchenko,  
 Ching Yeh Lin,  D. Liotard,  E. Livshits,  R. C. Lochan,  I. Lotan,  
 L. A. Martinez-Martinez,  P. E. Maslen,  N. Nair,  D. P. O'Neill,  
 D. Neuhauser,  E. Neuscamman,  C. M. Oana,  R. Olivares-Amaya,  R. Olson,  
 T. M. Perrine,  B. Peters,  P. A. Pieniazek,  A. Prociuk,  Y. M. Rhee,  
 J. Ritchie,  M. A. Rohrdanz,  E. Rosta,  N. J. Russ,  H. F. Schaefer III,  
 M. W. Schmidt,  N. E. Schultz,  S. Sharma,  N. Shenvi,  C. D. Sherrill,  
 A. C. Simmonett,  A. Sodt,  T. Stein,  D. Stuck,  K. S. Thanthiriwatte,  
 V. Vanovschi,  L. Vogt,  Tao Wang,  A. Warshel,  M. A. Watson,  
 C. F. Williams,  Q. Wu,  X. Xu,  Jun Yang,  W. Zhang,  Yan Zhao

 Please cite Q-Chem as follows:
 Y. Shao et al., Mol. Phys. 113, 184-215 (2015)
 DOI: 10.1080/00268976.2014.952696

 Q-Chem 5.4.1 for Intel X86 EM64T Linux

 Parts of Q-Chem use Armadillo 9.900.5 (Nocturnal Misbehaviour).
 http://arma.sourceforge.net/

 Q-Chem begins on Mon Mar 28 17:15:53 2022  

 Host: node01
0

     Scratch files written to /src/jdavis/qchem.scratch/qchem16599//
 Processing $rem in /src/tsommerfeld/qchem/config/preferences:
 Processing $rem in /home/jdavis/.qchemrc:

 Checking the input file for inconsistencies... 	...done.

--------------------------------------------------------------
User input:
--------------------------------------------------------------
$molecule
-1 1
C        -0.6645000000    0.0000000000   -0.1764707059
C         0.6645000000    0.0000000000   -0.1764707059
H        -1.1590800000    0.0000000000    0.7858782941
H         1.1590800000    0.0000000000    0.7858782941
H        -1.1590800000    0.0000000000   -1.1388187059
H         1.1590800000    0.0000000000   -1.1388187059
H         0.0000000000    0.0000000000    2.8235292941
$end

$rem
   METHOD adc(3)
   BASIS gen
   PURECART 11
   EE_STATES [0,10,0,0]
   scf_convergence 8
   ADC_DAVIDSON_MAXITER 120
   ADC_DAVIDSON_MAXSUBSPACE 200
   adc_nguess_singles 100
   THRESH 14
   S2THRESH 14
   adc_davidson_conv 5
   adc_davidson_thresh 14
   THREADS 10
   MEM_TOTAL 95000
   STATE_ANALYSIS TRUE
$end
$basis
C 1
S   9   1.00
      6.665000D+03           6.920000D-04
      1.000000D+03           5.329000D-03
      2.280000D+02           2.707700D-02
      6.471000D+01           1.017180D-01
      2.106000D+01           2.747400D-01
      7.495000D+00           4.485640D-01
      2.797000D+00           2.850740D-01
      5.215000D-01           1.520400D-02
      1.596000D-01          -3.191000D-03
S   9   1.00
      6.665000D+03          -1.460000D-04
      1.000000D+03          -1.154000D-03
      2.280000D+02          -5.725000D-03
      6.471000D+01          -2.331200D-02
      2.106000D+01          -6.395500D-02
      7.495000D+00          -1.499810D-01
      2.797000D+00          -1.272620D-01
      5.215000D-01           5.445290D-01
      1.596000D-01           5.804960D-01
S   1   1.00
      1.596000D-01           1.000000D+00
S   1   1.00
      0.0469000              1.0000000
P   4   1.00
      9.439000D+00           3.810900D-02
      2.002000D+00           2.094800D-01
      5.456000D-01           5.085570D-01
      1.517000D-01           4.688420D-01
P   1   1.00
      1.517000D-01           1.000000D+00
P   1   1.00
      0.0741644      1.0000000
P   1   1.00
      0.0370822      1.0000000
D   1   1.00
      5.500000D-01           1.0000000
****
C 2
S   9   1.00
      6.665000D+03           6.920000D-04
      1.000000D+03           5.329000D-03
      2.280000D+02           2.707700D-02
      6.471000D+01           1.017180D-01
      2.106000D+01           2.747400D-01
      7.495000D+00           4.485640D-01
      2.797000D+00           2.850740D-01
      5.215000D-01           1.520400D-02
      1.596000D-01          -3.191000D-03
S   9   1.00
      6.665000D+03          -1.460000D-04
      1.000000D+03          -1.154000D-03
      2.280000D+02          -5.725000D-03
      6.471000D+01          -2.331200D-02
      2.106000D+01          -6.395500D-02
      7.495000D+00          -1.499810D-01
      2.797000D+00          -1.272620D-01
      5.215000D-01           5.445290D-01
      1.596000D-01           5.804960D-01
S   1   1.00
      1.596000D-01           1.000000D+00
S   1   1.00
      0.0469000              1.0000000
P   4   1.00
      9.439000D+00           3.810900D-02
      2.002000D+00           2.094800D-01
      5.456000D-01           5.085570D-01
      1.517000D-01           4.688420D-01
P   1   1.00
      1.517000D-01           1.000000D+00
P   1   1.00
      0.0741644      1.0000000
P   1   1.00
      0.0370822      1.0000000
D   1   1.00
      5.500000D-01           1.0000000
****
H 3
cc-pVDZ
****
H 4
cc-pVDZ
****
H 5
cc-pVDZ
****
H 6
cc-pVDZ
****
H 7
aug-cc-pVDZ
****
$end
--------------------------------------------------------------
 ----------------------------------------------------------------
             Standard Nuclear Orientation (Angstroms)
    I     Atom           X                Y                Z
 ----------------------------------------------------------------
    1      C      -0.6645000000    -0.0000000000    -0.1764707059
    2      C       0.6645000000     0.0000000000    -0.1764707059
    3      H      -1.1590800000    -0.0000000000     0.7858782941
    4      H       1.1590800000     0.0000000000     0.7858782941
    5      H      -1.1590800000    -0.0000000000    -1.1388187059
    6      H       1.1590800000     0.0000000000    -1.1388187059
    7      H       0.0000000000     0.0000000000     2.8235292941
 ----------------------------------------------------------------
 Molecular Point Group                 C2v   NOp =  4
 Largest Abelian Subgroup              C2v   NOp =  4
 Nuclear Repulsion Energy =          36.36366470 hartrees
 There are        9 alpha and        9 beta electrons
 Requested basis set is non-standard
 There are 33 shells and 67 basis functions
 Total memory of 95000 MB is distributed as follows: 
   MEM_STATIC is set to 192 MB
   QALLOC/CCMAN JOB total memory use is  94808 MB
 Warning: actual memory use might exceed 95000 MB

 Total QAlloc Memory Limit  95000 MB
 Mega-Array Size       188 MB
 MEM_STATIC part       192 MB

                       Distance Matrix (Angstroms)
             C (  1)   C (  2)   H (  3)   H (  4)   H (  5)   H (  6)
   C (  2)  1.329000
   H (  3)  1.082000  2.061931
   H (  4)  2.061931  1.082000  2.318160
   H (  5)  1.082000  2.061931  1.924697  3.013026
   H (  6)  2.061931  1.082000  3.013026  1.924697  2.318160
   H (  7)  3.072712  3.072712  2.344246  2.344246  4.128398  4.128398

 
 A cutoff of  1.0D-14 yielded    561 shell pairs
 There are      2337 function pairs (      2484 Cartesian)
 Smallest overlap matrix eigenvalue = 2.53E-04

 Scale SEOQF with 1.000000e-01/1.000000e-01/1.000000e-01

 Standard Electronic Orientation quadrupole field applied
 Nucleus-field energy     =    -0.0000000009 hartrees
 ================ Generating on-the-fly SAD Guess ================
Attempting to make child job directory: /src/jdavis/qchem.scratch/qchem16599//Frg1/
Attempting to make child job directory: /src/jdavis/qchem.scratch/qchem16599//Frg2/
Creating input file /src/jdavis/qchem.scratch/qchem16599/Frg1.input
using default PutDataFrgm: nothing
calling putenv with: QCSCRATCH=/src/jdavis/qchem.scratch/qchem16599/ 
Spawning Job For Fragment 0
Done Job For Fragment 0
calling putenv with: QCSCRATCH=/src/jdavis/qchem.scratch 
calling putenv with: QCTHREADS=1 
Creating input file /src/jdavis/qchem.scratch/qchem16599/Frg2.input
using default PutDataFrgm: nothing
calling putenv with: QCSCRATCH=/src/jdavis/qchem.scratch/qchem16599/ 
Spawning Job For Fragment 1
Done Job For Fragment 1
calling putenv with: QCSCRATCH=/src/jdavis/qchem.scratch 
calling putenv with: QCTHREADS=1 
 Time for running child jobs:  CPU 1.77 s  wall 54.48 s
 ============= Method Specific SAD Guess Constructed =============
 Guess from on-the-fly superposition of atomic densities
 Warning: Energy on first SCF cycle will be non-variational
 A restricted Hartree-Fock SCF calculation will be
 performed using Pulay DIIS extrapolation
 SCF converges when DIIS error is below 1.0E-08
 using 10 threads for integral computing
 -------------------------------------------------------
 OpenMP Integral computing Module                
 Release: version 1.0, May 2013, Q-Chem Inc. Pittsburgh 
 -------------------------------------------------------
 ---------------------------------------
  Cycle       Energy         DIIS Error
 ---------------------------------------
    1     -78.8150067940      7.37E-02
    2     -78.4592340800      6.97E-03
    3     -78.5069449312      1.74E-03
    4     -78.5096514778      5.58E-04
    5     -78.5099778967      1.21E-04
    6     -78.5100050191      2.91E-05
    7     -78.5100075433      7.83E-06
    8     -78.5100077739      1.13E-06
    9     -78.5100077796      2.68E-07
   10     -78.5100077801      5.70E-08
   11     -78.5100077801      1.25E-08
   12     -78.5100077801      1.69E-09 Convergence criterion met
 ---------------------------------------
 SCF time:  CPU 11.26 s  wall 1.13 s
 SCF   energy in the final basis set = -78.51000778
 Total energy in the final basis set = -78.51000778
================================================================================
|                                                                              |
|                                 A D C  M A N                                 |
|                                                                              |
 ------------------------------------------------------------------------------ 
|                                                                              |
| Components:                                                                  |
|                                                                              |
| - libvmm - 1.3-trunk                                                         |
|   Authors:                                                                   |
|   Evgeny Epifanovsky, Ilya Kaliman                                           |
|                                                                              |
| - libtensor - 2.5-trunk                                                      |
|   Authors:                                                                   |
|   Evgeny Epifanovsky, Michael Wormit, Dmitry Zuev, Sam Manzer,               |
|   Ilya Kaliman                                                               |
|                                                                              |
| - libwfa - 1.1-trunk                                                         |
|   Authors:                                                                   |
|   Felix Plasser, Stefanie Mewes (Baeppler), Benjamin Thomitzni,              |
|   Michael Wormit, Feng Chen, Anna I. Krylov, Pavel Pokhilko                  |
|                                                                              |
| - libadc - 1.1-trunk                                                         |
|   Authors:                                                                   |
|   Michael Wormit, Adrian L. Dempwolff, Philipp H. P. Harbach,                |
|   Caroline Krauter, Dirk Rehn, Matthias Schneider, Jan Wenzel                |
|                                                                              |
| - adcman - 2.6-trunk                                                         |
|   Authors:                                                                   |
|   Michael Wormit, Adrian L. Dempwolff, Philipp H. P. Harbach,                |
|   Caroline Krauter, Daniel Lefrancois, Jan-Michael Mewes, Dirk Rehn,         |
|   Matthias Schneider, Jan Wenzel, Andreas Dreuw                              |
|                                                                              |
| Authors of earlier versions of ADCMAN:                                       |
| Andreas Dreuw, Jan Hendrik Starcke, Dirk Rehn, Michael Wormit                |
|                                                                              |
================================================================================

 
 Alpha MOs, Restricted
 -- Occupied --                  
-11.066 -11.064  -0.872  -0.615  -0.489  -0.400  -0.343  -0.209
  1 A1    1 B1    2 A1    2 B1    3 A1    4 A1    3 B1    1 B2                 
 -0.026
  5 A1                                                                         
 -- Virtual --                   
  0.171   0.191   0.208   0.213   0.216   0.231   0.304   0.323
  4 B1    6 A1    2 B2    1 A2    7 A1    5 B1    8 A1    2 A2                 
  0.336   0.421   0.452   0.458   0.477   0.478   0.493   0.527
  6 B1    9 A1    7 B1   10 A1    3 B2    8 B1   11 A1   12 A1                 
  0.528   0.559   0.711   0.770   0.966   1.014   1.070   1.097
  9 B1    3 A2   10 B1   11 B1   13 A1   14 A1   15 A1   12 B1                 
  1.105   1.197   1.214   1.242   1.267   1.284   1.284   1.285
 16 A1   13 B1   17 A1    4 B2   18 A1    4 A2   14 B1    5 B2                 
  1.434   1.455   1.455   1.596   1.788   1.820   1.900   1.906
 15 B1    5 A2    6 B2   16 B1   19 A1   17 B1    7 B2   20 A1                 
  1.949   2.022   2.040   2.111   2.130   2.191   2.231   2.269
 18 B1   21 A1    6 A2    8 B2   19 B1    9 B2   22 A1   23 A1                 
  2.347   2.496   2.583   2.653   2.739   2.765   2.993   3.022
  7 A2   20 B1    8 A2   24 A1   21 B1   22 B1   25 A1   26 A1                 
  3.428   3.513
 23 B1   24 B1                                                                 
 
 Beta MOs, Restricted
 -- Occupied --                  
-11.066 -11.064  -0.872  -0.615  -0.489  -0.400  -0.343  -0.209
  1 A1    1 B1    2 A1    2 B1    3 A1    4 A1    3 B1    1 B2                 
 -0.026
  5 A1                                                                         
 -- Virtual --                   
  0.171   0.191   0.208   0.213   0.216   0.231   0.304   0.323
  4 B1    6 A1    2 B2    1 A2    7 A1    5 B1    8 A1    2 A2                 
  0.336   0.421   0.452   0.458   0.477   0.478   0.493   0.527
  6 B1    9 A1    7 B1   10 A1    3 B2    8 B1   11 A1   12 A1                 
  0.528   0.559   0.711   0.770   0.966   1.014   1.070   1.097
  9 B1    3 A2   10 B1   11 B1   13 A1   14 A1   15 A1   12 B1                 
  1.105   1.197   1.214   1.242   1.267   1.284   1.284   1.285
 16 A1   13 B1   17 A1    4 B2   18 A1    4 A2   14 B1    5 B2                 
  1.434   1.455   1.455   1.596   1.788   1.820   1.900   1.906
 15 B1    5 A2    6 B2   16 B1   19 A1   17 B1    7 B2   20 A1                 
  1.949   2.022   2.040   2.111   2.130   2.191   2.231   2.269
 18 B1   21 A1    6 A2    8 B2   19 B1    9 B2   22 A1   23 A1                 
  2.347   2.496   2.583   2.653   2.739   2.765   2.993   3.022
  7 A2   20 B1    8 A2   24 A1   21 B1   22 B1   25 A1   26 A1                 
  3.428   3.513
 23 B1   24 B1                                                                 

--------------------------------------------------------------------------------
                                   HF Summary                                   
--------------------------------------------------------------------------------
  Energy:                                                  -78.5100077801 a.u.
  Dip. moment [a.u.]:                  [   0.000000,    0.000000,   -4.326177]
  Total dipole [Debye]:                                              10.996047
  <r^2> [a.u.]:                        [  52.485482,   16.506298,   82.427548]
  Total <r^2> [a.u.]:                                               151.419328
--------------------------------------------------------------------------------

--------------------------------------------------------------------------------
                                 MP(2) Summary                                  
--------------------------------------------------------------------------------
  MP energy contribution:                                   -0.3060867145 a.u.
  Total energy:                                            -78.8160944946 a.u.
  Dip. moment [a.u.]:                  [   0.000000,    0.000000,   -4.203362]
  Total dipole [Debye]:                                              10.683881
  <r^2> [a.u.]:                        [  52.851356,   16.513689,   81.955703]
  Total <r^2> [a.u.]:                                               151.320748

  Density matrix analysis:
  ------------------------
  NOs
    Occupation of frontier NOs:
       0.0449   1.9359
    Number of electrons: 18.000000
    Number of unpaired electrons: n_u =  0.46265, n_u,nl =  0.05072
    NO participation ratio (PR_NO): 16.198500
  
  
  Mulliken Population Analysis
  Atom      Charge (e)              h+              e-           Del q
  --------------------------------------------------------------------
   1 C       -0.390176        0.088203       -0.113592       -0.025388
   2 C       -0.390176        0.088203       -0.113592       -0.025388
   3 H        0.165019        0.016171       -0.018670       -0.002499
   4 H        0.165019        0.016171       -0.018670       -0.002499
   5 H        0.039202        0.019401       -0.011602        0.007799
   6 H        0.039202        0.019401       -0.011602        0.007799
   7 H       -0.628091        0.053784       -0.013607        0.040177
  --------------------------------------------------------------------
  Sum:       -1.000000        0.301334       -0.301334       -0.000000
  
  Multipole moment analysis of the density matrix
    Molecular charge:                      -1.000000
    Number of electrons:                   18.000000
      Center of electronic charge [Ang]: [ -0.000000,  -0.000000,   0.123574]
    Total nuclear charge:                  17.000000
      Center of nuclear charge [Ang]:    [ -0.000000,   0.000000,   0.000000]
    Dipole moment [D]:                     10.683878
      Cartesian components [D]:          [  0.000000,   0.000000, -10.683878]
    RMS size of the density [Ang]:         1.529329
      Cartesian components [Ang]:        [  0.906761,   0.506859,   1.122375]
  
  Exciton analysis of the difference density matrix
    <r_h> [Ang]:                  [  0.000000,  -0.000000,   0.276574]
    <r_e> [Ang]:                  [  0.000000,  -0.000000,   0.060896]
    |<r_e - r_h>| [Ang]:            0.215678
    Hole size [Ang]:                1.839996
      Cartesian components [Ang]: [  0.962036,   0.762007,   1.370918]
    Electron size [Ang]:            1.834873
      Cartesian components [Ang]: [  1.124953,   0.766500,   1.230332]
--------------------------------------------------------------------------------

--------------------------------------------------------------------------------
                                 MP(3) Summary                                  
--------------------------------------------------------------------------------
  MP energy contribution:                                   -0.0285389720 a.u.
  Total energy:                                            -78.8446334665 a.u.
--------------------------------------------------------------------------------
Less singles guess vectors found than requested: 85 (found), 100 (requested).
Adjusting number of doubles guess vectors to 15.
  Starting Davidson for singlet states of irrep A2 ... 
--------------------------------------------------------------------------------
   It NVec Conv  Avg. Norm  Max. Norm  Conv. states           Remark
--------------------------------------------------------------------------------
       100    0  7.707e-02  3.625e-01  0.1332 n n n n n n n n Guess.
    1  110    0  3.022e-02  1.789e-01  0.0879 n n n n n n n n 
    2  120    0  1.876e-02  1.300e-01  0.0839 n n n n n n n n 
    3  130    0  7.781e-03  4.545e-02  0.0836 n n n n n n n n 
    4  140    0  3.238e-03  2.068e-02  0.0836 n n n n n n n n 
    5  150    0  1.545e-03  1.212e-02  0.0836 n n n n n n n n 
    6  160    0  1.945e-03  1.901e-02  0.0836 n n n n n n n n 
    7  170    1  2.892e-03  2.886e-02  0.0836 y n n n n n n n 
    8  180    2  1.526e-03  1.524e-02  0.0836 y y n n n n n n 
    9  190    3  7.253e-04  7.246e-03  0.0836 y y y n n n n n 
   10  200    5  3.073e-04  3.070e-03  0.0836 y y y y y n n n 
   11   20    6  1.131e-04  1.130e-03  0.0836 y y y y y y n n Subspace collapsed.
   12   30    7  6.961e-05  6.954e-04  0.0836 y y y y y y n y 
   13   40    8  4.388e-05  4.385e-04  0.0836 y y y y y y n y 
   14   50    9  2.225e-05  2.224e-04  0.0836 y y y y y y y y 
   15   60    9  1.421e-05  1.420e-04  0.0836 y y y y y y y y 
   16   70    9  1.020e-05  1.020e-04  0.0836 y y y y y y y y 
   17   80    9  8.337e-06  8.334e-05  0.0836 y y y y y y y y 
   18   90    9  5.561e-06  5.560e-05  0.0836 y y y y y y y y 
   19  100    9  3.434e-06  3.434e-05  0.0836 y y y y y y y y 
   20  110    9  2.098e-06  2.098e-05  0.0836 y y y y y y y y 
   21  120    9  1.763e-06  1.763e-05  0.0836 y y y y y y y y 
   22  130    9  1.826e-06  1.826e-05  0.0836 y y y y y y y y 
   23  139   10  9.443e-07  9.443e-06  0.0836 y y y y y y y y Converged.
--------------------------------------------------------------------------------
  Davidson Summary: 
 ------------------------------------------------------------
  State  0: excitation energy =   0.0836 a.u.   (converged)
  State  1: excitation energy =   0.1475 a.u.   (converged)
  State  2: excitation energy =   0.2376 a.u.   (converged)
  State  3: excitation energy =   0.2559 a.u.   (converged)
  State  4: excitation energy =   0.3005 a.u.   (converged)
  State  5: excitation energy =   0.3363 a.u.   (converged)
  State  6: excitation energy =   0.3439 a.u.   (converged)
  State  7: excitation energy =   0.3460 a.u.   (converged)
  State  8: excitation energy =   0.3569 a.u.   (converged)
  State  9: excitation energy =   0.3615 a.u.   (converged)
 ------------------------------------------------------------


--------------------------------------------------------------------------------
                   State-averaged natural transition orbitals
--------------------------------------------------------------------------------
--------------------------------------------------------------------------------

--------------------------------------------------------------------------------
                             Excited State Summary
--------------------------------------------------------------------------------
--------------------------------------------------------------------------------

  Excited state 1 (singlet, A2)                                    [converged]
  ----------------------------------------------------------------------------
  Term symbol:  1 (1) A2                                    R^2 =  6.47153e-15

  Total energy:                                            -78.7610336991 a.u.
  Excitation energy:                                               2.274865 eV

  Osc. strength:                                                      0.000000
  Trans. dip. moment [a.u.]:           [  -0.000000,   -0.000000,   -0.000000]
  <i|r^2|0> [a.u.]:                    [  -0.000000,   -0.000000,   -0.000000]

  Dip. moment [a.u.]:                  [   0.000000,    0.000000,    0.404425]
  Total dipole [Debye]:                                               1.027946
  <r^2> [a.u.]:                        [  66.396269,   29.469811,   59.956446]
  Total <r^2> [a.u.]:                                               155.822527

  V1^2 = 0.8820, V2^2 = 0.1180

  Important amplitudes:
      occ i      occ j       vir a       vir b          v   
    ---------------------------------------------------------
     5 (A1) A               1 (A2) A                  0.6051
     5 (A1) A               2 (A2) A                 -0.2707
    ---------------------------------------------------------

  Density matrix analysis:
  ------------------------
  NOs
    Occupation of frontier NOs:
       0.9883   0.9888
    Number of electrons: 18.000000
    Number of unpaired electrons: n_u =  2.43483, n_u,nl =  2.05104
    NO participation ratio (PR_NO):  3.012380
  
  
  Mulliken Population Analysis
  Atom      Charge (e)              h+              e-           Del q
  --------------------------------------------------------------------
   1 C       -0.653466        0.285505       -0.548796       -0.263290
   2 C       -0.653466        0.285505       -0.548796       -0.263290
   3 H        0.077751        0.023961       -0.111229       -0.087268
   4 H        0.077751        0.023961       -0.111229       -0.087268
   5 H        0.067945        0.026414        0.002328        0.028742
   6 H        0.067945        0.026414        0.002328        0.028742
   7 H        0.015541        0.724771       -0.081139        0.643632
  --------------------------------------------------------------------
  Sum:       -1.000000        1.396532       -1.396532       -0.000000
  
  Multipole moment analysis of the density matrix
    Molecular charge:                      -1.000000
    Number of electrons:                   18.000000
      Center of electronic charge [Ang]: [ -0.000000,  -0.000000,  -0.011890]
    Total nuclear charge:                  17.000000
      Center of nuclear charge [Ang]:    [ -0.000000,   0.000000,   0.000000]
    Dipole moment [D]:                     1.027946
      Cartesian components [D]:          [  0.000000,   0.000000,   1.027946]
    RMS size of the density [Ang]:         1.556924
      Cartesian components [Ang]:        [  1.016335,   0.677101,   0.965717]
  
  Exciton analysis of the difference density matrix
    <r_h> [Ang]:                  [  0.000000,   0.000000,   1.919118]
    <r_e> [Ang]:                  [ -0.000000,  -0.000000,   0.173124]
    |<r_e - r_h>| [Ang]:            1.745994
    Hole size [Ang]:                2.185413
      Cartesian components [Ang]: [  1.029284,   0.964731,   1.669101]
    Electron size [Ang]:            3.054792
      Cartesian components [Ang]: [  1.943042,   1.878465,   1.423978]

  Transition density matrix analysis:
  -----------------------------------
  
  CT numbers (Mulliken)
    omega =     0.8656
    <Phe> =     0.0004
  
  Exciton analysis of the transition density matrix
    Trans. dipole moment [D]:             0.000000
      Cartesian components [D]:         [ -0.000000,  -0.000000,  -0.000000]
    <r_h> [Ang]:                        [ -0.000000,   0.000000,   2.616505]
    <r_e> [Ang]:                        [ -0.000000,  -0.000000,  -0.175639]
    |<r_e - r_h>| [Ang]:                  2.792145
    Hole size [Ang]:                      1.574385
      Cartesian components [Ang]:       [  0.813895,   0.797649,   1.086287]
    Electron size [Ang]:                  3.266121
      Cartesian components [Ang]:       [  2.173723,   2.109352,   1.221927]
    RMS electron-hole separation [Ang]:   4.574047
      Cartesian components [Ang]:       [  2.317274,   2.254619,   3.235559]
    Covariance(r_h, r_e) [Ang^2]:         0.010199
    Correlation coefficient:              0.001983
    Center-of-mass size [Ang]:            1.814293
      Cartesian components [Ang]:       [  1.162459,   1.127821,   0.817538]

  Decomposition into state-averaged NTOs
    H- 1 -> L+ 0: -0.5615 ( 63.1%)
    H- 1 -> L+ 3:  0.3408 ( 23.2%)
                   omega =  86.6%
  ----------------------------------------------------------------------------


  Excited state 2 (singlet, A2)                                    [converged]
  ----------------------------------------------------------------------------
  Term symbol:  2 (1) A2                                    R^2 =  1.96983e-14

  Total energy:                                            -78.6970930418 a.u.
  Excitation energy:                                               4.014779 eV

  Osc. strength:                                                      0.000000
  Trans. dip. moment [a.u.]:           [  -0.000000,    0.000000,   -0.000000]
  <i|r^2|0> [a.u.]:                    [  -0.000000,   -0.000000,    0.000000]

  Dip. moment [a.u.]:                  [   0.000000,   -0.000000,    0.416751]
  Total dipole [Debye]:                                               1.059275
  <r^2> [a.u.]:                        [  67.609198,   30.990794,   60.697860]
  Total <r^2> [a.u.]:                                               159.297851

  V1^2 = 0.8586, V2^2 = 0.1414

  Important amplitudes:
      occ i      occ j       vir a       vir b          v   
    ---------------------------------------------------------
     5 (A1) A               2 (A2) A                 -0.5792
     5 (A1) A               1 (A2) A                 -0.2859
    ---------------------------------------------------------

  Density matrix analysis:
  ------------------------
  NOs
    Occupation of frontier NOs:
       0.9739   0.9863
    Number of electrons: 18.000000
    Number of unpaired electrons: n_u =  2.47751, n_u,nl =  2.06740
    NO participation ratio (PR_NO):  3.164816
  
  
  Mulliken Population Analysis
  Atom      Charge (e)              h+              e-           Del q
  --------------------------------------------------------------------
   1 C       -0.617769        0.319800       -0.547393       -0.227593
   2 C       -0.617769        0.319800       -0.547393       -0.227593
   3 H        0.058334        0.022876       -0.129561       -0.106685
   4 H        0.058334        0.022876       -0.129561       -0.106685
   5 H        0.047717        0.014915       -0.006400        0.008515
   6 H        0.047717        0.014915       -0.006400        0.008515
   7 H        0.023435        0.725269       -0.073743        0.651526
  --------------------------------------------------------------------
  Sum:       -1.000000        1.440451       -1.440451       -0.000000
  
  Multipole moment analysis of the density matrix
    Molecular charge:                      -1.000000
    Number of electrons:                   18.000000
      Center of electronic charge [Ang]: [ -0.000000,   0.000000,  -0.012252]
    Total nuclear charge:                  17.000000
      Center of nuclear charge [Ang]:    [ -0.000000,   0.000000,   0.000000]
    Dipole moment [D]:                     1.059275
      Cartesian components [D]:          [  0.000000,  -0.000000,   1.059275]
    RMS size of the density [Ang]:         1.574188
      Cartesian components [Ang]:        [  1.025576,   0.694354,   0.971666]
  
  Exciton analysis of the difference density matrix
    <r_h> [Ang]:                  [  0.000000,   0.000000,   1.860654]
    <r_e> [Ang]:                  [ -0.000000,   0.000000,   0.163367]
    |<r_e - r_h>| [Ang]:            1.697287
    Hole size [Ang]:                2.165722
      Cartesian components [Ang]: [  1.014536,   0.949209,   1.661347]
    Electron size [Ang]:            3.110703
      Cartesian components [Ang]: [  1.974400,   1.927536,   1.436253]

  Transition density matrix analysis:
  -----------------------------------
  
  CT numbers (Mulliken)
    omega =     0.8407
    <Phe> =    -0.0003
  
  Exciton analysis of the transition density matrix
    Trans. dipole moment [D]:             0.000000
      Cartesian components [D]:         [ -0.000000,   0.000000,  -0.000000]
    <r_h> [Ang]:                        [ -0.000000,   0.000000,   2.613263]
    <r_e> [Ang]:                        [ -0.000000,   0.000000,  -0.175391]
    |<r_e - r_h>| [Ang]:                  2.788655
    Hole size [Ang]:                      1.575947
      Cartesian components [Ang]:       [  0.813218,   0.796563,   1.089850]
    Electron size [Ang]:                  3.384312
      Cartesian components [Ang]:       [  2.244573,   2.191118,   1.270614]
    RMS electron-hole separation [Ang]:   4.657927
      Cartesian components [Ang]:       [  2.384629,   2.330610,   3.252397]
    Covariance(r_h, r_e) [Ang^2]:         0.008745
    Correlation coefficient:              0.001640
    Center-of-mass size [Ang]:            1.867797
      Cartesian components [Ang]:       [  1.195033,   1.166113,   0.837105]

  Decomposition into state-averaged NTOs
    H- 1 -> L+ 3: -0.5663 ( 64.1%)
    H- 1 -> L+ 0: -0.3149 ( 19.8%)
                   omega =  84.1%
  ----------------------------------------------------------------------------


  Excited state 3 (singlet, A2)                                    [converged]
  ----------------------------------------------------------------------------
  Term symbol:  3 (1) A2                                    R^2 =  3.97056e-13

  Total energy:                                            -78.6070317170 a.u.
  Excitation energy:                                               6.465472 eV

  Osc. strength:                                                      0.000000
  Trans. dip. moment [a.u.]:           [  -0.000000,   -0.000000,    0.000000]
  <i|r^2|0> [a.u.]:                    [  -0.000000,   -0.000000,   -0.000000]

  Dip. moment [a.u.]:                  [  -0.000000,    0.000000,   -2.360698]
  Total dipole [Debye]:                                               6.000298
  <r^2> [a.u.]:                        [  85.820333,   21.998971,   89.098460]
  Total <r^2> [a.u.]:                                               196.917764

  V1^2 = 0.9253, V2^2 = 0.0747

  Important amplitudes:
      occ i      occ j       vir a       vir b          v   
    ---------------------------------------------------------
     1 (B2) A               4 (B1) A                  0.6612
     1 (B2) A               6 (B1) A                  0.1336
    ---------------------------------------------------------

  Density matrix analysis:
  ------------------------
  NOs
    Occupation of frontier NOs:
       0.9781   0.9840
    Number of electrons: 18.000000
    Number of unpaired electrons: n_u =  2.36800, n_u,nl =  2.03319
    NO participation ratio (PR_NO):  2.899533
  
  
  Mulliken Population Analysis
  Atom      Charge (e)              h+              e-           Del q
  --------------------------------------------------------------------
   1 C       -0.515399        0.532003       -0.657227       -0.125223
   2 C       -0.515399        0.532003       -0.657227       -0.125223
   3 H        0.217068        0.071621       -0.019573        0.052048
   4 H        0.217068        0.071621       -0.019573        0.052048
   5 H        0.092177        0.122412       -0.069437        0.052974
   6 H        0.092177        0.122412       -0.069437        0.052974
   7 H       -0.587690        0.081787       -0.041386        0.040401
  --------------------------------------------------------------------
  Sum:       -1.000000        1.533859       -1.533859       -0.000000
  
  Multipole moment analysis of the density matrix
    Molecular charge:                      -1.000000
    Number of electrons:                   18.000000
      Center of electronic charge [Ang]: [  0.000000,  -0.000000,   0.069402]
    Total nuclear charge:                  17.000000
      Center of nuclear charge [Ang]:    [ -0.000000,   0.000000,   0.000000]
    Dipole moment [D]:                     6.000296
      Cartesian components [D]:          [ -0.000000,   0.000000,  -6.000296]
    RMS size of the density [Ang]:         1.748903
      Cartesian components [Ang]:        [  1.155473,   0.585014,   1.175287]
  
  Exciton analysis of the difference density matrix
    <r_h> [Ang]:                  [  0.000000,  -0.000000,  -0.033604]
    <r_e> [Ang]:                  [  0.000000,  -0.000000,  -0.669317]
    |<r_e - r_h>| [Ang]:            0.635714
    Hole size [Ang]:                1.888278
      Cartesian components [Ang]: [  1.081036,   0.910074,   1.252486]
    Electron size [Ang]:            3.382772
      Cartesian components [Ang]: [  2.680972,   1.352647,   1.557524]

  Transition density matrix analysis:
  -----------------------------------
  
  CT numbers (Mulliken)
    omega =     0.8951
    <Phe> =    -0.0025
  
  Exciton analysis of the transition density matrix
    Trans. dipole moment [D]:             0.000000
      Cartesian components [D]:         [ -0.000000,  -0.000000,   0.000000]
    <r_h> [Ang]:                        [  0.000000,   0.000000,  -0.183929]
    <r_e> [Ang]:                        [  0.000000,  -0.000000,  -1.113459]
    |<r_e - r_h>| [Ang]:                  0.929530
    Hole size [Ang]:                      1.279484
      Cartesian components [Ang]:       [  0.764610,   0.883403,   0.521585]
    Electron size [Ang]:                  3.918301
      Cartesian components [Ang]:       [  3.235648,   1.599053,   1.525351]
    RMS electron-hole separation [Ang]:   4.214042
      Cartesian components [Ang]:       [  3.313749,   1.821055,   1.860368]
    Covariance(r_h, r_e) [Ang^2]:         0.048022
    Correlation coefficient:              0.009579
    Center-of-mass size [Ang]:            2.066773
      Cartesian components [Ang]:       [  1.667870,   0.916310,   0.806311]

  Decomposition into state-averaged NTOs
    H- 0 -> L+ 1:  0.6506 ( 84.7%)
    H- 0 -> L+ 2: -0.1547 (  4.8%)
                   omega =  89.5%
  ----------------------------------------------------------------------------


  Excited state 4 (singlet, A2)                                    [converged]
  ----------------------------------------------------------------------------
  Term symbol:  4 (1) A2                                    R^2 =  5.18742e-12

  Total energy:                                            -78.5887114668 a.u.
  Excitation energy:                                               6.963992 eV

  Osc. strength:                                                      0.000000
  Trans. dip. moment [a.u.]:           [   0.000000,   -0.000000,    0.000000]
  <i|r^2|0> [a.u.]:                    [   0.000000,    0.000000,   -0.000000]

  Dip. moment [a.u.]:                  [  -0.000000,    0.000000,    1.119848]
  Total dipole [Debye]:                                               2.846370
  <r^2> [a.u.]:                        [  64.010230,   45.425115,   63.657702]
  Total <r^2> [a.u.]:                                               173.093047

  V1^2 = 0.0305, V2^2 = 0.9695

  Important amplitudes:
      occ i      occ j       vir a       vir b          v   
    ---------------------------------------------------------
     5 (A1) A   1 (B2) B    2 (A2) A    2 (B2) B      0.2385
     5 (A1) A   1 (B2) B    2 (B2) A    2 (A2) B      0.1238
    ---------------------------------------------------------

  Density matrix analysis:
  ------------------------
  NOs
    Occupation of frontier NOs:
       0.9737   1.0110
    Number of electrons: 18.000000
    Number of unpaired electrons: n_u =  4.07247, n_u,nl =  3.95106
    NO participation ratio (PR_NO):  4.848001
  
  
  Mulliken Population Analysis
  Atom      Charge (e)              h+              e-           Del q
  --------------------------------------------------------------------
   1 C       -0.792241        0.571175       -0.973241       -0.402065
   2 C       -0.792241        0.571175       -0.973241       -0.402065
   3 H        0.162621        0.012843       -0.015241       -0.002398
   4 H        0.162621        0.012843       -0.015241       -0.002398
   5 H        0.032551        0.003254       -0.009905       -0.006651
   6 H        0.032551        0.003254       -0.009905       -0.006651
   7 H        0.194139        0.824279       -0.002050        0.822230
  --------------------------------------------------------------------
  Sum:       -1.000000        1.998823       -1.998823       -0.000000
  
  Multipole moment analysis of the density matrix
    Molecular charge:                      -1.000000
    Number of electrons:                   18.000000
      Center of electronic charge [Ang]: [  0.000000,  -0.000000,  -0.032922]
    Total nuclear charge:                  17.000000
      Center of nuclear charge [Ang]:    [ -0.000000,   0.000000,   0.000000]
    Dipole moment [D]:                     2.846369
      Cartesian components [D]:          [ -0.000000,   0.000000,   2.846369]
    RMS size of the density [Ang]:         1.640655
      Cartesian components [Ang]:        [  0.997906,   0.840646,   0.994609]
  
  Exciton analysis of the difference density matrix
    <r_h> [Ang]:                  [  0.000000,   0.000000,   1.244443]
    <r_e> [Ang]:                  [  0.000000,  -0.000000,  -0.164847]
    |<r_e - r_h>| [Ang]:            1.409290
    Hole size [Ang]:                2.016849
      Cartesian components [Ang]: [  0.790411,   0.864580,   1.641777]
    Electron size [Ang]:            2.939281
      Cartesian components [Ang]: [  1.479213,   2.190410,   1.285849]

  Transition density matrix analysis:
  -----------------------------------
  
  CT numbers (Mulliken)
    omega =     0.0300
    <Phe> =     0.0002
  
  Exciton analysis of the transition density matrix
    Trans. dipole moment [D]:             0.000000
      Cartesian components [D]:         [  0.000000,  -0.000000,   0.000000]
    <r_h> [Ang]:                        [ -0.000000,   0.000000,   2.514212]
    <r_e> [Ang]:                        [ -0.000000,  -0.000000,  -0.175178]
    |<r_e - r_h>| [Ang]:                  2.689390
    Hole size [Ang]:                      1.669719
      Cartesian components [Ang]:       [  0.833701,   0.796431,   1.207725]
    Electron size [Ang]:                  3.170810
      Cartesian components [Ang]:       [  2.090251,   2.060557,   1.199581]
    RMS electron-hole separation [Ang]:   4.480996
      Cartesian components [Ang]:       [  2.251504,   2.208666,   3.183056]
    Covariance(r_h, r_e) [Ang^2]:        -0.002253
    Correlation coefficient:             -0.000426
    Center-of-mass size [Ang]:            1.791472
      Cartesian components [Ang]:       [  1.124627,   1.104783,   0.850906]

  Decomposition into state-averaged NTOs
    H- 1 -> L+ 0:  0.0779 (  1.2%)
                   omega =   3.0%
  ----------------------------------------------------------------------------


  Excited state 5 (singlet, A2)                                    [converged]
  ----------------------------------------------------------------------------
  Term symbol:  5 (1) A2                                    R^2 =  1.58341e-11

  Total energy:                                            -78.5441364875 a.u.
  Excitation energy:                                               8.176939 eV

  Osc. strength:                                                      0.000000
  Trans. dip. moment [a.u.]:           [  -0.000000,   -0.000000,   -0.000000]
  <i|r^2|0> [a.u.]:                    [   0.000000,    0.000000,    0.000000]

  Dip. moment [a.u.]:                  [  -0.000000,    0.000000,   -4.925844]
  Total dipole [Debye]:                                              12.520249
  <r^2> [a.u.]:                        [  78.719432,   21.555962,   98.194064]
  Total <r^2> [a.u.]:                                               198.469459

  V1^2 = 0.9023, V2^2 = 0.0977

  Important amplitudes:
      occ i      occ j       vir a       vir b          v   
    ---------------------------------------------------------
     1 (B2) A               5 (B1) A                  0.6610
     1 (B2) A               8 (B1) A                 -0.0996
    ---------------------------------------------------------

  Density matrix analysis:
  ------------------------
  NOs
    Occupation of frontier NOs:
       0.9799   0.9800
    Number of electrons: 18.000000
    Number of unpaired electrons: n_u =  2.39606, n_u,nl =  2.03898
    NO participation ratio (PR_NO):  2.973018
  
  
  Mulliken Population Analysis
  Atom      Charge (e)              h+              e-           Del q
  --------------------------------------------------------------------
   1 C       -0.486893        0.531040       -0.627758       -0.096717
   2 C       -0.486893        0.531040       -0.627758       -0.096717
   3 H        0.153815        0.080777       -0.091982       -0.011205
   4 H        0.153815        0.080777       -0.091982       -0.011205
   5 H        0.080782        0.099449       -0.057870        0.041579
   6 H        0.080782        0.099449       -0.057870        0.041579
   7 H       -0.495405        0.157035       -0.024350        0.132685
  --------------------------------------------------------------------
  Sum:       -1.000000        1.579569       -1.579569        0.000000
  
  Multipole moment analysis of the density matrix
    Molecular charge:                      -1.000000
    Number of electrons:                   18.000000
      Center of electronic charge [Ang]: [  0.000000,  -0.000000,   0.144814]
    Total nuclear charge:                  17.000000
      Center of nuclear charge [Ang]:    [ -0.000000,   0.000000,   0.000000]
    Dipole moment [D]:                     12.520245
      Cartesian components [D]:          [ -0.000000,   0.000000, -12.520245]
    RMS size of the density [Ang]:         1.751184
      Cartesian components [Ang]:        [  1.106639,   0.579093,   1.227456]
  
  Exciton analysis of the difference density matrix
    <r_h> [Ang]:                  [  0.000000,  -0.000000,   0.129463]
    <r_e> [Ang]:                  [  0.000000,   0.000000,   0.371504]
    |<r_e - r_h>| [Ang]:            0.242041
    Hole size [Ang]:                1.922223
      Cartesian components [Ang]: [  1.058385,   0.889366,   1.335587]
    Electron size [Ang]:            3.454314
      Cartesian components [Ang]: [  2.388747,   1.298027,   2.131032]

  Transition density matrix analysis:
  -----------------------------------
  
  CT numbers (Mulliken)
    omega =     0.8727
    <Phe> =    -0.0007
  
  Exciton analysis of the transition density matrix
    Trans. dipole moment [D]:             0.000000
      Cartesian components [D]:         [ -0.000000,  -0.000000,  -0.000000]
    <r_h> [Ang]:                        [ -0.000000,   0.000000,  -0.183441]
    <r_e> [Ang]:                        [  0.000000,   0.000000,   0.442322]
    |<r_e - r_h>| [Ang]:                  0.625763
    Hole size [Ang]:                      1.279561
      Cartesian components [Ang]:       [  0.764385,   0.883816,   0.521402]
    Electron size [Ang]:                  4.113772
      Cartesian components [Ang]:       [  2.874169,   1.513622,   2.524128]
    RMS electron-hole separation [Ang]:   4.346969
      Cartesian components [Ang]:       [  2.965179,   1.752457,   2.651934]
    Covariance(r_h, r_e) [Ang^2]:         0.027917
    Correlation coefficient:              0.005304
    Center-of-mass size [Ang]:            2.157327
      Cartesian components [Ang]:       [  1.491474,   0.876536,   1.288894]

  Decomposition into state-averaged NTOs
    H- 0 -> L+ 2: -0.6413 ( 82.2%)
    H- 0 -> L+ 1: -0.1577 (  5.0%)
                   omega =  87.3%
  ----------------------------------------------------------------------------


  Excited state 6 (singlet, A2)                                    [converged]
  ----------------------------------------------------------------------------
  Term symbol:  6 (1) A2                                    R^2 =  3.44675e-10

  Total energy:                                            -78.5083825109 a.u.
  Excitation energy:                                               9.149854 eV

  Osc. strength:                                                      0.000000
  Trans. dip. moment [a.u.]:           [  -0.000000,   -0.000000,   -0.000000]
  <i|r^2|0> [a.u.]:                    [   0.000000,    0.000000,    0.000000]

  Dip. moment [a.u.]:                  [  -0.000000,    0.000000,    1.360587]
  Total dipole [Debye]:                                               3.458269
  <r^2> [a.u.]:                        [ 102.423442,   29.135353,   78.113314]
  Total <r^2> [a.u.]:                                               209.672109

  V1^2 = 0.0163, V2^2 = 0.9837

  Important amplitudes:
      occ i      occ j       vir a       vir b          v   
    ---------------------------------------------------------
     5 (A1) A   1 (B2) A    6 (A1) A    4 (B1) A      0.1610
     5 (A1) A   1 (B2) B    6 (A1) A    4 (B1) B      0.1369
    ---------------------------------------------------------

  Density matrix analysis:
  ------------------------
  NOs
    Occupation of frontier NOs:
       0.8881   0.9398
    Number of electrons: 18.000000
    Number of unpaired electrons: n_u =  4.19349, n_u,nl =  4.02308
    NO participation ratio (PR_NO):  5.553118
  
  
  Mulliken Population Analysis
  Atom      Charge (e)              h+              e-           Del q
  --------------------------------------------------------------------
   1 C       -0.762879        0.565788       -0.938491       -0.372703
   2 C       -0.762879        0.565788       -0.938491       -0.372703
   3 H        0.122177        0.011338       -0.054180       -0.042842
   4 H        0.122177        0.011338       -0.054180       -0.042842
   5 H        0.048181        0.006147        0.002831        0.008978
   6 H        0.048181        0.006147        0.002831        0.008978
   7 H        0.185042        0.830217       -0.017084        0.813133
  --------------------------------------------------------------------
  Sum:       -1.000000        1.996765       -1.996765        0.000000
  
  Multipole moment analysis of the density matrix
    Molecular charge:                      -1.000000
    Number of electrons:                   18.000000
      Center of electronic charge [Ang]: [  0.000000,  -0.000000,  -0.040000]
    Total nuclear charge:                  17.000000
      Center of nuclear charge [Ang]:    [ -0.000000,   0.000000,   0.000000]
    Dipole moment [D]:                     3.458268
      Cartesian components [D]:          [ -0.000000,   0.000000,   3.458268]
    RMS size of the density [Ang]:         1.805630
      Cartesian components [Ang]:        [  1.262306,   0.673248,   1.101644]
  
  Exciton analysis of the difference density matrix
    <r_h> [Ang]:                  [ -0.000000,   0.000000,   1.236199]
    <r_e> [Ang]:                  [  0.000000,  -0.000000,  -0.238344]
    |<r_e - r_h>| [Ang]:            1.474543
    Hole size [Ang]:                1.977077
      Cartesian components [Ang]: [  0.775434,   0.829132,   1.618665]
    Electron size [Ang]:            3.682862
      Cartesian components [Ang]: [  2.748334,   1.567653,   1.884833]

  Transition density matrix analysis:
  -----------------------------------
  
  CT numbers (Mulliken)
    omega =     0.0158
    <Phe> =    -0.0006
  
  Exciton analysis of the transition density matrix
    Trans. dipole moment [D]:             0.000000
      Cartesian components [D]:         [ -0.000000,  -0.000000,  -0.000000]
    <r_h> [Ang]:                        [ -0.000000,   0.000000,  -0.065429]
    <r_e> [Ang]:                        [  0.000000,  -0.000000,   0.941553]
    |<r_e - r_h>| [Ang]:                  1.006982
    Hole size [Ang]:                      1.395420
      Cartesian components [Ang]:       [  0.776638,   0.860799,   0.776566]
    Electron size [Ang]:                  3.838022
      Cartesian components [Ang]:       [  2.984344,   1.503148,   1.888028]
    RMS electron-hole separation [Ang]:   4.232724
      Cartesian components [Ang]:       [  3.083435,   1.725445,   2.330497]
    Covariance(r_h, r_e) [Ang^2]:        -0.112165
    Correlation coefficient:             -0.020943
    Center-of-mass size [Ang]:            2.028132
      Cartesian components [Ang]:       [  1.542026,   0.869439,   0.989723]

  Decomposition into state-averaged NTOs
    H- 0 -> L+ 2: -0.0844 (  1.4%)
                   omega =   1.6%
  ----------------------------------------------------------------------------


  Excited state 7 (singlet, A2)                                    [converged]
  ----------------------------------------------------------------------------
  Term symbol:  7 (1) A2                                    R^2 =  4.64799e-09

  Total energy:                                            -78.5007659846 a.u.
  Excitation energy:                                               9.357110 eV

  Osc. strength:                                                      0.000000
  Trans. dip. moment [a.u.]:           [  -0.000000,    0.000000,   -0.000000]
  <i|r^2|0> [a.u.]:                    [   0.000000,   -0.000000,   -0.000000]

  Dip. moment [a.u.]:                  [   0.000000,    0.000000,   -4.051788]
  Total dipole [Debye]:                                              10.298619
  <r^2> [a.u.]:                        [  54.356968,   19.978289,   81.466800]
  Total <r^2> [a.u.]:                                               155.802058

  V1^2 = 0.9264, V2^2 = 0.0736

  Important amplitudes:
      occ i      occ j       vir a       vir b          v   
    ---------------------------------------------------------
     4 (A1) A               2 (A2) A                 -0.5366
     4 (A1) A               1 (A2) A                  0.3698
    ---------------------------------------------------------

  Density matrix analysis:
  ------------------------
  NOs
    Occupation of frontier NOs:
       0.9787   1.0363
    Number of electrons: 18.000000
    Number of unpaired electrons: n_u =  2.46433, n_u,nl =  2.06325
    NO participation ratio (PR_NO):  3.189170
  
  
  Mulliken Population Analysis
  Atom      Charge (e)              h+              e-           Del q
  --------------------------------------------------------------------
   1 C       -0.496760        0.442284       -0.548868       -0.106584
   2 C       -0.496760        0.442284       -0.548868       -0.106584
   3 H        0.208043        0.061783       -0.018759        0.043023
   4 H        0.208043        0.061783       -0.018759        0.043023
   5 H        0.096407        0.066701       -0.009496        0.057205
   6 H        0.096407        0.066701       -0.009496        0.057205
   7 H       -0.615379        0.019951       -0.007239        0.012712
  --------------------------------------------------------------------
  Sum:       -1.000000        1.161485       -1.161485       -0.000000
  
  Multipole moment analysis of the density matrix
    Molecular charge:                      -1.000000
    Number of electrons:                   18.000000
      Center of electronic charge [Ang]: [ -0.000000,  -0.000000,   0.119117]
    Total nuclear charge:                  17.000000
      Center of nuclear charge [Ang]:    [ -0.000000,   0.000000,   0.000000]
    Dipole moment [D]:                     10.298616
      Cartesian components [D]:          [  0.000000,   0.000000, -10.298616]
    RMS size of the density [Ang]:         1.552303
      Cartesian components [Ang]:        [  0.919586,   0.557499,   1.119465]
  
  Exciton analysis of the difference density matrix
    <r_h> [Ang]:                  [  0.000000,   0.000000,  -0.093110]
    <r_e> [Ang]:                  [ -0.000000,  -0.000000,  -0.162167]
    |<r_e - r_h>| [Ang]:            0.069058
    Hole size [Ang]:                1.510456
      Cartesian components [Ang]: [  1.116063,   0.563420,   0.847608]
    Electron size [Ang]:            1.828735
      Cartesian components [Ang]: [  1.268303,   1.073657,   0.763504]

  Transition density matrix analysis:
  -----------------------------------
  
  CT numbers (Mulliken)
    omega =     0.8951
    <Phe> =    -0.0158
  
  Exciton analysis of the transition density matrix
    Trans. dipole moment [D]:             0.000000
      Cartesian components [D]:         [ -0.000000,   0.000000,  -0.000000]
    <r_h> [Ang]:                        [  0.000000,  -0.000000,  -0.137887]
    <r_e> [Ang]:                        [ -0.000000,  -0.000000,  -0.188385]
    |<r_e - r_h>| [Ang]:                  0.050498
    Hole size [Ang]:                      1.300861
      Cartesian components [Ang]:       [  1.073047,   0.419919,   0.603720]
    Electron size [Ang]:                  1.837762
      Cartesian components [Ang]:       [  1.290062,   1.115542,   0.684599]
    RMS electron-hole separation [Ang]:   2.233778
      Cartesian components [Ang]:       [  1.654360,   1.190508,   0.914082]
    Covariance(r_h, r_e) [Ang^2]:         0.041198
    Correlation coefficient:              0.017233
    Center-of-mass size [Ang]:            1.134902
      Cartesian components [Ang]:       [  0.850658,   0.596704,   0.456429]

  Decomposition into state-averaged NTOs
    H- 2 -> L+ 0:  0.6611 ( 87.4%)
    H- 0 -> L+ 5: -0.0746 (  1.1%)
                   omega =  89.5%
  ----------------------------------------------------------------------------


  Excited state 8 (singlet, A2)                                    [converged]
  ----------------------------------------------------------------------------
  Term symbol:  8 (1) A2                                    R^2 =  2.06830e-09

  Total energy:                                            -78.4986118080 a.u.
  Excitation energy:                                               9.415728 eV

  Osc. strength:                                                      0.000000
  Trans. dip. moment [a.u.]:           [   0.000000,   -0.000000,    0.000000]
  <i|r^2|0> [a.u.]:                    [  -0.000000,   -0.000000,   -0.000000]

  Dip. moment [a.u.]:                  [  -0.000000,    0.000000,    2.519787]
  Total dipole [Debye]:                                               6.404662
  <r^2> [a.u.]:                        [ 102.751870,   28.831151,   81.783110]
  Total <r^2> [a.u.]:                                               213.366132

  V1^2 = 0.0089, V2^2 = 0.9911

  Important amplitudes:
      occ i      occ j       vir a       vir b          v   
    ---------------------------------------------------------
     5 (A1) A   1 (B2) A    6 (A1) A    4 (B1) A      0.1794
     5 (A1) A   1 (B2) B    4 (B1) A    6 (A1) B     -0.1494
    ---------------------------------------------------------

  Density matrix analysis:
  ------------------------
  NOs
    Occupation of frontier NOs:
       0.8677   0.9423
    Number of electrons: 18.000000
    Number of unpaired electrons: n_u =  4.30160, n_u,nl =  4.07246
    NO participation ratio (PR_NO):  5.488963
  
  
  Mulliken Population Analysis
  Atom      Charge (e)              h+              e-           Del q
  --------------------------------------------------------------------
   1 C       -0.723526        0.567227       -0.900577       -0.333349
   2 C       -0.723526        0.567227       -0.900577       -0.333349
   3 H        0.136262        0.013645       -0.042403       -0.028757
   4 H        0.136262        0.013645       -0.042403       -0.028757
   5 H        0.000076        0.004125       -0.043251       -0.039126
   6 H        0.000076        0.004125       -0.043251       -0.039126
   7 H        0.174375        0.821580       -0.019114        0.802466
  --------------------------------------------------------------------
  Sum:       -1.000000        1.991575       -1.991575        0.000000
  
  Multipole moment analysis of the density matrix
    Molecular charge:                      -1.000000
    Number of electrons:                   18.000000
      Center of electronic charge [Ang]: [  0.000000,  -0.000000,  -0.074079]
    Total nuclear charge:                  17.000000
      Center of nuclear charge [Ang]:    [ -0.000000,   0.000000,   0.000000]
    Dipole moment [D]:                     6.404660
      Cartesian components [D]:          [ -0.000000,   0.000000,   6.404660]
    RMS size of the density [Ang]:         1.820406
      Cartesian components [Ang]:        [  1.264328,   0.669724,   1.125533]
  
  Exciton analysis of the difference density matrix
    <r_h> [Ang]:                  [ -0.000000,   0.000000,   1.238241]
    <r_e> [Ang]:                  [  0.000000,  -0.000000,  -0.548153]
    |<r_e - r_h>| [Ang]:            1.786394
    Hole size [Ang]:                1.985435
      Cartesian components [Ang]: [  0.772336,   0.828935,   1.630435]
    Electron size [Ang]:            3.728098
      Cartesian components [Ang]: [  2.759138,   1.555329,   1.966423]

  Transition density matrix analysis:
  -----------------------------------
  
  CT numbers (Mulliken)
    omega =     0.0087
    <Phe> =    -0.0096
  
  Exciton analysis of the transition density matrix
    Trans. dipole moment [D]:             0.000000
      Cartesian components [D]:         [  0.000000,  -0.000000,   0.000000]
    <r_h> [Ang]:                        [  0.000000,  -0.000000,   0.022308]
    <r_e> [Ang]:                        [  0.000000,  -0.000000,  -0.594189]
    |<r_e - r_h>| [Ang]:                  0.616497
    Hole size [Ang]:                      1.457614
      Cartesian components [Ang]:       [  0.950851,   0.647152,   0.895384]
    Electron size [Ang]:                  2.683912
      Cartesian components [Ang]:       [  1.839535,   1.401409,   1.362185]
    RMS electron-hole separation [Ang]:   3.093344
      Cartesian components [Ang]:       [  2.067400,   1.558358,   1.692972]
    Covariance(r_h, r_e) [Ang^2]:         0.069657
    Correlation coefficient:              0.017806
    Center-of-mass size [Ang]:            1.538452
      Cartesian components [Ang]:       [  1.037048,   0.764367,   0.840898]

  Decomposition into state-averaged NTOs
                   omega =   0.9%
  ----------------------------------------------------------------------------


  Excited state 9 (singlet, A2)                                    [converged]
  ----------------------------------------------------------------------------
  Term symbol:  9 (1) A2                                    R^2 =  5.99792e-08

  Total energy:                                            -78.4877252275 a.u.
  Excitation energy:                                               9.711967 eV

  Osc. strength:                                                      0.000000
  Trans. dip. moment [a.u.]:           [   0.000000,    0.000000,   -0.000000]
  <i|r^2|0> [a.u.]:                    [  -0.000000,    0.000000,   -0.000000]

  Dip. moment [a.u.]:                  [   0.000000,    0.000000,   -0.146505]
  Total dipole [Debye]:                                               0.372378
  <r^2> [a.u.]:                        [  99.842348,   31.833048,   76.028195]
  Total <r^2> [a.u.]:                                               207.703591

  V1^2 = 0.0289, V2^2 = 0.9711

  Important amplitudes:
      occ i      occ j       vir a       vir b          v   
    ---------------------------------------------------------
     5 (A1) A   1 (B2) B    4 (B1) A    8 (A1) B     -0.1616
     5 (A1) A   1 (B2) A    7 (A1) A    4 (B1) A      0.1472
    ---------------------------------------------------------

  Density matrix analysis:
  ------------------------
  NOs
    Occupation of frontier NOs:
       0.8800   0.9429
    Number of electrons: 18.000000
    Number of unpaired electrons: n_u =  4.27930, n_u,nl =  4.04876
    NO participation ratio (PR_NO):  5.895702
  
  
  Mulliken Population Analysis
  Atom      Charge (e)              h+              e-           Del q
  --------------------------------------------------------------------
   1 C       -0.750386        0.561494       -0.921704       -0.360210
   2 C       -0.750386        0.561494       -0.921704       -0.360210
   3 H        0.147621        0.013976       -0.031374       -0.017398
   4 H        0.147621        0.013976       -0.031374       -0.017398
   5 H        0.043220        0.006660       -0.002642        0.004018
   6 H        0.043220        0.006660       -0.002642        0.004018
   7 H        0.119089        0.810580       -0.063401        0.747180
  --------------------------------------------------------------------
  Sum:       -1.000000        1.974839       -1.974839        0.000000
  
  Multipole moment analysis of the density matrix
    Molecular charge:                      -1.000000
    Number of electrons:                   18.000000
      Center of electronic charge [Ang]: [ -0.000000,  -0.000000,   0.004307]
    Total nuclear charge:                  17.000000
      Center of nuclear charge [Ang]:    [ -0.000000,   0.000000,   0.000000]
    Dipole moment [D]:                     0.372378
      Cartesian components [D]:          [  0.000000,   0.000000,  -0.372378]
    RMS size of the density [Ang]:         1.797569
      Cartesian components [Ang]:        [  1.246299,   0.703727,   1.087549]
  
  Exciton analysis of the difference density matrix
    <r_h> [Ang]:                  [ -0.000000,  -0.000000,   1.224974]
    <r_e> [Ang]:                  [ -0.000000,  -0.000000,   0.137900]
    |<r_e - r_h>| [Ang]:            1.087074
    Hole size [Ang]:                1.984411
      Cartesian components [Ang]: [  0.768660,   0.828717,   1.631035]
    Electron size [Ang]:            3.662569
      Cartesian components [Ang]: [  2.693339,   1.690866,   1.816951]

  Transition density matrix analysis:
  -----------------------------------
  
  CT numbers (Mulliken)
    omega =     0.0280
    <Phe> =    -0.0031
  
  Exciton analysis of the transition density matrix
    Trans. dipole moment [D]:             0.000000
      Cartesian components [D]:         [  0.000000,   0.000000,  -0.000000]
    <r_h> [Ang]:                        [ -0.000000,  -0.000000,  -0.165727]
    <r_e> [Ang]:                        [  0.000000,   0.000000,  -0.428823]
    |<r_e - r_h>| [Ang]:                  0.263096
    Hole size [Ang]:                      1.311459
      Cartesian components [Ang]:       [  0.818167,   0.834474,   0.595131]
    Electron size [Ang]:                  3.554709
      Cartesian components [Ang]:       [  2.609273,   1.758816,   1.653547]
    RMS electron-hole separation [Ang]:   3.781854
      Cartesian components [Ang]:       [  2.718575,   1.941124,   1.773080]
    Covariance(r_h, r_e) [Ang^2]:         0.061340
    Correlation coefficient:              0.013158
    Center-of-mass size [Ang]:            1.902535
      Cartesian components [Ang]:       [  1.375205,   0.976166,   0.880654]

  Decomposition into state-averaged NTOs
    H- 0 -> L+ 5:  0.1069 (  2.3%)
                   omega =   2.8%
  ----------------------------------------------------------------------------


  Excited state 10 (singlet, A2)                                    [converged]
  ----------------------------------------------------------------------------
  Term symbol:  10 (1) A2                                   R^2 =  9.44261e-06

  Total energy:                                            -78.4831145520 a.u.
  Excitation energy:                                               9.837430 eV

  Osc. strength:                                                      0.000000
  Trans. dip. moment [a.u.]:           [  -0.000000,   -0.000000,   -0.000000]
  <i|r^2|0> [a.u.]:                    [  -0.000000,   -0.000000,   -0.000000]

  Dip. moment [a.u.]:                  [  -0.000000,    0.000000,   -3.611562]
  Total dipole [Debye]:                                               9.179678
  <r^2> [a.u.]:                        [  58.737851,   43.227442,   83.339363]
  Total <r^2> [a.u.]:                                               185.304656

  V1^2 = 0.8623, V2^2 = 0.1377

  Important amplitudes:
      occ i      occ j       vir a       vir b          v   
    ---------------------------------------------------------
     3 (B1) A               2 (B2) A                 -0.6382
     3 (B1) A               3 (B2) A                 -0.1126
    ---------------------------------------------------------

  Density matrix analysis:
  ------------------------
  NOs
    Occupation of frontier NOs:
       0.9616   1.0899
    Number of electrons: 18.000000
    Number of unpaired electrons: n_u =  2.61498, n_u,nl =  2.16529
    NO participation ratio (PR_NO):  3.789961
  
  
  Mulliken Population Analysis
  Atom      Charge (e)              h+              e-           Del q
  --------------------------------------------------------------------
   1 C       -0.686686        0.338404       -0.634914       -0.296510
   2 C       -0.686686        0.338404       -0.634914       -0.296510
   3 H        0.262715        0.144063       -0.046367        0.097696
   4 H        0.262715        0.144063       -0.046367        0.097696
   5 H        0.188911        0.167055       -0.017346        0.149709
   6 H        0.188911        0.167055       -0.017346        0.149709
   7 H       -0.529881        0.122647       -0.024437        0.098210
  --------------------------------------------------------------------
  Sum:       -1.000000        1.421690       -1.421690        0.000000
  
  Multipole moment analysis of the density matrix
    Molecular charge:                      -1.000000
    Number of electrons:                   18.000000
      Center of electronic charge [Ang]: [  0.000000,  -0.000000,   0.106175]
    Total nuclear charge:                  17.000000
      Center of nuclear charge [Ang]:    [ -0.000000,   0.000000,   0.000000]
    Dipole moment [D]:                     9.179675
      Cartesian components [D]:          [ -0.000000,   0.000000,  -9.179675]
    RMS size of the density [Ang]:         1.694561
      Cartesian components [Ang]:        [  0.955925,   0.820058,   1.133688]
  
  Exciton analysis of the difference density matrix
    <r_h> [Ang]:                  [  0.000000,  -0.000000,   0.150699]
    <r_e> [Ang]:                  [  0.000000,  -0.000000,  -0.069578]
    |<r_e - r_h>| [Ang]:            0.220278
    Hole size [Ang]:                1.998577
      Cartesian components [Ang]: [  1.176834,   0.726329,   1.442850]
    Electron size [Ang]:            3.271994
      Cartesian components [Ang]: [  1.595115,   2.406102,   1.540203]

  Transition density matrix analysis:
  -----------------------------------
  
  CT numbers (Mulliken)
    omega =     0.8474
    <Phe> =    -0.0008
  
  Exciton analysis of the transition density matrix
    Trans. dipole moment [D]:             0.000000
      Cartesian components [D]:         [ -0.000000,  -0.000000,  -0.000000]
    <r_h> [Ang]:                        [ -0.000000,  -0.000000,  -0.101082]
    <r_e> [Ang]:                        [  0.000000,  -0.000000,  -0.180430]
    |<r_e - r_h>| [Ang]:                  0.079348
    Hole size [Ang]:                      1.539199
      Cartesian components [Ang]:       [  1.121816,   0.430628,   0.961884]
    Electron size [Ang]:                  3.690068
      Cartesian components [Ang]:       [  1.722662,   2.822510,   1.637827]
    RMS electron-hole separation [Ang]:   3.958184
      Cartesian components [Ang]:       [  1.977271,   2.853939,   1.900698]
    Covariance(r_h, r_e) [Ang^2]:         0.162405
    Correlation coefficient:              0.028594
    Center-of-mass size [Ang]:            2.019316
      Cartesian components [Ang]:       [  1.065653,   1.428201,   0.949874]

  Decomposition into state-averaged NTOs
    H- 3 -> L+ 4:  0.6428 ( 82.6%)
    H- 0 -> L+ 5: -0.0721 (  1.0%)
                   omega =  84.7%
  ----------------------------------------------------------------------------


--------------------------------------------------------------------------------
  Time of ADC calculation:  CPU 627.82 s  wall 147.41 s
================================================================================
 
 --------------------------------------------------------------
             Orbital Energies (a.u.) and Symmetries
 --------------------------------------------------------------
 
 Alpha MOs, Restricted
 -- Occupied --                  
-11.066 -11.064  -0.872  -0.615  -0.489  -0.400  -0.343  -0.209
  1 A1    1 B1    2 A1    2 B1    3 A1    4 A1    3 B1    1 B2                 
 -0.026
  5 A1                                                                         
 -- Virtual --                   
  0.171   0.191   0.208   0.213   0.216   0.231   0.304   0.323
  4 B1    6 A1    2 B2    1 A2    7 A1    5 B1    8 A1    2 A2                 
  0.336   0.421   0.452   0.458   0.477   0.478   0.493   0.527
  6 B1    9 A1    7 B1   10 A1    3 B2    8 B1   11 A1   12 A1                 
  0.528   0.559   0.711   0.770   0.966   1.014   1.070   1.097
  9 B1    3 A2   10 B1   11 B1   13 A1   14 A1   15 A1   12 B1                 
  1.105   1.197   1.214   1.242   1.267   1.284   1.284   1.285
 16 A1   13 B1   17 A1    4 B2   18 A1    4 A2   14 B1    5 B2                 
  1.434   1.455   1.455   1.596   1.788   1.820   1.900   1.906
 15 B1    5 A2    6 B2   16 B1   19 A1   17 B1    7 B2   20 A1                 
  1.949   2.022   2.040   2.111   2.130   2.191   2.231   2.269
 18 B1   21 A1    6 A2    8 B2   19 B1    9 B2   22 A1   23 A1                 
  2.347   2.496   2.583   2.653   2.739   2.765   2.993   3.022
  7 A2   20 B1    8 A2   24 A1   21 B1   22 B1   25 A1   26 A1                 
  3.428   3.513
 23 B1   24 B1                                                                 
 
 Beta MOs, Restricted
 -- Occupied --                  
-11.066 -11.064  -0.872  -0.615  -0.489  -0.400  -0.343  -0.209
  1 A1    1 B1    2 A1    2 B1    3 A1    4 A1    3 B1    1 B2                 
 -0.026
  5 A1                                                                         
 -- Virtual --                   
  0.171   0.191   0.208   0.213   0.216   0.231   0.304   0.323
  4 B1    6 A1    2 B2    1 A2    7 A1    5 B1    8 A1    2 A2                 
  0.336   0.421   0.452   0.458   0.477   0.478   0.493   0.527
  6 B1    9 A1    7 B1   10 A1    3 B2    8 B1   11 A1   12 A1                 
  0.528   0.559   0.711   0.770   0.966   1.014   1.070   1.097
  9 B1    3 A2   10 B1   11 B1   13 A1   14 A1   15 A1   12 B1                 
  1.105   1.197   1.214   1.242   1.267   1.284   1.284   1.285
 16 A1   13 B1   17 A1    4 B2   18 A1    4 A2   14 B1    5 B2                 
  1.434   1.455   1.455   1.596   1.788   1.820   1.900   1.906
 15 B1    5 A2    6 B2   16 B1   19 A1   17 B1    7 B2   20 A1                 
  1.949   2.022   2.040   2.111   2.130   2.191   2.231   2.269
 18 B1   21 A1    6 A2    8 B2   19 B1    9 B2   22 A1   23 A1                 
  2.347   2.496   2.583   2.653   2.739   2.765   2.993   3.022
  7 A2   20 B1    8 A2   24 A1   21 B1   22 B1   25 A1   26 A1                 
  3.428   3.513
 23 B1   24 B1                                                                 
 --------------------------------------------------------------
 
          Ground-State Mulliken Net Atomic Charges

     Atom                 Charge (a.u.)
  ----------------------------------------
      1 C                    -0.364788
      2 C                    -0.364788
      3 H                     0.167518
      4 H                     0.167518
      5 H                     0.031404
      6 H                     0.031404
      7 H                    -0.668268
  ----------------------------------------
  Sum of atomic charges =    -1.000000

 -----------------------------------------------------------------
                    Cartesian Multipole Moments
 -----------------------------------------------------------------
    Charge (ESU x 10^10)
                -4.8032
    Dipole Moment (Debye)
         X       0.0000      Y       0.0000      Z     -10.9960
       Tot      10.9960
    Quadrupole Moments (Debye-Ang)
        XX     -19.3321     XY       0.0000     YY     -22.2015
        XZ       0.0000     YZ       0.0000     ZZ     -52.3886
    Octopole Moments (Debye-Ang^2)
       XXX       0.0000    XXY       0.0000    XYY       0.0000
       YYY       0.0000    XXZ      -8.6983    XYZ       0.0000
       YYZ      -9.5881    XZZ       0.0000    YZZ      -0.0000
       ZZZ    -116.0830
    Hexadecapole Moments (Debye-Ang^3)
      XXXX     -91.3654   XXXY      -0.0000   XXYY     -22.8182
      XYYY      -0.0000   YYYY     -42.5292   XXXZ      -0.0000
      XXYZ       0.0000   XYYZ       0.0000   YYYZ      -0.0000
      XXZZ     -59.2823   XYZZ      -0.0000   YYZZ     -53.6352
      XZZZ       0.0000   YZZZ       0.0000   ZZZZ    -511.3911
 -----------------------------------------------------------------
 Total job time:  230.34s(wall), 673.23s(cpu) 
 Mon Mar 28 17:19:43 2022

        *************************************************************
        *                                                           *
        *  Thank you very much for using Q-Chem.  Have a nice day.  *
        *                                                           *
        *************************************************************


