/src/tsommerfeld/qchem/exe/qcprog.exe .input0.516667.15610.qcin.1 /src/jdavis/qchem.scratch/qchem15610/

                  Welcome to Q-Chem
     A Quantum Leap Into The Future Of Chemistry


 Q-Chem 5.4 (devel), Q-Chem, Inc., Pleasanton, CA (2021)

 E. Epifanovsky,  A. T. B. Gilbert,  Xintian Feng,  Joonho Lee,  Yuezhi Mao,  
 N. Mardirossian,  P. Pokhilko,  A. White,  M. Wormit,  M. P. Coons,  
 A. L. Dempwolff,  Zhengting Gan,  D. Hait,  P. R. Horn,  L. D. Jacobson,  
 I. Kaliman,  J. Kussmann,  A. W. Lange,  Ka Un Lao,  D. S. Levine,  Jie Liu,  
 S. C. McKenzie,  A. F. Morrison,  K. Nanda,  F. Plasser,  D. R. Rehn,  
 M. L. Vidal,  Zhi-Qiang You,  Ying Zhu,  B. Alam,  B. Albrecht,  
 A. Aldossary,  E. Alguire,  J. H. Andersen,  D. Barton,  K. Begam,  A. Behn,  
 Y. A. Bernard,  E. J. Berquist,  H. Burton,  A. Carreras,  K. Carter-Fenk,  
 R. Chakraborty,  A. D. Chien,  K. D. Closser,  V. Cofer-Shabica,  
 S. Dasgupta,  Jia Deng,  M. de Wergifosse,  M. Diedenhofen,  Hainam Do,  
 S. Ehlert,  Po-Tung Fang,  S. Fatehi,  Qingguo Feng,  T. Friedhoff,  
 J. Gayvert,  Qinghui Ge,  G. Gidofalvi,  M. Goldey,  J. Gomes,  
 C. Gonzalez-Espinoza,  S. Gulania,  A. Gunina,  M. W. D. Hanson-Heine,  
 P. H. P. Harbach,  A. W. Hauser,  M. F. Herbst,  M. Hernandez Vera,  
 M. Hodecker,  Z. C. Holden,  S. Houck,  Xunkun Huang,  Kerwin Hui,  
 B. C. Huynh,  M. Ivanov,  Hyunjun Ji,  Hanjie Jiang,  B. Kaduk,  S. Kaehler,  
 K. Khistyaev,  Jaehoon Kim,  P. Klunzinger,  Z. Koczor-Benda,  
 Joong Hoon Koh,  D. Kosenkov,  L. Koulias,  T. Kowalczyk,  C. M. Krauter,  
 K. Kue,  A. Kunitsa,  T. Kus,  A. Landau,  K. V. Lawler,  D. Lefrancois,  
 S. Lehtola,  Rain Li,  Yi-Pei Li,  Jiashu Liang,  M. Liebenthal,  
 Hung-Hsuan Lin,  You-Sheng Lin,  Fenglai Liu,  Kuan-Yu Liu,  
 M. Loipersberger,  A. Luenser,  A. Manjanath,  P. Manohar,  E. Mansoor,  
 S. F. Manzer,  Shan-Ping Mao,  A. V. Marenich,  T. Markovich,  S. Mason,  
 S. A. Maurer,  P. F. McLaughlin,  M. F. S. J. Menger,  J.-M. Mewes,  
 S. A. Mewes,  P. Morgante,  J. W. Mullinax,  K. J. Oosterbaan,  G. Paran,  
 Alexander C. Paul,  Suranjan K. Paul,  F. Pavosevic,  Zheng Pei,  S. Prager,  
 E. I. Proynov,  E. Ramos,  B. Rana,  A. E. Rask,  A. Rettig,  R. M. Richard,  
 F. Rob,  E. Rossomme,  T. Scheele,  M. Scheurer,  M. Schneider,  
 N. Sergueev,  S. M. Sharada,  W. Skomorowski,  D. W. Small,  C. J. Stein,  
 Yu-Chuan Su,  E. J. Sundstrom,  Zhen Tao,  J. Thirman,  T. Tsuchimochi,  
 N. M. Tubman,  S. P. Veccham,  O. Vydrov,  J. Wenzel,  J. Witte,  A. Yamada,  
 Kun Yao,  S. Yeganeh,  S. R. Yost,  A. Zech,  Igor Ying Zhang,  Xing Zhang,  
 Yu Zhang,  D. Zuev,  A. Aspuru-Guzik,  A. T. Bell,  N. A. Besley,  
 K. B. Bravaya,  B. R. Brooks,  D. Casanova,  Jeng-Da Chai,  S. Coriani,  
 C. J. Cramer,  A. E. DePrince, III,  R. A. DiStasio Jr.,  A. Dreuw,  
 B. D. Dunietz,  T. R. Furlani,  W. A. Goddard III,  S. Grimme,  
 S. Hammes-Schiffer,  T. Head-Gordon,  W. J. Hehre,  Chao-Ping Hsu,  
 T.-C. Jagau,  Yousung Jung,  A. Klamt,  Jing Kong,  D. S. Lambrecht,  
 WanZhen Liang,  N. J. Mayhall,  C. W. McCurdy,  J. B. Neaton,  
 C. Ochsenfeld,  J. A. Parkhill,  R. Peverati,  V. A. Rassolov,  Yihan Shao,  
 L. V. Slipchenko,  T. Stauch,  R. P. Steele,  J. E. Subotnik,  
 A. J. W. Thom,  A. Tkatchenko,  D. G. Truhlar,  T. Van Voorhis,  
 T. A. Wesolowski,  K. B. Whaley,  H. L. Woodcock III,  P. M. Zimmerman,  
 S. Faraji,  P. M. W. Gill,  M. Head-Gordon,  J. M. Herbert,  A. I. Krylov

 Additional authors for Version 5.4.1: 
 S. Kotaru,  Shaozhi Li,  Xiangyuan Li,  F. Matz,  A. Molle,  Haisheng Ren,  
 Yingli Su,  Hung-Yi Tsai,  C. Utku,  Fang Wang

 Contributors to earlier versions of Q-Chem not listed above: 
 R. D. Adamson,  B. Austin,  R. Baer,  J. Baker,  G. J. O. Beran,  
 K. Brandhorst,  S. T. Brown,  E. F. C. Byrd,  A. K. Chakraborty,  
 G. K. L. Chan,  Chun-Min Chang,  Yunqing Chen,  C.-L. Cheng,  
 Siu Hung Chien,  D. M. Chipman,  D. L. Crittenden,  H. Dachsel,  
 R. J. Doerksen,  A. D. Dutoi,  R. G. Edgar,  J. Fosso-Tande,  
 L. Fusti-Molnar,  D. Ghosh,  A. Ghysels,  A. Golubeva-Zadorozhnaya,  
 J. Gonthier,  M. S. Gordon,  S. R. Gwaltney,  G. Hawkins,  J. E. Herr,  
 A. Heyden,  S. Hirata,  E. G. Hohenstein,  G. Kedziora,  F. J. Keil,  
 C. Kelley,  Jihan Kim,  R. A. King,  R. Z. Khaliullin,  P. P. Korambath,  
 W. Kurlancheek,  A. Laurent,  A. M. Lee,  M. S. Lee,  S. V. Levchenko,  
 Ching Yeh Lin,  D. Liotard,  E. Livshits,  R. C. Lochan,  I. Lotan,  
 L. A. Martinez-Martinez,  P. E. Maslen,  N. Nair,  D. P. O'Neill,  
 D. Neuhauser,  E. Neuscamman,  C. M. Oana,  R. Olivares-Amaya,  R. Olson,  
 T. M. Perrine,  B. Peters,  P. A. Pieniazek,  A. Prociuk,  Y. M. Rhee,  
 J. Ritchie,  M. A. Rohrdanz,  E. Rosta,  N. J. Russ,  H. F. Schaefer III,  
 M. W. Schmidt,  N. E. Schultz,  S. Sharma,  N. Shenvi,  C. D. Sherrill,  
 A. C. Simmonett,  A. Sodt,  T. Stein,  D. Stuck,  K. S. Thanthiriwatte,  
 V. Vanovschi,  L. Vogt,  Tao Wang,  A. Warshel,  M. A. Watson,  
 C. F. Williams,  Q. Wu,  X. Xu,  Jun Yang,  W. Zhang,  Yan Zhao

 Please cite Q-Chem as follows:
 Y. Shao et al., Mol. Phys. 113, 184-215 (2015)
 DOI: 10.1080/00268976.2014.952696

 Q-Chem 5.4.1 for Intel X86 EM64T Linux

 Parts of Q-Chem use Armadillo 9.900.5 (Nocturnal Misbehaviour).
 http://arma.sourceforge.net/

 Q-Chem begins on Mon Mar 28 16:27:34 2022  

 Host: node01
0

     Scratch files written to /src/jdavis/qchem.scratch/qchem15610//
 Processing $rem in /src/tsommerfeld/qchem/config/preferences:
 Processing $rem in /home/jdavis/.qchemrc:

 Checking the input file for inconsistencies... 	...done.

--------------------------------------------------------------
User input:
--------------------------------------------------------------
$molecule
-1 1
C        -0.6645000000    0.0000000000   -0.1764707059
C         0.6645000000    0.0000000000   -0.1764707059
H        -1.1590800000    0.0000000000    0.7858782941
H         1.1590800000    0.0000000000    0.7858782941
H        -1.1590800000    0.0000000000   -1.1388187059
H         1.1590800000    0.0000000000   -1.1388187059
H         0.0000000000    0.0000000000    2.8235292941
$end

$rem
   METHOD adc(3)
   BASIS gen
   PURECART 11
   EE_STATES [0,10,0,0]
   scf_convergence 8
   ADC_DAVIDSON_MAXITER 120
   ADC_DAVIDSON_MAXSUBSPACE 200
   adc_nguess_singles 100
   THRESH 14
   S2THRESH 14
   adc_davidson_conv 5
   adc_davidson_thresh 14
   THREADS 10
   MEM_TOTAL 95000
   STATE_ANALYSIS TRUE
$end
$basis
C 1
S   9   1.00
      6.665000D+03           6.920000D-04
      1.000000D+03           5.329000D-03
      2.280000D+02           2.707700D-02
      6.471000D+01           1.017180D-01
      2.106000D+01           2.747400D-01
      7.495000D+00           4.485640D-01
      2.797000D+00           2.850740D-01
      5.215000D-01           1.520400D-02
      1.596000D-01          -3.191000D-03
S   9   1.00
      6.665000D+03          -1.460000D-04
      1.000000D+03          -1.154000D-03
      2.280000D+02          -5.725000D-03
      6.471000D+01          -2.331200D-02
      2.106000D+01          -6.395500D-02
      7.495000D+00          -1.499810D-01
      2.797000D+00          -1.272620D-01
      5.215000D-01           5.445290D-01
      1.596000D-01           5.804960D-01
S   1   1.00
      1.596000D-01           1.000000D+00
S   1   1.00
      0.0469000              1.0000000
P   4   1.00
      9.439000D+00           3.810900D-02
      2.002000D+00           2.094800D-01
      5.456000D-01           5.085570D-01
      1.517000D-01           4.688420D-01
P   1   1.00
      1.517000D-01           1.000000D+00
P   1   1.00
      0.0522522      1.0000000
P   1   1.00
      0.0261261      1.0000000
D   1   1.00
      5.500000D-01           1.0000000
****
C 2
S   9   1.00
      6.665000D+03           6.920000D-04
      1.000000D+03           5.329000D-03
      2.280000D+02           2.707700D-02
      6.471000D+01           1.017180D-01
      2.106000D+01           2.747400D-01
      7.495000D+00           4.485640D-01
      2.797000D+00           2.850740D-01
      5.215000D-01           1.520400D-02
      1.596000D-01          -3.191000D-03
S   9   1.00
      6.665000D+03          -1.460000D-04
      1.000000D+03          -1.154000D-03
      2.280000D+02          -5.725000D-03
      6.471000D+01          -2.331200D-02
      2.106000D+01          -6.395500D-02
      7.495000D+00          -1.499810D-01
      2.797000D+00          -1.272620D-01
      5.215000D-01           5.445290D-01
      1.596000D-01           5.804960D-01
S   1   1.00
      1.596000D-01           1.000000D+00
S   1   1.00
      0.0469000              1.0000000
P   4   1.00
      9.439000D+00           3.810900D-02
      2.002000D+00           2.094800D-01
      5.456000D-01           5.085570D-01
      1.517000D-01           4.688420D-01
P   1   1.00
      1.517000D-01           1.000000D+00
P   1   1.00
      0.0522522      1.0000000
P   1   1.00
      0.0261261      1.0000000
D   1   1.00
      5.500000D-01           1.0000000
****
H 3
cc-pVDZ
****
H 4
cc-pVDZ
****
H 5
cc-pVDZ
****
H 6
cc-pVDZ
****
H 7
aug-cc-pVDZ
****
$end
--------------------------------------------------------------
 ----------------------------------------------------------------
             Standard Nuclear Orientation (Angstroms)
    I     Atom           X                Y                Z
 ----------------------------------------------------------------
    1      C      -0.6645000000    -0.0000000000    -0.1764707059
    2      C       0.6645000000     0.0000000000    -0.1764707059
    3      H      -1.1590800000    -0.0000000000     0.7858782941
    4      H       1.1590800000     0.0000000000     0.7858782941
    5      H      -1.1590800000    -0.0000000000    -1.1388187059
    6      H       1.1590800000     0.0000000000    -1.1388187059
    7      H       0.0000000000     0.0000000000     2.8235292941
 ----------------------------------------------------------------
 Molecular Point Group                 C2v   NOp =  4
 Largest Abelian Subgroup              C2v   NOp =  4
 Nuclear Repulsion Energy =          36.36366470 hartrees
 There are        9 alpha and        9 beta electrons
 Requested basis set is non-standard
 There are 33 shells and 67 basis functions
 Total memory of 95000 MB is distributed as follows: 
   MEM_STATIC is set to 192 MB
   QALLOC/CCMAN JOB total memory use is  94808 MB
 Warning: actual memory use might exceed 95000 MB

 Total QAlloc Memory Limit  95000 MB
 Mega-Array Size       188 MB
 MEM_STATIC part       192 MB

                       Distance Matrix (Angstroms)
             C (  1)   C (  2)   H (  3)   H (  4)   H (  5)   H (  6)
   C (  2)  1.329000
   H (  3)  1.082000  2.061931
   H (  4)  2.061931  1.082000  2.318160
   H (  5)  1.082000  2.061931  1.924697  3.013026
   H (  6)  2.061931  1.082000  3.013026  1.924697  2.318160
   H (  7)  3.072712  3.072712  2.344246  2.344246  4.128398  4.128398

 
 A cutoff of  1.0D-14 yielded    561 shell pairs
 There are      2337 function pairs (      2484 Cartesian)
 Smallest overlap matrix eigenvalue = 1.79E-04

 Scale SEOQF with 1.000000e-01/1.000000e-01/1.000000e-01

 Standard Electronic Orientation quadrupole field applied
 Nucleus-field energy     =    -0.0000000009 hartrees
 ================ Generating on-the-fly SAD Guess ================
Attempting to make child job directory: /src/jdavis/qchem.scratch/qchem15610//Frg1/
Attempting to make child job directory: /src/jdavis/qchem.scratch/qchem15610//Frg2/
Creating input file /src/jdavis/qchem.scratch/qchem15610/Frg1.input
using default PutDataFrgm: nothing
calling putenv with: QCSCRATCH=/src/jdavis/qchem.scratch/qchem15610/ 
Spawning Job For Fragment 0
Done Job For Fragment 0
calling putenv with: QCSCRATCH=/src/jdavis/qchem.scratch 
calling putenv with: QCTHREADS=1 
Creating input file /src/jdavis/qchem.scratch/qchem15610/Frg2.input
using default PutDataFrgm: nothing
calling putenv with: QCSCRATCH=/src/jdavis/qchem.scratch/qchem15610/ 
Spawning Job For Fragment 1
Done Job For Fragment 1
calling putenv with: QCSCRATCH=/src/jdavis/qchem.scratch 
calling putenv with: QCTHREADS=1 
 Time for running child jobs:  CPU 1.81 s  wall 54.48 s
 ============= Method Specific SAD Guess Constructed =============
 Guess from on-the-fly superposition of atomic densities
 Warning: Energy on first SCF cycle will be non-variational
 A restricted Hartree-Fock SCF calculation will be
 performed using Pulay DIIS extrapolation
 SCF converges when DIIS error is below 1.0E-08
 using 10 threads for integral computing
 -------------------------------------------------------
 OpenMP Integral computing Module                
 Release: version 1.0, May 2013, Q-Chem Inc. Pittsburgh 
 -------------------------------------------------------
 ---------------------------------------
  Cycle       Energy         DIIS Error
 ---------------------------------------
    1     -78.8140310139      7.37E-02
    2     -78.4601999603      6.97E-03
    3     -78.5098710918      1.75E-03
    4     -78.5125533995      5.52E-04
    5     -78.5128727828      1.22E-04
    6     -78.5128987918      2.88E-05
    7     -78.5129010946      7.74E-06
    8     -78.5129013138      1.16E-06
    9     -78.5129013198      2.73E-07
   10     -78.5129013203      5.79E-08
   11     -78.5129013203      1.23E-08
   12     -78.5129013203      1.79E-09 Convergence criterion met
 ---------------------------------------
 SCF time:  CPU 10.52 s  wall 1.06 s
 SCF   energy in the final basis set = -78.51290132
 Total energy in the final basis set = -78.51290132
================================================================================
|                                                                              |
|                                 A D C  M A N                                 |
|                                                                              |
 ------------------------------------------------------------------------------ 
|                                                                              |
| Components:                                                                  |
|                                                                              |
| - libvmm - 1.3-trunk                                                         |
|   Authors:                                                                   |
|   Evgeny Epifanovsky, Ilya Kaliman                                           |
|                                                                              |
| - libtensor - 2.5-trunk                                                      |
|   Authors:                                                                   |
|   Evgeny Epifanovsky, Michael Wormit, Dmitry Zuev, Sam Manzer,               |
|   Ilya Kaliman                                                               |
|                                                                              |
| - libwfa - 1.1-trunk                                                         |
|   Authors:                                                                   |
|   Felix Plasser, Stefanie Mewes (Baeppler), Benjamin Thomitzni,              |
|   Michael Wormit, Feng Chen, Anna I. Krylov, Pavel Pokhilko                  |
|                                                                              |
| - libadc - 1.1-trunk                                                         |
|   Authors:                                                                   |
|   Michael Wormit, Adrian L. Dempwolff, Philipp H. P. Harbach,                |
|   Caroline Krauter, Dirk Rehn, Matthias Schneider, Jan Wenzel                |
|                                                                              |
| - adcman - 2.6-trunk                                                         |
|   Authors:                                                                   |
|   Michael Wormit, Adrian L. Dempwolff, Philipp H. P. Harbach,                |
|   Caroline Krauter, Daniel Lefrancois, Jan-Michael Mewes, Dirk Rehn,         |
|   Matthias Schneider, Jan Wenzel, Andreas Dreuw                              |
|                                                                              |
| Authors of earlier versions of ADCMAN:                                       |
| Andreas Dreuw, Jan Hendrik Starcke, Dirk Rehn, Michael Wormit                |
|                                                                              |
================================================================================

 
 Alpha MOs, Restricted
 -- Occupied --                  
-11.070 -11.068  -0.876  -0.619  -0.493  -0.404  -0.347  -0.213
  1 A1    1 B1    2 A1    2 B1    3 A1    4 A1    3 B1    1 B2                 
 -0.033
  5 A1                                                                         
 -- Virtual --                   
  0.147   0.170   0.172   0.176   0.179   0.189   0.269   0.290
  4 B1    2 B2    6 A1    1 A2    7 A1    5 B1    8 A1    2 A2                 
  0.321   0.346   0.352   0.377   0.379   0.388   0.460   0.476
  6 B1    7 B1    9 A1    8 B1    3 B2   10 A1    3 A2   11 A1                 
  0.503   0.508   0.672   0.717   0.895   0.996   1.031   1.034
 12 A1    9 B1   10 B1   11 B1   13 A1   14 A1   15 A1   16 A1                 
  1.087   1.103   1.122   1.150   1.165   1.231   1.244   1.280
 12 B1    4 B2   17 A1    4 A2   13 B1   14 B1   18 A1    5 B2                 
  1.448   1.451   1.457   1.519   1.776   1.780   1.882   1.886
  6 B2    5 A2   15 B1   16 B1   19 A1   17 B1   20 A1    7 B2                 
  1.936   1.983   2.023   2.091   2.104   2.180   2.187   2.242
 18 B1   21 A1    6 A2   19 B1    8 B2   22 A1    9 B2   23 A1                 
  2.337   2.486   2.579   2.627   2.729   2.753   2.964   2.994
  7 A2   20 B1    8 A2   24 A1   21 B1   22 B1   25 A1   26 A1                 
  3.407   3.509
 23 B1   24 B1                                                                 
 
 Beta MOs, Restricted
 -- Occupied --                  
-11.070 -11.068  -0.876  -0.619  -0.493  -0.404  -0.347  -0.213
  1 A1    1 B1    2 A1    2 B1    3 A1    4 A1    3 B1    1 B2                 
 -0.033
  5 A1                                                                         
 -- Virtual --                   
  0.147   0.170   0.172   0.176   0.179   0.189   0.269   0.290
  4 B1    2 B2    6 A1    1 A2    7 A1    5 B1    8 A1    2 A2                 
  0.321   0.346   0.352   0.377   0.379   0.388   0.460   0.476
  6 B1    7 B1    9 A1    8 B1    3 B2   10 A1    3 A2   11 A1                 
  0.503   0.508   0.672   0.717   0.895   0.996   1.031   1.034
 12 A1    9 B1   10 B1   11 B1   13 A1   14 A1   15 A1   16 A1                 
  1.087   1.103   1.122   1.150   1.165   1.231   1.244   1.280
 12 B1    4 B2   17 A1    4 A2   13 B1   14 B1   18 A1    5 B2                 
  1.448   1.451   1.457   1.519   1.776   1.780   1.882   1.886
  6 B2    5 A2   15 B1   16 B1   19 A1   17 B1   20 A1    7 B2                 
  1.936   1.983   2.023   2.091   2.104   2.180   2.187   2.242
 18 B1   21 A1    6 A2   19 B1    8 B2   22 A1    9 B2   23 A1                 
  2.337   2.486   2.579   2.627   2.729   2.753   2.964   2.994
  7 A2   20 B1    8 A2   24 A1   21 B1   22 B1   25 A1   26 A1                 
  3.407   3.509
 23 B1   24 B1                                                                 

--------------------------------------------------------------------------------
                                   HF Summary                                   
--------------------------------------------------------------------------------
  Energy:                                                  -78.5129013203 a.u.
  Dip. moment [a.u.]:                  [   0.000000,    0.000000,   -4.260036]
  Total dipole [Debye]:                                              10.827934
  <r^2> [a.u.]:                        [  53.251840,   17.155184,   84.287955]
  Total <r^2> [a.u.]:                                               154.694979
--------------------------------------------------------------------------------

--------------------------------------------------------------------------------
                                 MP(2) Summary                                  
--------------------------------------------------------------------------------
  MP energy contribution:                                   -0.3056556514 a.u.
  Total energy:                                            -78.8185569717 a.u.
  Dip. moment [a.u.]:                  [   0.000000,    0.000000,   -4.085027]
  Total dipole [Debye]:                                              10.383104
  <r^2> [a.u.]:                        [  53.838563,   17.366053,   84.191238]
  Total <r^2> [a.u.]:                                               155.395853

  Density matrix analysis:
  ------------------------
  NOs
    Occupation of frontier NOs:
       0.0449   1.9361
    Number of electrons: 18.000000
    Number of unpaired electrons: n_u =  0.46903, n_u,nl =  0.05171
    NO participation ratio (PR_NO): 16.333777
  
  
  Mulliken Population Analysis
  Atom      Charge (e)              h+              e-           Del q
  --------------------------------------------------------------------
   1 C       -0.372732        0.089332       -0.119829       -0.030497
   2 C       -0.372732        0.089332       -0.119829       -0.030497
   3 H        0.138148        0.015152       -0.017643       -0.002491
   4 H        0.138148        0.015152       -0.017643       -0.002491
   5 H        0.028302        0.019208       -0.011587        0.007621
   6 H        0.028302        0.019208       -0.011587        0.007621
   7 H       -0.587436        0.064059       -0.013325        0.050734
  --------------------------------------------------------------------
  Sum:       -1.000000        0.311444       -0.311444       -0.000000
  
  Multipole moment analysis of the density matrix
    Molecular charge:                      -1.000000
    Number of electrons:                   18.000000
      Center of electronic charge [Ang]: [  0.000000,  -0.000000,   0.120095]
    Total nuclear charge:                  17.000000
      Center of nuclear charge [Ang]:    [ -0.000000,   0.000000,   0.000000]
    Dipole moment [D]:                     10.383101
      Cartesian components [D]:          [ -0.000000,   0.000000, -10.383101]
    RMS size of the density [Ang]:         1.550191
      Cartesian components [Ang]:        [  0.915191,   0.519775,   1.138135]
  
  Exciton analysis of the difference density matrix
    <r_h> [Ang]:                  [  0.000000,  -0.000000,   0.327667]
    <r_e> [Ang]:                  [  0.000000,  -0.000000,   0.030307]
    |<r_e - r_h>| [Ang]:            0.297360
    Hole size [Ang]:                1.921886
      Cartesian components [Ang]: [  0.977880,   0.786240,   1.455755]
    Electron size [Ang]:            2.104821
      Cartesian components [Ang]: [  1.218109,   0.898761,   1.462433]
--------------------------------------------------------------------------------

--------------------------------------------------------------------------------
                                 MP(3) Summary                                  
--------------------------------------------------------------------------------
  MP energy contribution:                                   -0.0285883319 a.u.
  Total energy:                                            -78.8471453036 a.u.
--------------------------------------------------------------------------------
Less singles guess vectors found than requested: 85 (found), 100 (requested).
Adjusting number of doubles guess vectors to 15.
  Starting Davidson for singlet states of irrep A2 ... 
--------------------------------------------------------------------------------
   It NVec Conv  Avg. Norm  Max. Norm  Conv. states           Remark
--------------------------------------------------------------------------------
       100    0  7.167e-02  3.374e-01  0.1134 n n n n n n n n Guess.
    1  110    0  3.014e-02  1.437e-01  0.0777 n n n n n n n n 
    2  120    0  1.619e-02  8.596e-02  0.0751 n n n n n n n n 
    3  130    0  1.638e-02  1.437e-01  0.0749 n n n n n n n n 
    4  140    0  5.880e-03  4.246e-02  0.0749 n n n n n n n n 
    5  150    0  3.332e-03  2.810e-02  0.0749 n n n n n n n n 
    6  160    0  3.664e-03  3.526e-02  0.0749 n n n n n n n n 
    7  170    1  3.274e-03  3.215e-02  0.0749 y n n n n n n n 
    8  180    2  1.670e-03  1.442e-02  0.0749 y y n n n n n n 
    9  190    4  1.695e-03  1.578e-02  0.0749 y y y n y n n n 
   10  200    4  6.338e-04  5.812e-03  0.0749 y y y n y n n n 
   11   20    6  2.220e-04  1.996e-03  0.0749 y y y y y y n n Subspace collapsed.
   12   30    6  1.669e-04  1.568e-03  0.0749 y y y y y y n n 
   13   40    7  1.136e-04  1.101e-03  0.0749 y y y y y y n y 
   14   50    8  6.504e-05  6.278e-04  0.0749 y y y y y y y y 
   15   60    8  3.637e-05  3.531e-04  0.0749 y y y y y y y y 
   16   70    8  2.180e-05  2.102e-04  0.0749 y y y y y y y y 
   17   80    8  1.047e-05  9.910e-05  0.0749 y y y y y y y y 
   18   90    8  7.655e-06  7.151e-05  0.0749 y y y y y y y y 
   19  100    8  6.735e-06  6.471e-05  0.0749 y y y y y y y y 
   20  110    8  9.493e-06  9.352e-05  0.0749 y y y y y y y y 
   21  120    8  1.220e-05  1.215e-04  0.0749 y y y y y y y y 
   22  130    9  1.003e-05  1.001e-04  0.0749 y y y y y y y y 
   23  139    9  4.727e-06  4.717e-05  0.0749 y y y y y y y y 
   24  148    9  1.911e-06  1.907e-05  0.0749 y y y y y y y y 
   25  156   10  7.553e-07  7.538e-06  0.0749 y y y y y y y y Converged.
--------------------------------------------------------------------------------
  Davidson Summary: 
 ------------------------------------------------------------
  State  0: excitation energy =   0.0749 a.u.   (converged)
  State  1: excitation energy =   0.1241 a.u.   (converged)
  State  2: excitation energy =   0.2319 a.u.   (converged)
  State  3: excitation energy =   0.2330 a.u.   (converged)
  State  4: excitation energy =   0.2822 a.u.   (converged)
  State  5: excitation energy =   0.2950 a.u.   (converged)
  State  6: excitation energy =   0.3294 a.u.   (converged)
  State  7: excitation energy =   0.3378 a.u.   (converged)
  State  8: excitation energy =   0.3442 a.u.   (converged)
  State  9: excitation energy =   0.3475 a.u.   (converged)
 ------------------------------------------------------------


--------------------------------------------------------------------------------
                   State-averaged natural transition orbitals
--------------------------------------------------------------------------------
--------------------------------------------------------------------------------

--------------------------------------------------------------------------------
                             Excited State Summary
--------------------------------------------------------------------------------
--------------------------------------------------------------------------------

  Excited state 1 (singlet, A2)                                    [converged]
  ----------------------------------------------------------------------------
  Term symbol:  1 (1) A2                                    R^2 =  4.97467e-15

  Total energy:                                            -78.7722122500 a.u.
  Excitation energy:                                               2.039032 eV

  Osc. strength:                                                      0.000000
  Trans. dip. moment [a.u.]:           [  -0.000000,   -0.000000,   -0.000000]
  <i|r^2|0> [a.u.]:                    [  -0.000000,   -0.000000,   -0.000000]

  Dip. moment [a.u.]:                  [   0.000000,    0.000000,    0.460041]
  Total dipole [Debye]:                                               1.169307
  <r^2> [a.u.]:                        [  78.749139,   41.891742,   63.821525]
  Total <r^2> [a.u.]:                                               184.462405

  V1^2 = 0.8789, V2^2 = 0.1211

  Important amplitudes:
      occ i      occ j       vir a       vir b          v   
    ---------------------------------------------------------
     5 (A1) A               1 (A2) A                  0.6259
     5 (A1) A               2 (A2) A                 -0.2162
    ---------------------------------------------------------

  Density matrix analysis:
  ------------------------
  NOs
    Occupation of frontier NOs:
       0.9858   0.9927
    Number of electrons: 18.000000
    Number of unpaired electrons: n_u =  2.42810, n_u,nl =  2.05062
    NO participation ratio (PR_NO):  2.991604
  
  
  Mulliken Population Analysis
  Atom      Charge (e)              h+              e-           Del q
  --------------------------------------------------------------------
   1 C       -0.655555        0.263604       -0.546427       -0.282823
   2 C       -0.655555        0.263604       -0.546427       -0.282823
   3 H        0.081041        0.027900       -0.085007       -0.057107
   4 H        0.081041        0.027900       -0.085007       -0.057107
   5 H        0.065299        0.038222       -0.001226        0.036997
   6 H        0.065299        0.038222       -0.001226        0.036997
   7 H        0.018431        0.703168       -0.097301        0.605867
  --------------------------------------------------------------------
  Sum:       -1.000000        1.362620       -1.362620        0.000000
  
  Multipole moment analysis of the density matrix
    Molecular charge:                      -1.000000
    Number of electrons:                   18.000000
      Center of electronic charge [Ang]: [ -0.000000,  -0.000000,  -0.013525]
    Total nuclear charge:                  17.000000
      Center of nuclear charge [Ang]:    [ -0.000000,   0.000000,   0.000000]
    Dipole moment [D]:                     1.169306
      Cartesian components [D]:          [  0.000000,   0.000000,   1.169306]
    RMS size of the density [Ang]:         1.693967
      Cartesian components [Ang]:        [  1.106847,   0.807289,   0.996342]
  
  Exciton analysis of the difference density matrix
    <r_h> [Ang]:                  [ -0.000000,   0.000000,   1.923049]
    <r_e> [Ang]:                  [ -0.000000,  -0.000000,   0.157960]
    |<r_e - r_h>| [Ang]:            1.765089
    Hole size [Ang]:                2.479522
      Cartesian components [Ang]: [  1.157772,   1.063406,   1.917488]
    Electron size [Ang]:            3.974241
      Cartesian components [Ang]: [  2.541602,   2.484159,   1.778708]

  Transition density matrix analysis:
  -----------------------------------
  
  CT numbers (Mulliken)
    omega =     0.8656
    <Phe> =     0.0010
  
  Exciton analysis of the transition density matrix
    Trans. dipole moment [D]:             0.000000
      Cartesian components [D]:         [ -0.000000,  -0.000000,  -0.000000]
    <r_h> [Ang]:                        [ -0.000000,   0.000000,   2.577562]
    <r_e> [Ang]:                        [ -0.000000,  -0.000000,  -0.176112]
    |<r_e - r_h>| [Ang]:                  2.753675
    Hole size [Ang]:                      1.834452
      Cartesian components [Ang]:       [  0.910417,   0.885121,   1.323978]
    Electron size [Ang]:                  4.356427
      Cartesian components [Ang]:       [  2.875361,   2.833745,   1.637266]
    RMS electron-hole separation [Ang]:   5.469191
      Cartesian components [Ang]:       [  3.014122,   2.968327,   3.466433]
    Covariance(r_h, r_e) [Ang^2]:         0.007170
    Correlation coefficient:              0.000897
    Center-of-mass size [Ang]:            2.364213
      Cartesian components [Ang]:       [  1.508989,   1.484599,   1.052816]

  Decomposition into state-averaged NTOs
    H- 0 -> L+ 3: -0.4667 ( 43.6%)
    H- 0 -> L+ 0: -0.4329 ( 37.5%)
    H- 0 -> L+ 4: -0.1654 (  5.5%)
                   omega =  86.6%
  ----------------------------------------------------------------------------


  Excited state 2 (singlet, A2)                                    [converged]
  ----------------------------------------------------------------------------
  Term symbol:  2 (1) A2                                    R^2 =  4.03185e-15

  Total energy:                                            -78.7230880464 a.u.
  Excitation energy:                                               3.375770 eV

  Osc. strength:                                                      0.000000
  Trans. dip. moment [a.u.]:           [   0.000000,    0.000000,    0.000000]
  <i|r^2|0> [a.u.]:                    [   0.000000,    0.000000,   -0.000000]

  Dip. moment [a.u.]:                  [   0.000000,    0.000000,    0.439343]
  Total dipole [Debye]:                                               1.116697
  <r^2> [a.u.]:                        [  66.852788,   29.971260,   60.791863]
  Total <r^2> [a.u.]:                                               157.615911

  V1^2 = 0.8506, V2^2 = 0.1494

  Important amplitudes:
      occ i      occ j       vir a       vir b          v   
    ---------------------------------------------------------
     5 (A1) A               2 (A2) A                 -0.5932
     5 (A1) A               1 (A2) A                 -0.2235
    ---------------------------------------------------------

  Density matrix analysis:
  ------------------------
  NOs
    Occupation of frontier NOs:
       0.9821   0.9848
    Number of electrons: 18.000000
    Number of unpaired electrons: n_u =  2.45213, n_u,nl =  2.05565
    NO participation ratio (PR_NO):  3.084738
  
  
  Mulliken Population Analysis
  Atom      Charge (e)              h+              e-           Del q
  --------------------------------------------------------------------
   1 C       -0.577653        0.358189       -0.563110       -0.204921
   2 C       -0.577653        0.358189       -0.563110       -0.204921
   3 H        0.037692        0.031465       -0.131921       -0.100456
   4 H        0.037692        0.031465       -0.131921       -0.100456
   5 H        0.026418        0.012805       -0.014688       -0.001884
   6 H        0.026418        0.012805       -0.014688       -0.001884
   7 H        0.027087        0.697096       -0.082573        0.614522
  --------------------------------------------------------------------
  Sum:       -1.000000        1.502012       -1.502012        0.000000
  
  Multipole moment analysis of the density matrix
    Molecular charge:                      -1.000000
    Number of electrons:                   18.000000
      Center of electronic charge [Ang]: [ -0.000000,  -0.000000,  -0.012916]
    Total nuclear charge:                  17.000000
      Center of nuclear charge [Ang]:    [ -0.000000,   0.000000,   0.000000]
    Dipole moment [D]:                     1.116697
      Cartesian components [D]:          [  0.000000,   0.000000,   1.116697]
    RMS size of the density [Ang]:         1.565850
      Cartesian components [Ang]:        [  1.019823,   0.682838,   0.972410]
  
  Exciton analysis of the difference density matrix
    <r_h> [Ang]:                  [  0.000000,  -0.000000,   1.744016]
    <r_e> [Ang]:                  [ -0.000000,  -0.000000,   0.150026]
    |<r_e - r_h>| [Ang]:            1.593991
    Hole size [Ang]:                2.436454
      Cartesian components [Ang]: [  1.132971,   1.060807,   1.878131]
    Electron size [Ang]:            3.060930
      Cartesian components [Ang]: [  1.926120,   1.864234,   1.477831]

  Transition density matrix analysis:
  -----------------------------------
  
  CT numbers (Mulliken)
    omega =     0.8296
    <Phe> =    -0.0005
  
  Exciton analysis of the transition density matrix
    Trans. dipole moment [D]:             0.000000
      Cartesian components [D]:         [  0.000000,   0.000000,   0.000000]
    <r_h> [Ang]:                        [ -0.000000,   0.000000,   2.565132]
    <r_e> [Ang]:                        [ -0.000000,  -0.000000,  -0.175010]
    |<r_e - r_h>| [Ang]:                  2.740142
    Hole size [Ang]:                      1.838453
      Cartesian components [Ang]:       [  0.908302,   0.881495,   1.333366]
    Electron size [Ang]:                  3.263819
      Cartesian components [Ang]:       [  2.170921,   2.107253,   1.224377]
    RMS electron-hole separation [Ang]:   4.638763
      Cartesian components [Ang]:       [  2.349181,   2.283648,   3.283964]
    Covariance(r_h, r_e) [Ang^2]:         0.011340
    Correlation coefficient:              0.001890
    Center-of-mass size [Ang]:            1.874507
      Cartesian components [Ang]:       [  1.178682,   1.142372,   0.905246]

  Decomposition into state-averaged NTOs
    H- 0 -> L+ 0: -0.4656 ( 43.3%)
    H- 0 -> L+ 3:  0.4439 ( 39.4%)
                   omega =  83.0%
  ----------------------------------------------------------------------------


  Excited state 3 (singlet, A2)                                    [converged]
  ----------------------------------------------------------------------------
  Term symbol:  3 (1) A2                                    R^2 =  5.55268e-14

  Total energy:                                            -78.6152886910 a.u.
  Excitation energy:                                               6.309139 eV

  Osc. strength:                                                      0.000000
  Trans. dip. moment [a.u.]:           [  -0.000000,    0.000000,    0.000000]
  <i|r^2|0> [a.u.]:                    [  -0.000000,   -0.000000,   -0.000000]

  Dip. moment [a.u.]:                  [  -0.000000,   -0.000000,   -1.616618]
  Total dipole [Debye]:                                               4.109034
  <r^2> [a.u.]:                        [  90.228958,   25.811971,   94.760090]
  Total <r^2> [a.u.]:                                               210.801018

  V1^2 = 0.9143, V2^2 = 0.0857

  Important amplitudes:
      occ i      occ j       vir a       vir b          v   
    ---------------------------------------------------------
     1 (B2) A               4 (B1) A                  0.6487
     1 (B2) A               6 (B1) A                  0.1372
    ---------------------------------------------------------

  Density matrix analysis:
  ------------------------
  NOs
    Occupation of frontier NOs:
       0.9791   0.9798
    Number of electrons: 18.000000
    Number of unpaired electrons: n_u =  2.39631, n_u,nl =  2.03870
    NO participation ratio (PR_NO):  2.976863
  
  
  Mulliken Population Analysis
  Atom      Charge (e)              h+              e-           Del q
  --------------------------------------------------------------------
   1 C       -0.510951        0.544637       -0.682857       -0.138219
   2 C       -0.510951        0.544637       -0.682857       -0.138219
   3 H        0.186512        0.072544       -0.024179        0.048365
   4 H        0.186512        0.072544       -0.024179        0.048365
   5 H        0.101566        0.120581       -0.047317        0.073264
   6 H        0.101566        0.120581       -0.047317        0.073264
   7 H       -0.554253        0.092354       -0.059172        0.033182
  --------------------------------------------------------------------
  Sum:       -1.000000        1.567878       -1.567878       -0.000000
  
  Multipole moment analysis of the density matrix
    Molecular charge:                      -1.000000
    Number of electrons:                   18.000000
      Center of electronic charge [Ang]: [  0.000000,   0.000000,   0.047527]
    Total nuclear charge:                  17.000000
      Center of nuclear charge [Ang]:    [ -0.000000,   0.000000,   0.000000]
    Dipole moment [D]:                     4.109033
      Cartesian components [D]:          [ -0.000000,  -0.000000,  -4.109033]
    RMS size of the density [Ang]:         1.810304
      Cartesian components [Ang]:        [  1.184780,   0.633688,   1.213234]
  
  Exciton analysis of the difference density matrix
    <r_h> [Ang]:                  [ -0.000000,  -0.000000,  -0.001718]
    <r_e> [Ang]:                  [  0.000000,   0.000000,  -0.834834]
    |<r_e - r_h>| [Ang]:            0.833117
    Hole size [Ang]:                2.057743
      Cartesian components [Ang]: [  1.140774,   0.969719,   1.411589]
    Electron size [Ang]:            3.665094
      Cartesian components [Ang]: [  2.792994,   1.564873,   1.784173]

  Transition density matrix analysis:
  -----------------------------------
  
  CT numbers (Mulliken)
    omega =     0.8847
    <Phe> =    -0.0019
  
  Exciton analysis of the transition density matrix
    Trans. dipole moment [D]:             0.000000
      Cartesian components [D]:         [ -0.000000,   0.000000,   0.000000]
    <r_h> [Ang]:                        [ -0.000000,  -0.000000,  -0.181980]
    <r_e> [Ang]:                        [  0.000000,   0.000000,  -1.453697]
    |<r_e - r_h>| [Ang]:                  1.271716
    Hole size [Ang]:                      1.279891
      Cartesian components [Ang]:       [  0.763815,   0.881906,   0.526260]
    Electron size [Ang]:                  4.215684
      Cartesian components [Ang]:       [  3.404147,   1.848663,   1.663196]
    RMS electron-hole separation [Ang]:   4.575775
      Cartesian components [Ang]:       [  3.480066,   2.042679,   2.157387]
    Covariance(r_h, r_e) [Ang^2]:         0.044831
    Correlation coefficient:              0.008309
    Center-of-mass size [Ang]:            2.207928
      Cartesian components [Ang]:       [  1.748743,   1.026899,   0.873110]

  Decomposition into state-averaged NTOs
    H- 1 -> L+ 1: -0.6637 ( 88.1%)
                   omega =  88.5%
  ----------------------------------------------------------------------------


  Excited state 4 (singlet, A2)                                    [converged]
  ----------------------------------------------------------------------------
  Term symbol:  4 (1) A2                                    R^2 =  7.10383e-13

  Total energy:                                            -78.6141852546 a.u.
  Excitation energy:                                               6.339165 eV

  Osc. strength:                                                      0.000000
  Trans. dip. moment [a.u.]:           [  -0.000000,   -0.000000,    0.000000]
  <i|r^2|0> [a.u.]:                    [  -0.000000,   -0.000000,   -0.000000]

  Dip. moment [a.u.]:                  [  -0.000000,    0.000000,    1.175272]
  Total dipole [Debye]:                                               2.987243
  <r^2> [a.u.]:                        [  68.370644,   56.299646,   68.573903]
  Total <r^2> [a.u.]:                                               193.244193

  V1^2 = 0.0415, V2^2 = 0.9585

  Important amplitudes:
      occ i      occ j       vir a       vir b          v   
    ---------------------------------------------------------
     5 (A1) A   1 (B2) B    2 (A2) A    2 (B2) B      0.2367
     5 (A1) A   1 (B2) B    3 (A2) A    2 (B2) B      0.1328
    ---------------------------------------------------------

  Density matrix analysis:
  ------------------------
  NOs
    Occupation of frontier NOs:
       0.9786   0.9909
    Number of electrons: 18.000000
    Number of unpaired electrons: n_u =  4.21710, n_u,nl =  4.00572
    NO participation ratio (PR_NO):  4.863572
  
  
  Mulliken Population Analysis
  Atom      Charge (e)              h+              e-           Del q
  --------------------------------------------------------------------
   1 C       -0.776344        0.563132       -0.966744       -0.403612
   2 C       -0.776344        0.563132       -0.966744       -0.403612
   3 H        0.143258        0.015061       -0.009950        0.005111
   4 H        0.143258        0.015061       -0.009950        0.005111
   5 H        0.026712        0.003597       -0.005187       -0.001590
   6 H        0.026712        0.003597       -0.005187       -0.001590
   7 H        0.212747        0.802029       -0.001846        0.800182
  --------------------------------------------------------------------
  Sum:       -1.000000        1.965607       -1.965607        0.000000
  
  Multipole moment analysis of the density matrix
    Molecular charge:                      -1.000000
    Number of electrons:                   18.000000
      Center of electronic charge [Ang]: [  0.000000,  -0.000000,  -0.034552]
    Total nuclear charge:                  17.000000
      Center of nuclear charge [Ang]:    [ -0.000000,   0.000000,   0.000000]
    Dipole moment [D]:                     2.987242
      Cartesian components [D]:          [ -0.000000,   0.000000,   2.987242]
    RMS size of the density [Ang]:         1.733532
      Cartesian components [Ang]:        [  1.031335,   0.935875,   1.032289]
  
  Exciton analysis of the difference density matrix
    <r_h> [Ang]:                  [  0.000000,  -0.000000,   1.244587]
    <r_e> [Ang]:                  [  0.000000,  -0.000000,  -0.171581]
    |<r_e - r_h>| [Ang]:            1.416168
    Hole size [Ang]:                2.074284
      Cartesian components [Ang]: [  0.818463,   0.876944,   1.692259]
    Electron size [Ang]:            3.348767
      Cartesian components [Ang]: [  1.655350,   2.513100,   1.469146]

  Transition density matrix analysis:
  -----------------------------------
  
  CT numbers (Mulliken)
    omega =     0.0408
    <Phe> =     0.0008
  
  Exciton analysis of the transition density matrix
    Trans. dipole moment [D]:             0.000000
      Cartesian components [D]:         [ -0.000000,  -0.000000,   0.000000]
    <r_h> [Ang]:                        [ -0.000000,  -0.000000,   2.021542]
    <r_e> [Ang]:                        [  0.000000,   0.000000,  -0.426240]
    |<r_e - r_h>| [Ang]:                  2.447782
    Hole size [Ang]:                      2.067631
      Cartesian components [Ang]:       [  0.893299,   0.884449,   1.641604]
    Electron size [Ang]:                  3.870020
      Cartesian components [Ang]:       [  2.664491,   2.340914,   1.548438]
    RMS electron-hole separation [Ang]:   4.910566
      Cartesian components [Ang]:       [  2.808059,   2.499444,   3.159311]
    Covariance(r_h, r_e) [Ang^2]:         0.565065
    Correlation coefficient:              0.070617
    Center-of-mass size [Ang]:            2.257337
      Cartesian components [Ang]:       [  1.406218,   1.252701,   1.244533]

  Decomposition into state-averaged NTOs
    H- 0 -> L+ 4:  0.1019 (  2.1%)
                   omega =   4.1%
  ----------------------------------------------------------------------------


  Excited state 5 (singlet, A2)                                    [converged]
  ----------------------------------------------------------------------------
  Term symbol:  5 (1) A2                                    R^2 =  4.76778e-13

  Total energy:                                            -78.5649664637 a.u.
  Excitation energy:                                               7.678477 eV

  Osc. strength:                                                      0.000000
  Trans. dip. moment [a.u.]:           [  -0.000000,    0.000000,    0.000000]
  <i|r^2|0> [a.u.]:                    [   0.000000,    0.000000,    0.000000]

  Dip. moment [a.u.]:                  [   0.000000,   -0.000000,   -5.481405]
  Total dipole [Debye]:                                              13.932345
  <r^2> [a.u.]:                        [  88.351839,   25.397524,  108.168768]
  Total <r^2> [a.u.]:                                               221.918132

  V1^2 = 0.9036, V2^2 = 0.0964

  Important amplitudes:
      occ i      occ j       vir a       vir b          v   
    ---------------------------------------------------------
     1 (B2) A               5 (B1) A                 -0.6497
     1 (B2) A               8 (B1) A                 -0.1125
    ---------------------------------------------------------

  Density matrix analysis:
  ------------------------
  NOs
    Occupation of frontier NOs:
       0.9830   0.9866
    Number of electrons: 18.000000
    Number of unpaired electrons: n_u =  2.39894, n_u,nl =  2.03902
    NO participation ratio (PR_NO):  2.951352
  
  
  Mulliken Population Analysis
  Atom      Charge (e)              h+              e-           Del q
  --------------------------------------------------------------------
   1 C       -0.515527        0.542932       -0.685727       -0.142795
   2 C       -0.515527        0.542932       -0.685727       -0.142795
   3 H        0.144097        0.087712       -0.081762        0.005950
   4 H        0.144097        0.087712       -0.081762        0.005950
   5 H        0.107024        0.098991       -0.020270        0.078722
   6 H        0.107024        0.098991       -0.020270        0.078722
   7 H       -0.471189        0.156432       -0.040185        0.116247
  --------------------------------------------------------------------
  Sum:       -1.000000        1.615702       -1.615702        0.000000
  
  Multipole moment analysis of the density matrix
    Molecular charge:                      -1.000000
    Number of electrons:                   18.000000
      Center of electronic charge [Ang]: [ -0.000000,   0.000000,   0.161146]
    Total nuclear charge:                  17.000000
      Center of nuclear charge [Ang]:    [ -0.000000,   0.000000,   0.000000]
    Dipole moment [D]:                     13.932341
      Cartesian components [D]:          [  0.000000,  -0.000000, -13.932341]
    RMS size of the density [Ang]:         1.851065
      Cartesian components [Ang]:        [  1.172392,   0.628580,   1.287179]
  
  Exciton analysis of the difference density matrix
    <r_h> [Ang]:                  [  0.000000,  -0.000000,   0.148627]
    <r_e> [Ang]:                  [ -0.000000,   0.000000,   0.605971]
    |<r_e - r_h>| [Ang]:            0.457344
    Hole size [Ang]:                2.043396
      Cartesian components [Ang]: [  1.120466,   0.931583,   1.432542]
    Electron size [Ang]:            3.919157
      Cartesian components [Ang]: [  2.690201,   1.503276,   2.421318]

  Transition density matrix analysis:
  -----------------------------------
  
  CT numbers (Mulliken)
    omega =     0.8743
    <Phe> =    -0.0007
  
  Exciton analysis of the transition density matrix
    Trans. dipole moment [D]:             0.000000
      Cartesian components [D]:         [ -0.000000,   0.000000,   0.000000]
    <r_h> [Ang]:                        [ -0.000000,  -0.000000,  -0.180024]
    <r_e> [Ang]:                        [ -0.000000,   0.000000,   0.798481]
    |<r_e - r_h>| [Ang]:                  0.978505
    Hole size [Ang]:                      1.281919
      Cartesian components [Ang]:       [  0.763890,   0.882330,   0.530361]
    Electron size [Ang]:                  4.736612
      Cartesian components [Ang]:       [  3.298264,   1.798551,   2.884816]
    RMS electron-hole separation [Ang]:   4.999287
      Cartesian components [Ang]:       [  3.378864,   2.002551,   3.092886]
    Covariance(r_h, r_e) [Ang^2]:         0.021704
    Correlation coefficient:              0.003574
    Center-of-mass size [Ang]:            2.455719
      Cartesian components [Ang]:       [  1.696129,   1.002045,   1.466153]

  Decomposition into state-averaged NTOs
    H- 1 -> L+ 2:  0.6594 ( 87.0%)
                   omega =  87.4%
  ----------------------------------------------------------------------------


  Excited state 6 (singlet, A2)                                    [converged]
  ----------------------------------------------------------------------------
  Term symbol:  6 (1) A2                                    R^2 =  7.93130e-12

  Total energy:                                            -78.5521797483 a.u.
  Excitation energy:                                               8.026421 eV

  Osc. strength:                                                      0.000000
  Trans. dip. moment [a.u.]:           [  -0.000000,   -0.000000,    0.000000]
  <i|r^2|0> [a.u.]:                    [  -0.000000,    0.000000,   -0.000000]

  Dip. moment [a.u.]:                  [   0.000000,    0.000000,    0.482744]
  Total dipole [Debye]:                                               1.227014
  <r^2> [a.u.]:                        [  67.318764,   31.894193,   61.202248]
  Total <r^2> [a.u.]:                                               160.415205

  V1^2 = 0.8078, V2^2 = 0.1922

  Important amplitudes:
      occ i      occ j       vir a       vir b          v   
    ---------------------------------------------------------
     5 (A1) A               3 (A2) A                 -0.6129
     5 (A1) A               2 (A2) A                  0.1560
    ---------------------------------------------------------

  Density matrix analysis:
  ------------------------
  NOs
    Occupation of frontier NOs:
       0.9123   0.9789
    Number of electrons: 18.000000
    Number of unpaired electrons: n_u =  2.59637, n_u,nl =  2.13597
    NO participation ratio (PR_NO):  3.678694
  
  
  Mulliken Population Analysis
  Atom      Charge (e)              h+              e-           Del q
  --------------------------------------------------------------------
   1 C       -0.612922        0.317868       -0.558058       -0.240190
   2 C       -0.612922        0.317868       -0.558058       -0.240190
   3 H        0.057803        0.024301       -0.104646       -0.080344
   4 H        0.057803        0.024301       -0.104646       -0.080344
   5 H        0.036760        0.012399       -0.003940        0.008458
   6 H        0.036760        0.012399       -0.003940        0.008458
   7 H        0.036716        0.701021       -0.076869        0.624152
  --------------------------------------------------------------------
  Sum:       -1.000000        1.410157       -1.410157       -0.000000
  
  Multipole moment analysis of the density matrix
    Molecular charge:                      -1.000000
    Number of electrons:                   18.000000
      Center of electronic charge [Ang]: [ -0.000000,  -0.000000,  -0.014192]
    Total nuclear charge:                  17.000000
      Center of nuclear charge [Ang]:    [ -0.000000,   0.000000,   0.000000]
    Dipole moment [D]:                     1.227014
      Cartesian components [D]:          [  0.000000,   0.000000,   1.227014]
    RMS size of the density [Ang]:         1.579684
      Cartesian components [Ang]:        [  1.023371,   0.704402,   0.975669]
  
  Exciton analysis of the difference density matrix
    <r_h> [Ang]:                  [  0.000000,   0.000000,   1.854321]
    <r_e> [Ang]:                  [  0.000000,   0.000000,   0.140214]
    |<r_e - r_h>| [Ang]:            1.714107
    Hole size [Ang]:                2.418517
      Cartesian components [Ang]: [  1.120762,   1.068032,   1.858070]
    Electron size [Ang]:            3.203875
      Cartesian components [Ang]: [  1.983179,   2.006411,   1.518594]

  Transition density matrix analysis:
  -----------------------------------
  
  CT numbers (Mulliken)
    omega =     0.7942
    <Phe> =    -0.0001
  
  Exciton analysis of the transition density matrix
    Trans. dipole moment [D]:             0.000000
      Cartesian components [D]:         [ -0.000000,  -0.000000,   0.000000]
    <r_h> [Ang]:                        [ -0.000000,   0.000000,   2.562603]
    <r_e> [Ang]:                        [ -0.000000,  -0.000000,  -0.172617]
    |<r_e - r_h>| [Ang]:                  2.735220
    Hole size [Ang]:                      1.840199
      Cartesian components [Ang]:       [  0.908134,   0.881972,   1.335572]
    Electron size [Ang]:                  3.354843
      Cartesian components [Ang]:       [  2.212340,   2.181687,   1.265212]
    RMS electron-hole separation [Ang]:   4.704031
      Cartesian components [Ang]:       [  2.389680,   2.352194,   3.299170]
    Covariance(r_h, r_e) [Ang^2]:        -0.002587
    Correlation coefficient:             -0.000419
    Center-of-mass size [Ang]:            1.912860
      Cartesian components [Ang]:       [  1.196635,   1.177120,   0.917325]

  Decomposition into state-averaged NTOs
    H- 0 -> L+ 4:  0.6090 ( 74.2%)
    H- 0 -> L+ 3: -0.1361 (  3.7%)
    H- 0 -> L+ 0: -0.0797 (  1.3%)
                   omega =  79.4%
  ----------------------------------------------------------------------------


  Excited state 7 (singlet, A2)                                    [converged]
  ----------------------------------------------------------------------------
  Term symbol:  7 (1) A2                                    R^2 =  1.10527e-09

  Total energy:                                            -78.5177873647 a.u.
  Excitation energy:                                               8.962285 eV

  Osc. strength:                                                      0.000000
  Trans. dip. moment [a.u.]:           [  -0.000000,    0.000000,    0.000000]
  <i|r^2|0> [a.u.]:                    [   0.000000,    0.000000,    0.000000]

  Dip. moment [a.u.]:                  [   0.000000,   -0.000000,    0.919169]
  Total dipole [Debye]:                                               2.336296
  <r^2> [a.u.]:                        [ 102.570579,   34.049382,   96.450764]
  Total <r^2> [a.u.]:                                               233.070725

  V1^2 = 0.0127, V2^2 = 0.9873

  Important amplitudes:
      occ i      occ j       vir a       vir b          v   
    ---------------------------------------------------------
     5 (A1) A   1 (B2) B    7 (A1) A    5 (B1) B      0.1465
     5 (A1) A   1 (B2) B    4 (B1) A    7 (A1) B     -0.1446
    ---------------------------------------------------------

  Density matrix analysis:
  ------------------------
  NOs
    Occupation of frontier NOs:
       0.8353   0.9393
    Number of electrons: 18.000000
    Number of unpaired electrons: n_u =  4.27490, n_u,nl =  4.09998
    NO participation ratio (PR_NO):  5.704709
  
  
  Mulliken Population Analysis
  Atom      Charge (e)              h+              e-           Del q
  --------------------------------------------------------------------
   1 C       -0.693148        0.572541       -0.892957       -0.320416
   2 C       -0.693148        0.572541       -0.892957       -0.320416
   3 H        0.114717        0.014698       -0.038129       -0.023431
   4 H        0.114717        0.014698       -0.038129       -0.023431
   5 H        0.000675        0.005075       -0.032703       -0.027627
   6 H        0.000675        0.005075       -0.032703       -0.027627
   7 H        0.155513        0.808429       -0.065480        0.742949
  --------------------------------------------------------------------
  Sum:       -1.000000        1.993057       -1.993057       -0.000000
  
  Multipole moment analysis of the density matrix
    Molecular charge:                      -1.000000
    Number of electrons:                   18.000000
      Center of electronic charge [Ang]: [ -0.000000,   0.000000,  -0.027022]
    Total nuclear charge:                  17.000000
      Center of nuclear charge [Ang]:    [ -0.000000,   0.000000,   0.000000]
    Dipole moment [D]:                     2.336295
      Cartesian components [D]:          [  0.000000,  -0.000000,   2.336295]
    RMS size of the density [Ang]:         1.903992
      Cartesian components [Ang]:        [  1.263212,   0.727812,   1.224650]
  
  Exciton analysis of the difference density matrix
    <r_h> [Ang]:                  [ -0.000000,  -0.000000,   1.228148]
    <r_e> [Ang]:                  [ -0.000000,   0.000000,  -0.100518]
    |<r_e - r_h>| [Ang]:            1.328666
    Hole size [Ang]:                2.041484
      Cartesian components [Ang]: [  0.803239,   0.857471,   1.669493]
    Electron size [Ang]:            4.071778
      Cartesian components [Ang]: [  2.737177,   1.754793,   2.451110]

  Transition density matrix analysis:
  -----------------------------------
  
  CT numbers (Mulliken)
    omega =     0.0123
    <Phe> =    -0.0027
  
  Exciton analysis of the transition density matrix
    Trans. dipole moment [D]:             0.000000
      Cartesian components [D]:         [ -0.000000,   0.000000,   0.000000]
    <r_h> [Ang]:                        [ -0.000000,  -0.000000,  -0.119602]
    <r_e> [Ang]:                        [ -0.000000,   0.000000,   0.331669]
    |<r_e - r_h>| [Ang]:                  0.451270
    Hole size [Ang]:                      1.348072
      Cartesian components [Ang]:       [  0.773816,   0.872301,   0.676460]
    Electron size [Ang]:                  4.335349
      Cartesian components [Ang]:       [  3.119297,   1.606366,   2.546532]
    RMS electron-hole separation [Ang]:   4.568383
      Cartesian components [Ang]:       [  3.218409,   1.820972,   2.682542]
    Covariance(r_h, r_e) [Ang^2]:        -0.026965
    Correlation coefficient:             -0.004614
    Center-of-mass size [Ang]:            2.267081
      Cartesian components [Ang]:       [  1.604638,   0.917429,   1.312675]

  Decomposition into state-averaged NTOs
    H- 1 -> L+ 2:  0.0716 (  1.0%)
                   omega =   1.2%
  ----------------------------------------------------------------------------


  Excited state 8 (singlet, A2)                                    [converged]
  ----------------------------------------------------------------------------
  Term symbol:  8 (1) A2                                    R^2 =  3.22954e-09

  Total energy:                                            -78.5092980653 a.u.
  Excitation energy:                                               9.193291 eV

  Osc. strength:                                                      0.000000
  Trans. dip. moment [a.u.]:           [  -0.000000,    0.000000,   -0.000000]
  <i|r^2|0> [a.u.]:                    [   0.000000,    0.000000,    0.000000]

  Dip. moment [a.u.]:                  [   0.000000,   -0.000000,    2.190445]
  Total dipole [Debye]:                                               5.567556
  <r^2> [a.u.]:                        [ 109.225685,   34.582311,   84.905831]
  Total <r^2> [a.u.]:                                               228.713827

  V1^2 = 0.0195, V2^2 = 0.9805

  Important amplitudes:
      occ i      occ j       vir a       vir b          v   
    ---------------------------------------------------------
     5 (A1) A   1 (B2) A    7 (A1) A    4 (B1) A     -0.1688
     5 (A1) A   1 (B2) A    7 (A1) A    5 (B1) A      0.1323
    ---------------------------------------------------------

  Density matrix analysis:
  ------------------------
  NOs
    Occupation of frontier NOs:
       0.9228   0.9418
    Number of electrons: 18.000000
    Number of unpaired electrons: n_u =  4.23125, n_u,nl =  3.99034
    NO participation ratio (PR_NO):  5.396682
  
  
  Mulliken Population Analysis
  Atom      Charge (e)              h+              e-           Del q
  --------------------------------------------------------------------
   1 C       -0.776746        0.572447       -0.976461       -0.404014
   2 C       -0.776746        0.572447       -0.976461       -0.404014
   3 H        0.147795        0.014036       -0.004389        0.009648
   4 H        0.147795        0.014036       -0.004389        0.009648
   5 H        0.030810        0.006184       -0.003676        0.002507
   6 H        0.030810        0.006184       -0.003676        0.002507
   7 H        0.196283        0.801667       -0.017948        0.783719
  --------------------------------------------------------------------
  Sum:       -1.000000        1.987001       -1.987001       -0.000000
  
  Multipole moment analysis of the density matrix
    Molecular charge:                      -1.000000
    Number of electrons:                   18.000000
      Center of electronic charge [Ang]: [ -0.000000,   0.000000,  -0.064396]
    Total nuclear charge:                  17.000000
      Center of nuclear charge [Ang]:    [ -0.000000,   0.000000,   0.000000]
    Dipole moment [D]:                     5.567554
      Cartesian components [D]:          [  0.000000,  -0.000000,   5.567554]
    RMS size of the density [Ang]:         1.885202
      Cartesian components [Ang]:        [  1.303549,   0.733486,   1.147495]
  
  Exciton analysis of the difference density matrix
    <r_h> [Ang]:                  [ -0.000000,  -0.000000,   1.219043]
    <r_e> [Ang]:                  [ -0.000000,   0.000000,  -0.452238]
    |<r_e - r_h>| [Ang]:            1.671281
    Hole size [Ang]:                2.037629
      Cartesian components [Ang]: [  0.801951,   0.855519,   1.666401]
    Electron size [Ang]:            3.970667
      Cartesian components [Ang]: [  2.906690,   1.777134,   2.039399]

  Transition density matrix analysis:
  -----------------------------------
  
  CT numbers (Mulliken)
    omega =     0.0189
    <Phe> =    -0.0105
  
  Exciton analysis of the transition density matrix
    Trans. dipole moment [D]:             0.000000
      Cartesian components [D]:         [ -0.000000,   0.000000,  -0.000000]
    <r_h> [Ang]:                        [  0.000000,  -0.000000,  -0.076337]
    <r_e> [Ang]:                        [ -0.000000,  -0.000000,  -0.477731]
    |<r_e - r_h>| [Ang]:                  0.401394
    Hole size [Ang]:                      1.400422
      Cartesian components [Ang]:       [  0.853775,   0.793987,   0.775779]
    Electron size [Ang]:                  2.786846
      Cartesian components [Ang]:       [  1.954780,   1.427364,   1.381295]
    RMS electron-hole separation [Ang]:   3.105741
      Cartesian components [Ang]:       [  2.119373,   1.597890,   1.612646]
    Covariance(r_h, r_e) [Ang^2]:         0.121591
    Correlation coefficient:              0.031155
    Center-of-mass size [Ang]:            1.578834
      Cartesian components [Ang]:       [  1.073365,   0.834013,   0.803136]

  Decomposition into state-averaged NTOs
                   omega =   1.9%
  ----------------------------------------------------------------------------


  Excited state 9 (singlet, A2)                                    [converged]
  ----------------------------------------------------------------------------
  Term symbol:  9 (1) A2                                    R^2 =  4.75394e-07

  Total energy:                                            -78.5029693017 a.u.
  Excitation energy:                                               9.365505 eV

  Osc. strength:                                                      0.000000
  Trans. dip. moment [a.u.]:           [   0.000000,    0.000000,   -0.000000]
  <i|r^2|0> [a.u.]:                    [  -0.000000,   -0.000000,   -0.000000]

  Dip. moment [a.u.]:                  [   0.000000,    0.000000,   -3.881222]
  Total dipole [Debye]:                                               9.865085
  <r^2> [a.u.]:                        [  56.437211,   21.257385,   83.753467]
  Total <r^2> [a.u.]:                                               161.448063

  V1^2 = 0.9208, V2^2 = 0.0792

  Important amplitudes:
      occ i      occ j       vir a       vir b          v   
    ---------------------------------------------------------
     4 (A1) A               2 (A2) A                  0.5610
     4 (A1) A               1 (A2) A                 -0.2455
    ---------------------------------------------------------

  Density matrix analysis:
  ------------------------
  NOs
    Occupation of frontier NOs:
       0.9495   1.0668
    Number of electrons: 18.000000
    Number of unpaired electrons: n_u =  2.48323, n_u,nl =  2.08108
    NO participation ratio (PR_NO):  3.429943
  
  
  Mulliken Population Analysis
  Atom      Charge (e)              h+              e-           Del q
  --------------------------------------------------------------------
   1 C       -0.483367        0.439043       -0.549678       -0.110635
   2 C       -0.483367        0.439043       -0.549678       -0.110635
   3 H        0.182668        0.062820       -0.018300        0.044520
   4 H        0.182668        0.062820       -0.018300        0.044520
   5 H        0.087076        0.067703       -0.008930        0.058773
   6 H        0.087076        0.067703       -0.008930        0.058773
   7 H       -0.572753        0.022927       -0.008244        0.014683
  --------------------------------------------------------------------
  Sum:       -1.000000        1.162059       -1.162059        0.000000
  
  Multipole moment analysis of the density matrix
    Molecular charge:                      -1.000000
    Number of electrons:                   18.000000
      Center of electronic charge [Ang]: [ -0.000000,  -0.000000,   0.114103]
    Total nuclear charge:                  17.000000
      Center of nuclear charge [Ang]:    [ -0.000000,   0.000000,   0.000000]
    Dipole moment [D]:                     9.865082
      Cartesian components [D]:          [  0.000000,   0.000000,  -9.865082]
    RMS size of the density [Ang]:         1.580712
      Cartesian components [Ang]:        [  0.937017,   0.575069,   1.135757]
  
  Exciton analysis of the difference density matrix
    <r_h> [Ang]:                  [  0.000000,  -0.000000,  -0.080433]
    <r_e> [Ang]:                  [ -0.000000,  -0.000000,  -0.173241]
    |<r_e - r_h>| [Ang]:            0.092808
    Hole size [Ang]:                1.575524
      Cartesian components [Ang]: [  1.129434,   0.603534,   0.917824]
    Electron size [Ang]:            1.979185
      Cartesian components [Ang]: [  1.379070,   1.141040,   0.844610]

  Transition density matrix analysis:
  -----------------------------------
  
  CT numbers (Mulliken)
    omega =     0.8898
    <Phe> =    -0.0152
  
  Exciton analysis of the transition density matrix
    Trans. dipole moment [D]:             0.000000
      Cartesian components [D]:         [  0.000000,   0.000000,  -0.000000]
    <r_h> [Ang]:                        [  0.000000,  -0.000000,  -0.141053]
    <r_e> [Ang]:                        [ -0.000000,  -0.000000,  -0.209332]
    |<r_e - r_h>| [Ang]:                  0.068279
    Hole size [Ang]:                      1.301479
      Cartesian components [Ang]:       [  1.067766,   0.435209,   0.603587]
    Electron size [Ang]:                  1.959922
      Cartesian components [Ang]:       [  1.379470,   1.171165,   0.752814]
    RMS electron-hole separation [Ang]:   2.331405
      Cartesian components [Ang]:       [  1.716600,   1.247038,   0.966247]
    Covariance(r_h, r_e) [Ang^2]:         0.052176
    Correlation coefficient:              0.020455
    Center-of-mass size [Ang]:            1.187381
      Cartesian components [Ang]:       [  0.885919,   0.625892,   0.482991]

  Decomposition into state-averaged NTOs
    H- 2 -> L+ 0:  0.6508 ( 84.7%)
    H- 1 -> L+ 6: -0.1285 (  3.3%)
                   omega =  89.0%
  ----------------------------------------------------------------------------


  Excited state 10 (singlet, A2)                                    [converged]
  ----------------------------------------------------------------------------
  Term symbol:  10 (1) A2                                   R^2 =  7.53823e-06

  Total energy:                                            -78.4996889547 a.u.
  Excitation energy:                                               9.454768 eV

  Osc. strength:                                                      0.000000
  Trans. dip. moment [a.u.]:           [   0.000000,    0.000000,    0.000000]
  <i|r^2|0> [a.u.]:                    [  -0.000000,   -0.000000,   -0.000000]

  Dip. moment [a.u.]:                  [  -0.000000,   -0.000000,   -3.454872]
  Total dipole [Debye]:                                               8.781411
  <r^2> [a.u.]:                        [  64.319623,   52.672925,   87.456765]
  Total <r^2> [a.u.]:                                               204.449313

  V1^2 = 0.8342, V2^2 = 0.1658

  Important amplitudes:
      occ i      occ j       vir a       vir b          v   
    ---------------------------------------------------------
     3 (B1) A               2 (B2) A                  0.6293
     3 (B1) A               3 (B2) A                  0.1320
    ---------------------------------------------------------

  Density matrix analysis:
  ------------------------
  NOs
    Occupation of frontier NOs:
       0.9475   1.1006
    Number of electrons: 18.000000
    Number of unpaired electrons: n_u =  2.67618, n_u,nl =  2.19323
    NO participation ratio (PR_NO):  4.050391
  
  
  Mulliken Population Analysis
  Atom      Charge (e)              h+              e-           Del q
  --------------------------------------------------------------------
   1 C       -0.687535        0.336581       -0.651384       -0.314803
   2 C       -0.687535        0.336581       -0.651384       -0.314803
   3 H        0.244627        0.154263       -0.047783        0.106480
   4 H        0.244627        0.154263       -0.047783        0.106480
   5 H        0.184521        0.173264       -0.017045        0.156218
   6 H        0.184521        0.173264       -0.017045        0.156218
   7 H       -0.483226        0.135951       -0.031742        0.104209
  --------------------------------------------------------------------
  Sum:       -1.000000        1.464167       -1.464167        0.000000
  
  Multipole moment analysis of the density matrix
    Molecular charge:                      -1.000000
    Number of electrons:                   18.000000
      Center of electronic charge [Ang]: [  0.000000,   0.000000,   0.101569]
    Total nuclear charge:                  17.000000
      Center of nuclear charge [Ang]:    [ -0.000000,   0.000000,   0.000000]
    Dipole moment [D]:                     8.781409
      Cartesian components [D]:          [ -0.000000,  -0.000000,  -8.781409]
    RMS size of the density [Ang]:         1.780542
      Cartesian components [Ang]:        [  1.000315,   0.905229,   1.162007]
  
  Exciton analysis of the difference density matrix
    <r_h> [Ang]:                  [  0.000000,  -0.000000,   0.189038]
    <r_e> [Ang]:                  [  0.000000,  -0.000000,  -0.038712]
    |<r_e - r_h>| [Ang]:            0.227750
    Hole size [Ang]:                2.144063
      Cartesian components [Ang]: [  1.217164,   0.817830,   1.564184]
    Electron size [Ang]:            3.743386
      Cartesian components [Ang]: [  1.867094,   2.724233,   1.762230]

  Transition density matrix analysis:
  -----------------------------------
  
  CT numbers (Mulliken)
    omega =     0.8203
    <Phe> =    -0.0005
  
  Exciton analysis of the transition density matrix
    Trans. dipole moment [D]:             0.000000
      Cartesian components [D]:         [  0.000000,   0.000000,   0.000000]
    <r_h> [Ang]:                        [  0.000000,   0.000000,  -0.123471]
    <r_e> [Ang]:                        [  0.000000,  -0.000000,  -0.176256]
    |<r_e - r_h>| [Ang]:                  0.052785
    Hole size [Ang]:                      1.524228
      Cartesian components [Ang]:       [  1.127880,   0.415597,   0.937250]
    Electron size [Ang]:                  4.233651
      Cartesian components [Ang]:       [  1.935722,   3.260635,   1.882828]
    RMS electron-hole separation [Ang]:   4.469085
      Cartesian components [Ang]:       [  2.178182,   3.286691,   2.103784]
    Covariance(r_h, r_e) [Ang^2]:         0.138565
    Correlation coefficient:              0.021473
    Center-of-mass size [Ang]:            2.265182
      Cartesian components [Ang]:       [  1.150411,   1.643668,   1.051646]

  Decomposition into state-averaged NTOs
    H- 3 -> L+ 5:  0.6379 ( 81.4%)
                   omega =  82.0%
  ----------------------------------------------------------------------------


--------------------------------------------------------------------------------
  Time of ADC calculation:  CPU 675.31 s  wall 159.14 s
================================================================================
 
 --------------------------------------------------------------
             Orbital Energies (a.u.) and Symmetries
 --------------------------------------------------------------
 
 Alpha MOs, Restricted
 -- Occupied --                  
-11.070 -11.068  -0.876  -0.619  -0.493  -0.404  -0.347  -0.213
  1 A1    1 B1    2 A1    2 B1    3 A1    4 A1    3 B1    1 B2                 
 -0.033
  5 A1                                                                         
 -- Virtual --                   
  0.147   0.170   0.172   0.176   0.179   0.189   0.269   0.290
  4 B1    2 B2    6 A1    1 A2    7 A1    5 B1    8 A1    2 A2                 
  0.321   0.346   0.352   0.377   0.379   0.388   0.460   0.476
  6 B1    7 B1    9 A1    8 B1    3 B2   10 A1    3 A2   11 A1                 
  0.503   0.508   0.672   0.717   0.895   0.996   1.031   1.034
 12 A1    9 B1   10 B1   11 B1   13 A1   14 A1   15 A1   16 A1                 
  1.087   1.103   1.122   1.150   1.165   1.231   1.244   1.280
 12 B1    4 B2   17 A1    4 A2   13 B1   14 B1   18 A1    5 B2                 
  1.448   1.451   1.457   1.519   1.776   1.780   1.882   1.886
  6 B2    5 A2   15 B1   16 B1   19 A1   17 B1   20 A1    7 B2                 
  1.936   1.983   2.023   2.091   2.104   2.180   2.187   2.242
 18 B1   21 A1    6 A2   19 B1    8 B2   22 A1    9 B2   23 A1                 
  2.337   2.486   2.579   2.627   2.729   2.753   2.964   2.994
  7 A2   20 B1    8 A2   24 A1   21 B1   22 B1   25 A1   26 A1                 
  3.407   3.509
 23 B1   24 B1                                                                 
 
 Beta MOs, Restricted
 -- Occupied --                  
-11.070 -11.068  -0.876  -0.619  -0.493  -0.404  -0.347  -0.213
  1 A1    1 B1    2 A1    2 B1    3 A1    4 A1    3 B1    1 B2                 
 -0.033
  5 A1                                                                         
 -- Virtual --                   
  0.147   0.170   0.172   0.176   0.179   0.189   0.269   0.290
  4 B1    2 B2    6 A1    1 A2    7 A1    5 B1    8 A1    2 A2                 
  0.321   0.346   0.352   0.377   0.379   0.388   0.460   0.476
  6 B1    7 B1    9 A1    8 B1    3 B2   10 A1    3 A2   11 A1                 
  0.503   0.508   0.672   0.717   0.895   0.996   1.031   1.034
 12 A1    9 B1   10 B1   11 B1   13 A1   14 A1   15 A1   16 A1                 
  1.087   1.103   1.122   1.150   1.165   1.231   1.244   1.280
 12 B1    4 B2   17 A1    4 A2   13 B1   14 B1   18 A1    5 B2                 
  1.448   1.451   1.457   1.519   1.776   1.780   1.882   1.886
  6 B2    5 A2   15 B1   16 B1   19 A1   17 B1   20 A1    7 B2                 
  1.936   1.983   2.023   2.091   2.104   2.180   2.187   2.242
 18 B1   21 A1    6 A2   19 B1    8 B2   22 A1    9 B2   23 A1                 
  2.337   2.486   2.579   2.627   2.729   2.753   2.964   2.994
  7 A2   20 B1    8 A2   24 A1   21 B1   22 B1   25 A1   26 A1                 
  3.407   3.509
 23 B1   24 B1                                                                 
 --------------------------------------------------------------
 
          Ground-State Mulliken Net Atomic Charges

     Atom                 Charge (a.u.)
  ----------------------------------------
      1 C                    -0.342235
      2 C                    -0.342235
      3 H                     0.140639
      4 H                     0.140639
      5 H                     0.020681
      6 H                     0.020681
      7 H                    -0.638170
  ----------------------------------------
  Sum of atomic charges =    -1.000000

 -----------------------------------------------------------------
                    Cartesian Multipole Moments
 -----------------------------------------------------------------
    Charge (ESU x 10^10)
                -4.8032
    Dipole Moment (Debye)
         X       0.0000      Y       0.0000      Z     -10.8279
       Tot      10.8279
    Quadrupole Moments (Debye-Ang)
        XX     -20.3629     XY      -0.0000     YY     -23.0743
        XZ       0.0000     YZ      -0.0000     ZZ     -54.8909
    Octopole Moments (Debye-Ang^2)
       XXX      -0.0000    XXY       0.0000    XYY       0.0000
       YYY       0.0000    XXZ      -7.3471    XYZ      -0.0000
       YYZ     -10.0764    XZZ       0.0000    YZZ      -0.0000
       ZZZ    -117.7807
    Hexadecapole Moments (Debye-Ang^3)
      XXXX    -109.9084   XXXY      -0.0000   XXYY     -27.4555
      XYYY      -0.0000   YYYY     -54.8240   XXXZ       0.0000
      XXYZ      -0.0000   XYYZ       0.0000   YYYZ      -0.0000
      XXZZ     -73.5588   XYZZ      -0.0000   YYZZ     -66.4633
      XZZZ       0.0000   YZZZ      -0.0000   ZZZZ    -583.2726
 -----------------------------------------------------------------
 Total job time:  241.99s(wall), 720.09s(cpu) 
 Mon Mar 28 16:31:36 2022

        *************************************************************
        *                                                           *
        *  Thank you very much for using Q-Chem.  Have a nice day.  *
        *                                                           *
        *************************************************************


