/src/tsommerfeld/qchem/exe/qcprog.exe .input0.933333.17500.qcin.1 /src/jdavis/qchem.scratch/qchem17500/

                  Welcome to Q-Chem
     A Quantum Leap Into The Future Of Chemistry


 Q-Chem 5.4 (devel), Q-Chem, Inc., Pleasanton, CA (2021)

 E. Epifanovsky,  A. T. B. Gilbert,  Xintian Feng,  Joonho Lee,  Yuezhi Mao,  
 N. Mardirossian,  P. Pokhilko,  A. White,  M. Wormit,  M. P. Coons,  
 A. L. Dempwolff,  Zhengting Gan,  D. Hait,  P. R. Horn,  L. D. Jacobson,  
 I. Kaliman,  J. Kussmann,  A. W. Lange,  Ka Un Lao,  D. S. Levine,  Jie Liu,  
 S. C. McKenzie,  A. F. Morrison,  K. Nanda,  F. Plasser,  D. R. Rehn,  
 M. L. Vidal,  Zhi-Qiang You,  Ying Zhu,  B. Alam,  B. Albrecht,  
 A. Aldossary,  E. Alguire,  J. H. Andersen,  D. Barton,  K. Begam,  A. Behn,  
 Y. A. Bernard,  E. J. Berquist,  H. Burton,  A. Carreras,  K. Carter-Fenk,  
 R. Chakraborty,  A. D. Chien,  K. D. Closser,  V. Cofer-Shabica,  
 S. Dasgupta,  Jia Deng,  M. de Wergifosse,  M. Diedenhofen,  Hainam Do,  
 S. Ehlert,  Po-Tung Fang,  S. Fatehi,  Qingguo Feng,  T. Friedhoff,  
 J. Gayvert,  Qinghui Ge,  G. Gidofalvi,  M. Goldey,  J. Gomes,  
 C. Gonzalez-Espinoza,  S. Gulania,  A. Gunina,  M. W. D. Hanson-Heine,  
 P. H. P. Harbach,  A. W. Hauser,  M. F. Herbst,  M. Hernandez Vera,  
 M. Hodecker,  Z. C. Holden,  S. Houck,  Xunkun Huang,  Kerwin Hui,  
 B. C. Huynh,  M. Ivanov,  Hyunjun Ji,  Hanjie Jiang,  B. Kaduk,  S. Kaehler,  
 K. Khistyaev,  Jaehoon Kim,  P. Klunzinger,  Z. Koczor-Benda,  
 Joong Hoon Koh,  D. Kosenkov,  L. Koulias,  T. Kowalczyk,  C. M. Krauter,  
 K. Kue,  A. Kunitsa,  T. Kus,  A. Landau,  K. V. Lawler,  D. Lefrancois,  
 S. Lehtola,  Rain Li,  Yi-Pei Li,  Jiashu Liang,  M. Liebenthal,  
 Hung-Hsuan Lin,  You-Sheng Lin,  Fenglai Liu,  Kuan-Yu Liu,  
 M. Loipersberger,  A. Luenser,  A. Manjanath,  P. Manohar,  E. Mansoor,  
 S. F. Manzer,  Shan-Ping Mao,  A. V. Marenich,  T. Markovich,  S. Mason,  
 S. A. Maurer,  P. F. McLaughlin,  M. F. S. J. Menger,  J.-M. Mewes,  
 S. A. Mewes,  P. Morgante,  J. W. Mullinax,  K. J. Oosterbaan,  G. Paran,  
 Alexander C. Paul,  Suranjan K. Paul,  F. Pavosevic,  Zheng Pei,  S. Prager,  
 E. I. Proynov,  E. Ramos,  B. Rana,  A. E. Rask,  A. Rettig,  R. M. Richard,  
 F. Rob,  E. Rossomme,  T. Scheele,  M. Scheurer,  M. Schneider,  
 N. Sergueev,  S. M. Sharada,  W. Skomorowski,  D. W. Small,  C. J. Stein,  
 Yu-Chuan Su,  E. J. Sundstrom,  Zhen Tao,  J. Thirman,  T. Tsuchimochi,  
 N. M. Tubman,  S. P. Veccham,  O. Vydrov,  J. Wenzel,  J. Witte,  A. Yamada,  
 Kun Yao,  S. Yeganeh,  S. R. Yost,  A. Zech,  Igor Ying Zhang,  Xing Zhang,  
 Yu Zhang,  D. Zuev,  A. Aspuru-Guzik,  A. T. Bell,  N. A. Besley,  
 K. B. Bravaya,  B. R. Brooks,  D. Casanova,  Jeng-Da Chai,  S. Coriani,  
 C. J. Cramer,  A. E. DePrince, III,  R. A. DiStasio Jr.,  A. Dreuw,  
 B. D. Dunietz,  T. R. Furlani,  W. A. Goddard III,  S. Grimme,  
 S. Hammes-Schiffer,  T. Head-Gordon,  W. J. Hehre,  Chao-Ping Hsu,  
 T.-C. Jagau,  Yousung Jung,  A. Klamt,  Jing Kong,  D. S. Lambrecht,  
 WanZhen Liang,  N. J. Mayhall,  C. W. McCurdy,  J. B. Neaton,  
 C. Ochsenfeld,  J. A. Parkhill,  R. Peverati,  V. A. Rassolov,  Yihan Shao,  
 L. V. Slipchenko,  T. Stauch,  R. P. Steele,  J. E. Subotnik,  
 A. J. W. Thom,  A. Tkatchenko,  D. G. Truhlar,  T. Van Voorhis,  
 T. A. Wesolowski,  K. B. Whaley,  H. L. Woodcock III,  P. M. Zimmerman,  
 S. Faraji,  P. M. W. Gill,  M. Head-Gordon,  J. M. Herbert,  A. I. Krylov

 Additional authors for Version 5.4.1: 
 S. Kotaru,  Shaozhi Li,  Xiangyuan Li,  F. Matz,  A. Molle,  Haisheng Ren,  
 Yingli Su,  Hung-Yi Tsai,  C. Utku,  Fang Wang

 Contributors to earlier versions of Q-Chem not listed above: 
 R. D. Adamson,  B. Austin,  R. Baer,  J. Baker,  G. J. O. Beran,  
 K. Brandhorst,  S. T. Brown,  E. F. C. Byrd,  A. K. Chakraborty,  
 G. K. L. Chan,  Chun-Min Chang,  Yunqing Chen,  C.-L. Cheng,  
 Siu Hung Chien,  D. M. Chipman,  D. L. Crittenden,  H. Dachsel,  
 R. J. Doerksen,  A. D. Dutoi,  R. G. Edgar,  J. Fosso-Tande,  
 L. Fusti-Molnar,  D. Ghosh,  A. Ghysels,  A. Golubeva-Zadorozhnaya,  
 J. Gonthier,  M. S. Gordon,  S. R. Gwaltney,  G. Hawkins,  J. E. Herr,  
 A. Heyden,  S. Hirata,  E. G. Hohenstein,  G. Kedziora,  F. J. Keil,  
 C. Kelley,  Jihan Kim,  R. A. King,  R. Z. Khaliullin,  P. P. Korambath,  
 W. Kurlancheek,  A. Laurent,  A. M. Lee,  M. S. Lee,  S. V. Levchenko,  
 Ching Yeh Lin,  D. Liotard,  E. Livshits,  R. C. Lochan,  I. Lotan,  
 L. A. Martinez-Martinez,  P. E. Maslen,  N. Nair,  D. P. O'Neill,  
 D. Neuhauser,  E. Neuscamman,  C. M. Oana,  R. Olivares-Amaya,  R. Olson,  
 T. M. Perrine,  B. Peters,  P. A. Pieniazek,  A. Prociuk,  Y. M. Rhee,  
 J. Ritchie,  M. A. Rohrdanz,  E. Rosta,  N. J. Russ,  H. F. Schaefer III,  
 M. W. Schmidt,  N. E. Schultz,  S. Sharma,  N. Shenvi,  C. D. Sherrill,  
 A. C. Simmonett,  A. Sodt,  T. Stein,  D. Stuck,  K. S. Thanthiriwatte,  
 V. Vanovschi,  L. Vogt,  Tao Wang,  A. Warshel,  M. A. Watson,  
 C. F. Williams,  Q. Wu,  X. Xu,  Jun Yang,  W. Zhang,  Yan Zhao

 Please cite Q-Chem as follows:
 Y. Shao et al., Mol. Phys. 113, 184-215 (2015)
 DOI: 10.1080/00268976.2014.952696

 Q-Chem 5.4.1 for Intel X86 EM64T Linux

 Parts of Q-Chem use Armadillo 9.900.5 (Nocturnal Misbehaviour).
 http://arma.sourceforge.net/

 Q-Chem begins on Mon Mar 28 17:58:43 2022  

 Host: node01
0

     Scratch files written to /src/jdavis/qchem.scratch/qchem17500//
 Processing $rem in /src/tsommerfeld/qchem/config/preferences:
 Processing $rem in /home/jdavis/.qchemrc:

 Checking the input file for inconsistencies... 	...done.

--------------------------------------------------------------
User input:
--------------------------------------------------------------
$molecule
-1 1
C        -0.6645000000    0.0000000000   -0.1764707059
C         0.6645000000    0.0000000000   -0.1764707059
H        -1.1590800000    0.0000000000    0.7858782941
H         1.1590800000    0.0000000000    0.7858782941
H        -1.1590800000    0.0000000000   -1.1388187059
H         1.1590800000    0.0000000000   -1.1388187059
H         0.0000000000    0.0000000000    2.8235292941
$end

$rem
   METHOD adc(3)
   BASIS gen
   PURECART 11
   EE_STATES [0,10,0,0]
   scf_convergence 8
   ADC_DAVIDSON_MAXITER 120
   ADC_DAVIDSON_MAXSUBSPACE 200
   adc_nguess_singles 100
   THRESH 14
   S2THRESH 14
   adc_davidson_conv 5
   adc_davidson_thresh 14
   THREADS 10
   MEM_TOTAL 95000
   STATE_ANALYSIS TRUE
$end
$basis
C 1
S   9   1.00
      6.665000D+03           6.920000D-04
      1.000000D+03           5.329000D-03
      2.280000D+02           2.707700D-02
      6.471000D+01           1.017180D-01
      2.106000D+01           2.747400D-01
      7.495000D+00           4.485640D-01
      2.797000D+00           2.850740D-01
      5.215000D-01           1.520400D-02
      1.596000D-01          -3.191000D-03
S   9   1.00
      6.665000D+03          -1.460000D-04
      1.000000D+03          -1.154000D-03
      2.280000D+02          -5.725000D-03
      6.471000D+01          -2.331200D-02
      2.106000D+01          -6.395500D-02
      7.495000D+00          -1.499810D-01
      2.797000D+00          -1.272620D-01
      5.215000D-01           5.445290D-01
      1.596000D-01           5.804960D-01
S   1   1.00
      1.596000D-01           1.000000D+00
S   1   1.00
      0.0469000              1.0000000
P   4   1.00
      9.439000D+00           3.810900D-02
      2.002000D+00           2.094800D-01
      5.456000D-01           5.085570D-01
      1.517000D-01           4.688420D-01
P   1   1.00
      1.517000D-01           1.000000D+00
P   1   1.00
      0.0943911      1.0000000
P   1   1.00
      0.0471956      1.0000000
D   1   1.00
      5.500000D-01           1.0000000
****
C 2
S   9   1.00
      6.665000D+03           6.920000D-04
      1.000000D+03           5.329000D-03
      2.280000D+02           2.707700D-02
      6.471000D+01           1.017180D-01
      2.106000D+01           2.747400D-01
      7.495000D+00           4.485640D-01
      2.797000D+00           2.850740D-01
      5.215000D-01           1.520400D-02
      1.596000D-01          -3.191000D-03
S   9   1.00
      6.665000D+03          -1.460000D-04
      1.000000D+03          -1.154000D-03
      2.280000D+02          -5.725000D-03
      6.471000D+01          -2.331200D-02
      2.106000D+01          -6.395500D-02
      7.495000D+00          -1.499810D-01
      2.797000D+00          -1.272620D-01
      5.215000D-01           5.445290D-01
      1.596000D-01           5.804960D-01
S   1   1.00
      1.596000D-01           1.000000D+00
S   1   1.00
      0.0469000              1.0000000
P   4   1.00
      9.439000D+00           3.810900D-02
      2.002000D+00           2.094800D-01
      5.456000D-01           5.085570D-01
      1.517000D-01           4.688420D-01
P   1   1.00
      1.517000D-01           1.000000D+00
P   1   1.00
      0.0943911      1.0000000
P   1   1.00
      0.0471956      1.0000000
D   1   1.00
      5.500000D-01           1.0000000
****
H 3
cc-pVDZ
****
H 4
cc-pVDZ
****
H 5
cc-pVDZ
****
H 6
cc-pVDZ
****
H 7
aug-cc-pVDZ
****
$end
--------------------------------------------------------------
 ----------------------------------------------------------------
             Standard Nuclear Orientation (Angstroms)
    I     Atom           X                Y                Z
 ----------------------------------------------------------------
    1      C      -0.6645000000    -0.0000000000    -0.1764707059
    2      C       0.6645000000     0.0000000000    -0.1764707059
    3      H      -1.1590800000    -0.0000000000     0.7858782941
    4      H       1.1590800000     0.0000000000     0.7858782941
    5      H      -1.1590800000    -0.0000000000    -1.1388187059
    6      H       1.1590800000     0.0000000000    -1.1388187059
    7      H       0.0000000000     0.0000000000     2.8235292941
 ----------------------------------------------------------------
 Molecular Point Group                 C2v   NOp =  4
 Largest Abelian Subgroup              C2v   NOp =  4
 Nuclear Repulsion Energy =          36.36366470 hartrees
 There are        9 alpha and        9 beta electrons
 Requested basis set is non-standard
 There are 33 shells and 67 basis functions
 Total memory of 95000 MB is distributed as follows: 
   MEM_STATIC is set to 192 MB
   QALLOC/CCMAN JOB total memory use is  94808 MB
 Warning: actual memory use might exceed 95000 MB

 Total QAlloc Memory Limit  95000 MB
 Mega-Array Size       188 MB
 MEM_STATIC part       192 MB

                       Distance Matrix (Angstroms)
             C (  1)   C (  2)   H (  3)   H (  4)   H (  5)   H (  6)
   C (  2)  1.329000
   H (  3)  1.082000  2.061931
   H (  4)  2.061931  1.082000  2.318160
   H (  5)  1.082000  2.061931  1.924697  3.013026
   H (  6)  2.061931  1.082000  3.013026  1.924697  2.318160
   H (  7)  3.072712  3.072712  2.344246  2.344246  4.128398  4.128398

 
 A cutoff of  1.0D-14 yielded    561 shell pairs
 There are      2337 function pairs (      2484 Cartesian)
 Smallest overlap matrix eigenvalue = 1.81E-04

 Scale SEOQF with 1.000000e-01/1.000000e-01/1.000000e-01

 Standard Electronic Orientation quadrupole field applied
 Nucleus-field energy     =    -0.0000000009 hartrees
 ================ Generating on-the-fly SAD Guess ================
Attempting to make child job directory: /src/jdavis/qchem.scratch/qchem17500//Frg1/
Attempting to make child job directory: /src/jdavis/qchem.scratch/qchem17500//Frg2/
Creating input file /src/jdavis/qchem.scratch/qchem17500/Frg1.input
using default PutDataFrgm: nothing
calling putenv with: QCSCRATCH=/src/jdavis/qchem.scratch/qchem17500/ 
Spawning Job For Fragment 0
Done Job For Fragment 0
calling putenv with: QCSCRATCH=/src/jdavis/qchem.scratch 
calling putenv with: QCTHREADS=1 
Creating input file /src/jdavis/qchem.scratch/qchem17500/Frg2.input
using default PutDataFrgm: nothing
calling putenv with: QCSCRATCH=/src/jdavis/qchem.scratch/qchem17500/ 
Spawning Job For Fragment 1
Done Job For Fragment 1
calling putenv with: QCSCRATCH=/src/jdavis/qchem.scratch 
calling putenv with: QCTHREADS=1 
 Time for running child jobs:  CPU 1.77 s  wall 54.68 s
 ============= Method Specific SAD Guess Constructed =============
 Guess from on-the-fly superposition of atomic densities
 Warning: Energy on first SCF cycle will be non-variational
 A restricted Hartree-Fock SCF calculation will be
 performed using Pulay DIIS extrapolation
 SCF converges when DIIS error is below 1.0E-08
 using 10 threads for integral computing
 -------------------------------------------------------
 OpenMP Integral computing Module                
 Release: version 1.0, May 2013, Q-Chem Inc. Pittsburgh 
 -------------------------------------------------------
 ---------------------------------------
  Cycle       Energy         DIIS Error
 ---------------------------------------
    1     -78.8164313320      7.37E-02
    2     -78.4584872869      6.97E-03
    3     -78.5047912796      1.74E-03
    4     -78.5075023178      5.63E-04
    5     -78.5078322380      1.21E-04
    6     -78.5078594401      2.90E-05
    7     -78.5078620049      7.76E-06
    8     -78.5078622266      1.09E-06
    9     -78.5078622315      2.50E-07
   10     -78.5078622318      4.79E-08
   11     -78.5078622318      1.05E-08
   12     -78.5078622318      1.47E-09 Convergence criterion met
 ---------------------------------------
 SCF time:  CPU 10.58 s  wall 1.06 s
 SCF   energy in the final basis set = -78.50786223
 Total energy in the final basis set = -78.50786223
================================================================================
|                                                                              |
|                                 A D C  M A N                                 |
|                                                                              |
 ------------------------------------------------------------------------------ 
|                                                                              |
| Components:                                                                  |
|                                                                              |
| - libvmm - 1.3-trunk                                                         |
|   Authors:                                                                   |
|   Evgeny Epifanovsky, Ilya Kaliman                                           |
|                                                                              |
| - libtensor - 2.5-trunk                                                      |
|   Authors:                                                                   |
|   Evgeny Epifanovsky, Michael Wormit, Dmitry Zuev, Sam Manzer,               |
|   Ilya Kaliman                                                               |
|                                                                              |
| - libwfa - 1.1-trunk                                                         |
|   Authors:                                                                   |
|   Felix Plasser, Stefanie Mewes (Baeppler), Benjamin Thomitzni,              |
|   Michael Wormit, Feng Chen, Anna I. Krylov, Pavel Pokhilko                  |
|                                                                              |
| - libadc - 1.1-trunk                                                         |
|   Authors:                                                                   |
|   Michael Wormit, Adrian L. Dempwolff, Philipp H. P. Harbach,                |
|   Caroline Krauter, Dirk Rehn, Matthias Schneider, Jan Wenzel                |
|                                                                              |
| - adcman - 2.6-trunk                                                         |
|   Authors:                                                                   |
|   Michael Wormit, Adrian L. Dempwolff, Philipp H. P. Harbach,                |
|   Caroline Krauter, Daniel Lefrancois, Jan-Michael Mewes, Dirk Rehn,         |
|   Matthias Schneider, Jan Wenzel, Andreas Dreuw                              |
|                                                                              |
| Authors of earlier versions of ADCMAN:                                       |
| Andreas Dreuw, Jan Hendrik Starcke, Dirk Rehn, Michael Wormit                |
|                                                                              |
================================================================================

 
 Alpha MOs, Restricted
 -- Occupied --                  
-11.064 -11.062  -0.869  -0.612  -0.486  -0.397  -0.340  -0.206
  1 A1    1 B1    2 A1    2 B1    3 A1    4 A1    3 B1    1 B2                 
 -0.021
  5 A1                                                                         
 -- Virtual --                   
  0.204   0.205   0.238   0.239   0.247   0.269   0.324   0.350
  4 B1    6 A1    1 A2    2 B2    7 A1    5 B1    8 A1    2 A2                 
  0.354   0.451   0.491   0.495   0.502   0.533   0.557   0.578
  6 B1    9 A1   10 A1    7 B1    8 B1   11 A1    3 B2   12 A1                 
  0.593   0.642   0.701   0.781   0.985   1.011   1.084   1.092
  9 B1    3 A2   10 B1   11 B1   13 A1   14 A1   15 A1   12 B1                 
  1.200   1.205   1.280   1.287   1.314   1.348   1.360   1.409
 16 A1   13 B1   17 A1    4 B2   14 B1   18 A1    5 B2    4 A2                 
  1.458   1.470   1.509   1.664   1.797   1.910   1.920   1.929
  5 A2    6 B2   15 B1   16 B1   19 A1    7 B2   20 A1   17 B1                 
  1.961   2.052   2.052   2.115   2.150   2.194   2.262   2.287
 18 B1   21 A1    6 A2    8 B2   19 B1    9 B2   22 A1   23 A1                 
  2.354   2.504   2.586   2.671   2.727   2.765   3.039   3.068
  7 A2   20 B1    8 A2   24 A1   21 B1   22 B1   25 A1   26 A1                 
  3.464   3.528
 23 B1   24 B1                                                                 
 
 Beta MOs, Restricted
 -- Occupied --                  
-11.064 -11.062  -0.869  -0.612  -0.486  -0.397  -0.340  -0.206
  1 A1    1 B1    2 A1    2 B1    3 A1    4 A1    3 B1    1 B2                 
 -0.021
  5 A1                                                                         
 -- Virtual --                   
  0.204   0.205   0.238   0.239   0.247   0.269   0.324   0.350
  4 B1    6 A1    1 A2    2 B2    7 A1    5 B1    8 A1    2 A2                 
  0.354   0.451   0.491   0.495   0.502   0.533   0.557   0.578
  6 B1    9 A1   10 A1    7 B1    8 B1   11 A1    3 B2   12 A1                 
  0.593   0.642   0.701   0.781   0.985   1.011   1.084   1.092
  9 B1    3 A2   10 B1   11 B1   13 A1   14 A1   15 A1   12 B1                 
  1.200   1.205   1.280   1.287   1.314   1.348   1.360   1.409
 16 A1   13 B1   17 A1    4 B2   14 B1   18 A1    5 B2    4 A2                 
  1.458   1.470   1.509   1.664   1.797   1.910   1.920   1.929
  5 A2    6 B2   15 B1   16 B1   19 A1    7 B2   20 A1   17 B1                 
  1.961   2.052   2.052   2.115   2.150   2.194   2.262   2.287
 18 B1   21 A1    6 A2    8 B2   19 B1    9 B2   22 A1   23 A1                 
  2.354   2.504   2.586   2.671   2.727   2.765   3.039   3.068
  7 A2   20 B1    8 A2   24 A1   21 B1   22 B1   25 A1   26 A1                 
  3.464   3.528
 23 B1   24 B1                                                                 

--------------------------------------------------------------------------------
                                   HF Summary                                   
--------------------------------------------------------------------------------
  Energy:                                                  -78.5078622318 a.u.
  Dip. moment [a.u.]:                  [  -0.000000,   -0.000000,   -4.361184]
  Total dipole [Debye]:                                              11.085025
  <r^2> [a.u.]:                        [  52.152991,   16.176687,   81.437971]
  Total <r^2> [a.u.]:                                               149.767649
--------------------------------------------------------------------------------

--------------------------------------------------------------------------------
                                 MP(2) Summary                                  
--------------------------------------------------------------------------------
  MP energy contribution:                                   -0.3066958561 a.u.
  Total energy:                                            -78.8145580879 a.u.
  Dip. moment [a.u.]:                  [  -0.000000,    0.000000,   -4.264171]
  Total dipole [Debye]:                                              10.838445
  <r^2> [a.u.]:                        [  52.443690,   16.110460,   80.857675]
  Total <r^2> [a.u.]:                                               149.411825

  Density matrix analysis:
  ------------------------
  NOs
    Occupation of frontier NOs:
       0.0449   1.9359
    Number of electrons: 18.000000
    Number of unpaired electrons: n_u =  0.45910, n_u,nl =  0.05026
    NO participation ratio (PR_NO): 16.094900
  
  
  Mulliken Population Analysis
  Atom      Charge (e)              h+              e-           Del q
  --------------------------------------------------------------------
   1 C       -0.415516        0.087981       -0.111261       -0.023280
   2 C       -0.415516        0.087981       -0.111261       -0.023280
   3 H        0.193620        0.016865       -0.018802       -0.001937
   4 H        0.193620        0.016865       -0.018802       -0.001937
   5 H        0.056140        0.019751       -0.011341        0.008411
   6 H        0.056140        0.019751       -0.011341        0.008411
   7 H       -0.668487        0.048114       -0.014501        0.033613
  --------------------------------------------------------------------
  Sum:       -1.000000        0.297309       -0.297309       -0.000000
  
  Multipole moment analysis of the density matrix
    Molecular charge:                      -1.000000
    Number of electrons:                   18.000000
      Center of electronic charge [Ang]: [  0.000000,  -0.000000,   0.125361]
    Total nuclear charge:                  17.000000
      Center of nuclear charge [Ang]:    [ -0.000000,   0.000000,   0.000000]
    Dipole moment [D]:                     10.838441
      Cartesian components [D]:          [ -0.000000,   0.000000, -10.838441]
    RMS size of the density [Ang]:         1.519442
      Cartesian components [Ang]:        [  0.903257,   0.500632,   1.114540]
  
  Exciton analysis of the difference density matrix
    <r_h> [Ang]:                  [ -0.000000,  -0.000000,   0.256059]
    <r_e> [Ang]:                  [ -0.000000,  -0.000000,   0.083388]
    |<r_e - r_h>| [Ang]:            0.172671
    Hole size [Ang]:                1.809521
      Cartesian components [Ang]: [  0.957424,   0.757678,   1.335526]
    Electron size [Ang]:            1.731426
      Cartesian components [Ang]: [  1.091084,   0.715331,   1.138277]
--------------------------------------------------------------------------------

--------------------------------------------------------------------------------
                                 MP(3) Summary                                  
--------------------------------------------------------------------------------
  MP energy contribution:                                   -0.0284457839 a.u.
  Total energy:                                            -78.8430038718 a.u.
--------------------------------------------------------------------------------
Less singles guess vectors found than requested: 85 (found), 100 (requested).
Adjusting number of doubles guess vectors to 15.
  Starting Davidson for singlet states of irrep A2 ... 
--------------------------------------------------------------------------------
   It NVec Conv  Avg. Norm  Max. Norm  Conv. states           Remark
--------------------------------------------------------------------------------
       100    0  7.975e-02  3.788e-01  0.1482 n n n n n n n n Guess.
    1  110    0  3.627e-02  2.541e-01  0.0916 n n n n n n n n 
    2  120    0  1.267e-02  7.787e-02  0.0873 n n n n n n n n 
    3  130    0  6.509e-03  4.784e-02  0.0870 n n n n n n n n 
    4  140    0  4.570e-03  3.456e-02  0.0870 n n n n n n n n 
    5  150    0  2.451e-03  2.009e-02  0.0870 n n n n n n n n 
    6  160    0  6.453e-03  6.420e-02  0.0870 n n n n n n n n 
    7  170    0  2.610e-03  2.158e-02  0.0870 n n n n n n n n 
    8  180    2  9.573e-04  8.628e-03  0.0870 y y n n n n n n 
    9  190    3  3.839e-04  3.518e-03  0.0870 y y y n n n n n 
   10  200    5  1.539e-04  1.416e-03  0.0870 y y y y y n n n 
   11   20    8  5.659e-05  5.207e-04  0.0870 y y y y y y y y Subspace collapsed.
   12   30    8  3.740e-05  3.449e-04  0.0870 y y y y y y y y 
   13   40    8  2.519e-05  2.325e-04  0.0870 y y y y y y y y 
   14   50    8  1.233e-05  1.129e-04  0.0870 y y y y y y y y 
   15   60    8  6.687e-06  6.035e-05  0.0870 y y y y y y y y 
   16   70    8  3.427e-06  3.067e-05  0.0870 y y y y y y y y 
   17   80    9  1.730e-06  1.581e-05  0.0870 y y y y y y y y 
   18   90   10  9.294e-07  8.728e-06  0.0870 y y y y y y y y Converged.
--------------------------------------------------------------------------------
  Davidson Summary: 
 ------------------------------------------------------------
  State  0: excitation energy =   0.0870 a.u.   (converged)
  State  1: excitation energy =   0.1713 a.u.   (converged)
  State  2: excitation energy =   0.2502 a.u.   (converged)
  State  3: excitation energy =   0.2770 a.u.   (converged)
  State  4: excitation energy =   0.3185 a.u.   (converged)
  State  5: excitation energy =   0.3438 a.u.   (converged)
  State  6: excitation energy =   0.3487 a.u.   (converged)
  State  7: excitation energy =   0.3622 a.u.   (converged)
  State  8: excitation energy =   0.3754 a.u.   (converged)
  State  9: excitation energy =   0.3764 a.u.   (converged)
 ------------------------------------------------------------


--------------------------------------------------------------------------------
                   State-averaged natural transition orbitals
--------------------------------------------------------------------------------
--------------------------------------------------------------------------------

--------------------------------------------------------------------------------
                             Excited State Summary
--------------------------------------------------------------------------------
--------------------------------------------------------------------------------

  Excited state 1 (singlet, A2)                                    [converged]
  ----------------------------------------------------------------------------
  Term symbol:  1 (1) A2                                    R^2 =  2.71108e-12

  Total energy:                                            -78.7560297432 a.u.
  Excitation energy:                                               2.366686 eV

  Osc. strength:                                                      0.000000
  Trans. dip. moment [a.u.]:           [   0.000000,    0.000000,    0.000000]
  <i|r^2|0> [a.u.]:                    [   0.000000,    0.000000,    0.000000]

  Dip. moment [a.u.]:                  [   0.000000,    0.000000,    0.377263]
  Total dipole [Debye]:                                               0.958907
  <r^2> [a.u.]:                        [  61.731082,   24.782437,   58.556671]
  Total <r^2> [a.u.]:                                               145.070190

  V1^2 = 0.8823, V2^2 = 0.1177

  Important amplitudes:
      occ i      occ j       vir a       vir b          v   
    ---------------------------------------------------------
     5 (A1) A               1 (A2) A                 -0.6095
     5 (A1) A               2 (A2) A                  0.2608
    ---------------------------------------------------------

  Density matrix analysis:
  ------------------------
  NOs
    Occupation of frontier NOs:
       0.9876   0.9901
    Number of electrons: 18.000000
    Number of unpaired electrons: n_u =  2.43645, n_u,nl =  2.05042
    NO participation ratio (PR_NO):  3.014735
  
  
  Mulliken Population Analysis
  Atom      Charge (e)              h+              e-           Del q
  --------------------------------------------------------------------
   1 C       -0.674728        0.301418       -0.560630       -0.259212
   2 C       -0.674728        0.301418       -0.560630       -0.259212
   3 H        0.087527        0.017276       -0.123368       -0.106092
   4 H        0.087527        0.017276       -0.123368       -0.106092
   5 H        0.080580        0.022243        0.002198        0.024440
   6 H        0.080580        0.022243        0.002198        0.024440
   7 H        0.013241        0.753589       -0.071861        0.681728
  --------------------------------------------------------------------
  Sum:       -1.000000        1.435462       -1.435462       -0.000000
  
  Multipole moment analysis of the density matrix
    Molecular charge:                      -1.000000
    Number of electrons:                   18.000000
      Center of electronic charge [Ang]: [ -0.000000,  -0.000000,  -0.011091]
    Total nuclear charge:                  17.000000
      Center of nuclear charge [Ang]:    [ -0.000000,   0.000000,   0.000000]
    Dipole moment [D]:                     0.958907
      Cartesian components [D]:          [  0.000000,   0.000000,   0.958907]
    RMS size of the density [Ang]:         1.502250
      Cartesian components [Ang]:        [  0.979979,   0.620922,   0.954385]
  
  Exciton analysis of the difference density matrix
    <r_h> [Ang]:                  [  0.000000,  -0.000000,   1.883793]
    <r_e> [Ang]:                  [ -0.000000,  -0.000000,   0.172747]
    |<r_e - r_h>| [Ang]:            1.711046
    Hole size [Ang]:                2.049035
      Cartesian components [Ang]: [  0.981786,   0.907668,   1.552668]
    Electron size [Ang]:            2.621148
      Cartesian components [Ang]: [  1.666037,   1.586059,   1.256644]

  Transition density matrix analysis:
  -----------------------------------
  
  CT numbers (Mulliken)
    omega =     0.8640
    <Phe> =     0.0001
  
  Exciton analysis of the transition density matrix
    Trans. dipole moment [D]:             0.000000
      Cartesian components [D]:         [  0.000000,   0.000000,   0.000000]
    <r_h> [Ang]:                        [  0.000000,  -0.000000,   2.636495]
    <r_e> [Ang]:                        [ -0.000000,  -0.000000,  -0.175352]
    |<r_e - r_h>| [Ang]:                  2.811848
    Hole size [Ang]:                      1.435447
      Cartesian components [Ang]:       [  0.772446,   0.753020,   0.946993]
    Electron size [Ang]:                  2.723054
      Cartesian components [Ang]:       [  1.827957,   1.744918,   1.014327]
    RMS electron-hole separation [Ang]:   4.166404
      Cartesian components [Ang]:       [  1.979426,   1.899776,   3.135546]
    Covariance(r_h, r_e) [Ang^2]:         0.011547
    Correlation coefficient:              0.002954
    Center-of-mass size [Ang]:            1.540992
      Cartesian components [Ang]:       [  0.994745,   0.950580,   0.693928]

  Decomposition into state-averaged NTOs
    H- 1 -> L+ 0:  0.6071 ( 73.7%)
    H- 1 -> L+ 2: -0.2500 ( 12.5%)
                   omega =  86.4%
  ----------------------------------------------------------------------------


  Excited state 2 (singlet, A2)                                    [converged]
  ----------------------------------------------------------------------------
  Term symbol:  2 (1) A2                                    R^2 =  4.45114e-11

  Total energy:                                            -78.6717434250 a.u.
  Excitation energy:                                               4.660234 eV

  Osc. strength:                                                      0.000000
  Trans. dip. moment [a.u.]:           [  -0.000000,   -0.000000,    0.000000]
  <i|r^2|0> [a.u.]:                    [   0.000000,    0.000000,   -0.000000]

  Dip. moment [a.u.]:                  [   0.000000,   -0.000000,    0.407893]
  Total dipole [Debye]:                                               1.036761
  <r^2> [a.u.]:                        [  66.575283,   30.134784,   60.165431]
  Total <r^2> [a.u.]:                                               156.875498

  V1^2 = 0.8616, V2^2 = 0.1384

  Important amplitudes:
      occ i      occ j       vir a       vir b          v   
    ---------------------------------------------------------
     5 (A1) A               2 (A2) A                 -0.5861
     5 (A1) A               1 (A2) A                 -0.2809
    ---------------------------------------------------------

  Density matrix analysis:
  ------------------------
  NOs
    Occupation of frontier NOs:
       0.9636   0.9882
    Number of electrons: 18.000000
    Number of unpaired electrons: n_u =  2.49884, n_u,nl =  2.07964
    NO participation ratio (PR_NO):  3.240133
  
  
  Mulliken Population Analysis
  Atom      Charge (e)              h+              e-           Del q
  --------------------------------------------------------------------
   1 C       -0.664296        0.292886       -0.541666       -0.248780
   2 C       -0.664296        0.292886       -0.541666       -0.248780
   3 H        0.082777        0.013188       -0.124032       -0.110843
   4 H        0.082777        0.013188       -0.124032       -0.110843
   5 H        0.071462        0.018765       -0.003443        0.015322
   6 H        0.071462        0.018765       -0.003443        0.015322
   7 H        0.020115        0.756502       -0.067899        0.688603
  --------------------------------------------------------------------
  Sum:       -1.000000        1.406180       -1.406180       -0.000000
  
  Multipole moment analysis of the density matrix
    Molecular charge:                      -1.000000
    Number of electrons:                   18.000000
      Center of electronic charge [Ang]: [ -0.000000,   0.000000,  -0.011992]
    Total nuclear charge:                  17.000000
      Center of nuclear charge [Ang]:    [ -0.000000,   0.000000,   0.000000]
    Dipole moment [D]:                     1.036761
      Cartesian components [D]:          [  0.000000,  -0.000000,   1.036761]
    RMS size of the density [Ang]:         1.562175
      Cartesian components [Ang]:        [  1.017704,   0.684698,   0.967398]
  
  Exciton analysis of the difference density matrix
    <r_h> [Ang]:                  [  0.000000,  -0.000000,   1.925448]
    <r_e> [Ang]:                  [ -0.000000,   0.000000,   0.167245]
    |<r_e - r_h>| [Ang]:            1.758202
    Hole size [Ang]:                2.009399
      Cartesian components [Ang]: [  0.960400,   0.881341,   1.529233]
    Electron size [Ang]:            3.033708
      Cartesian components [Ang]: [  1.933016,   1.889334,   1.377408]

  Transition density matrix analysis:
  -----------------------------------
  
  CT numbers (Mulliken)
    omega =     0.8459
    <Phe> =    -0.0002
  
  Exciton analysis of the transition density matrix
    Trans. dipole moment [D]:             0.000000
      Cartesian components [D]:         [ -0.000000,  -0.000000,   0.000000]
    <r_h> [Ang]:                        [  0.000000,  -0.000000,   2.639271]
    <r_e> [Ang]:                        [ -0.000000,   0.000000,  -0.175668]
    |<r_e - r_h>| [Ang]:                  2.814939
    Hole size [Ang]:                      1.432717
      Cartesian components [Ang]:       [  0.772014,   0.753092,   0.943146]
    Electron size [Ang]:                  3.306051
      Cartesian components [Ang]:       [  2.191428,   2.142003,   1.240741]
    RMS electron-hole separation [Ang]:   4.570654
      Cartesian components [Ang]:       [  2.321278,   2.269434,   3.217486]
    Covariance(r_h, r_e) [Ang^2]:         0.007827
    Correlation coefficient:              0.001652
    Center-of-mass size [Ang]:            1.802658
      Cartesian components [Ang]:       [  1.162797,   1.135817,   0.779358]

  Decomposition into state-averaged NTOs
    H- 1 -> L+ 2: -0.6115 ( 74.8%)
    H- 1 -> L+ 0: -0.2207 (  9.7%)
                   omega =  84.6%
  ----------------------------------------------------------------------------


  Excited state 3 (singlet, A2)                                    [converged]
  ----------------------------------------------------------------------------
  Term symbol:  3 (1) A2                                    R^2 =  2.76796e-10

  Total energy:                                            -78.5927626016 a.u.
  Excitation energy:                                               6.809411 eV

  Osc. strength:                                                      0.000000
  Trans. dip. moment [a.u.]:           [  -0.000000,   -0.000000,    0.000000]
  <i|r^2|0> [a.u.]:                    [  -0.000000,   -0.000000,   -0.000000]

  Dip. moment [a.u.]:                  [  -0.000000,    0.000000,   -2.623472]
  Total dipole [Debye]:                                               6.668201
  <r^2> [a.u.]:                        [  78.191585,   19.951712,   86.308305]
  Total <r^2> [a.u.]:                                               184.451602

  V1^2 = 0.9257, V2^2 = 0.0743

  Important amplitudes:
      occ i      occ j       vir a       vir b          v   
    ---------------------------------------------------------
     1 (B2) A               4 (B1) A                  0.6669
     1 (B2) A               8 (B1) A                 -0.0961
    ---------------------------------------------------------

  Density matrix analysis:
  ------------------------
  NOs
    Occupation of frontier NOs:
       0.9758   0.9792
    Number of electrons: 18.000000
    Number of unpaired electrons: n_u =  2.36482, n_u,nl =  2.03366
    NO participation ratio (PR_NO):  2.912472
  
  
  Mulliken Population Analysis
  Atom      Charge (e)              h+              e-           Del q
  --------------------------------------------------------------------
   1 C       -0.540452        0.524025       -0.648962       -0.124937
   2 C       -0.540452        0.524025       -0.648962       -0.124937
   3 H        0.230427        0.063826       -0.027019        0.036807
   4 H        0.230427        0.063826       -0.027019        0.036807
   5 H        0.118880        0.119609       -0.056869        0.062740
   6 H        0.118880        0.119609       -0.056869        0.062740
   7 H       -0.617708        0.075618       -0.024838        0.050780
  --------------------------------------------------------------------
  Sum:       -1.000000        1.490538       -1.490538       -0.000000
  
  Multipole moment analysis of the density matrix
    Molecular charge:                      -1.000000
    Number of electrons:                   18.000000
      Center of electronic charge [Ang]: [  0.000000,  -0.000000,   0.077127]
    Total nuclear charge:                  17.000000
      Center of nuclear charge [Ang]:    [ -0.000000,   0.000000,   0.000000]
    Dipole moment [D]:                     6.668199
      Cartesian components [D]:          [ -0.000000,   0.000000,  -6.668199]
    RMS size of the density [Ang]:         1.692215
      Cartesian components [Ang]:        [  1.102922,   0.557128,   1.156184]
  
  Exciton analysis of the difference density matrix
    <r_h> [Ang]:                  [ -0.000000,   0.000000,  -0.055785]
    <r_e> [Ang]:                  [  0.000000,  -0.000000,  -0.638274]
    |<r_e - r_h>| [Ang]:            0.582488
    Hole size [Ang]:                1.792110
      Cartesian components [Ang]: [  1.050169,   0.882677,   1.153120]
    Electron size [Ang]:            3.064364
      Cartesian components [Ang]: [  2.437238,   1.225063,   1.396216]

  Transition density matrix analysis:
  -----------------------------------
  
  CT numbers (Mulliken)
    omega =     0.8952
    <Phe> =    -0.0035
  
  Exciton analysis of the transition density matrix
    Trans. dipole moment [D]:             0.000000
      Cartesian components [D]:         [ -0.000000,  -0.000000,   0.000000]
    <r_h> [Ang]:                        [  0.000000,   0.000000,  -0.184064]
    <r_e> [Ang]:                        [  0.000000,  -0.000000,  -1.008156]
    |<r_e - r_h>| [Ang]:                  0.824092
    Hole size [Ang]:                      1.279872
      Cartesian components [Ang]:       [  0.765050,   0.883375,   0.521939]
    Electron size [Ang]:                  3.511626
      Cartesian components [Ang]:       [  2.896799,   1.429888,   1.376768]
    RMS electron-hole separation [Ang]:   3.813283
      Cartesian components [Ang]:       [  2.982538,   1.673564,   1.686648]
    Covariance(r_h, r_e) [Ang^2]:         0.053793
    Correlation coefficient:              0.011969
    Center-of-mass size [Ang]:            1.875978
      Cartesian components [Ang]:       [  1.504822,   0.843956,   0.736575]

  Decomposition into state-averaged NTOs
    H- 0 -> L+ 1:  0.6350 ( 80.6%)
    H- 0 -> L+ 3: -0.2094 (  8.8%)
                   omega =  89.5%
  ----------------------------------------------------------------------------


  Excited state 4 (singlet, A2)                                    [converged]
  ----------------------------------------------------------------------------
  Term symbol:  4 (1) A2                                    R^2 =  3.95429e-09

  Total energy:                                            -78.5660327314 a.u.
  Excitation energy:                                               7.536768 eV

  Osc. strength:                                                      0.000000
  Trans. dip. moment [a.u.]:           [   0.000000,    0.000000,   -0.000000]
  <i|r^2|0> [a.u.]:                    [  -0.000000,   -0.000000,    0.000000]

  Dip. moment [a.u.]:                  [  -0.000000,    0.000000,    1.070017]
  Total dipole [Debye]:                                               2.719712
  <r^2> [a.u.]:                        [  62.017296,   39.586456,   61.337882]
  Total <r^2> [a.u.]:                                               162.941633

  V1^2 = 0.0353, V2^2 = 0.9647

  Important amplitudes:
      occ i      occ j       vir a       vir b          v   
    ---------------------------------------------------------
     5 (A1) A   1 (B2) B    2 (A2) A    2 (B2) B      0.2171
     5 (A1) A   1 (B2) B    1 (A2) A    2 (B2) B     -0.1614
    ---------------------------------------------------------

  Density matrix analysis:
  ------------------------
  NOs
    Occupation of frontier NOs:
       0.9760   1.0068
    Number of electrons: 18.000000
    Number of unpaired electrons: n_u =  4.05259, n_u,nl =  3.92875
    NO participation ratio (PR_NO):  4.883266
  
  
  Mulliken Population Analysis
  Atom      Charge (e)              h+              e-           Del q
  --------------------------------------------------------------------
   1 C       -0.816622        0.570312       -0.971419       -0.401107
   2 C       -0.816622        0.570312       -0.971419       -0.401107
   3 H        0.184316        0.008803       -0.018107       -0.009304
   4 H        0.184316        0.008803       -0.018107       -0.009304
   5 H        0.047876        0.003541       -0.011805       -0.008264
   6 H        0.047876        0.003541       -0.011805       -0.008264
   7 H        0.168861        0.839907       -0.002559        0.837348
  --------------------------------------------------------------------
  Sum:       -1.000000        2.005219       -2.005219       -0.000000
  
  Multipole moment analysis of the density matrix
    Molecular charge:                      -1.000000
    Number of electrons:                   18.000000
      Center of electronic charge [Ang]: [  0.000000,  -0.000000,  -0.031457]
    Total nuclear charge:                  17.000000
      Center of nuclear charge [Ang]:    [ -0.000000,   0.000000,   0.000000]
    Dipole moment [D]:                     2.719711
      Cartesian components [D]:          [ -0.000000,   0.000000,   2.719711]
    RMS size of the density [Ang]:         1.591828
      Cartesian components [Ang]:        [  0.982248,   0.784762,   0.976346]
  
  Exciton analysis of the difference density matrix
    <r_h> [Ang]:                  [  0.000000,   0.000000,   1.245481]
    <r_e> [Ang]:                  [  0.000000,  -0.000000,  -0.162211]
    |<r_e - r_h>| [Ang]:            1.407692
    Hole size [Ang]:                1.985706
      Cartesian components [Ang]: [  0.779454,   0.853879,   1.614426]
    Electron size [Ang]:            2.712448
      Cartesian components [Ang]: [  1.394454,   2.001881,   1.185473]

  Transition density matrix analysis:
  -----------------------------------
  
  CT numbers (Mulliken)
    omega =     0.0346
    <Phe> =    -0.0010
  
  Exciton analysis of the transition density matrix
    Trans. dipole moment [D]:             0.000000
      Cartesian components [D]:         [  0.000000,  -0.000000,  -0.000000]
    <r_h> [Ang]:                        [  0.000000,   0.000000,   2.474522]
    <r_e> [Ang]:                        [ -0.000000,   0.000000,  -0.176000]
    |<r_e - r_h>| [Ang]:                  2.650521
    Hole size [Ang]:                      1.579338
      Cartesian components [Ang]:       [  0.798077,   0.743915,   1.141916]
    Electron size [Ang]:                  2.884614
      Cartesian components [Ang]:       [  1.910310,   1.865936,   1.090869]
    RMS electron-hole separation [Ang]:   4.225077
      Cartesian components [Ang]:       [  2.073204,   2.009585,   3.084586]
    Covariance(r_h, r_e) [Ang^2]:        -0.005353
    Correlation coefficient:             -0.001175
    Center-of-mass size [Ang]:            1.643518
      Cartesian components [Ang]:       [  1.033713,   1.003970,   0.790337]

  Decomposition into state-averaged NTOs
    H- 1 -> L+ 0:  0.0826 (  1.4%)
    H- 1 -> L+ 2:  0.0807 (  1.3%)
                   omega =   3.5%
  ----------------------------------------------------------------------------


  Excited state 5 (singlet, A2)                                    [converged]
  ----------------------------------------------------------------------------
  Term symbol:  5 (1) A2                                    R^2 =  1.28798e-08

  Total energy:                                            -78.5244618049 a.u.
  Excitation energy:                                               8.667970 eV

  Osc. strength:                                                      0.000000
  Trans. dip. moment [a.u.]:           [  -0.000000,    0.000000,    0.000000]
  <i|r^2|0> [a.u.]:                    [  -0.000000,   -0.000000,   -0.000000]

  Dip. moment [a.u.]:                  [   0.000000,    0.000000,   -4.265103]
  Total dipole [Debye]:                                              10.840811
  <r^2> [a.u.]:                        [  73.514444,   19.562929,   92.504962]
  Total <r^2> [a.u.]:                                               185.582334

  V1^2 = 0.8985, V2^2 = 0.1015

  Important amplitudes:
      occ i      occ j       vir a       vir b          v   
    ---------------------------------------------------------
     1 (B2) A               5 (B1) A                  0.6609
     1 (B2) A               9 (B1) A                  0.0936
    ---------------------------------------------------------

  Density matrix analysis:
  ------------------------
  NOs
    Occupation of frontier NOs:
       0.9690   0.9777
    Number of electrons: 18.000000
    Number of unpaired electrons: n_u =  2.40294, n_u,nl =  2.04148
    NO participation ratio (PR_NO):  3.028789
  
  
  Mulliken Population Analysis
  Atom      Charge (e)              h+              e-           Del q
  --------------------------------------------------------------------
   1 C       -0.577208        0.522085       -0.683778       -0.161692
   2 C       -0.577208        0.522085       -0.683778       -0.161692
   3 H        0.224936        0.076025       -0.044708        0.031316
   4 H        0.224936        0.076025       -0.044708        0.031316
   5 H        0.118346        0.098690       -0.036484        0.062206
   6 H        0.118346        0.098690       -0.036484        0.062206
   7 H       -0.532147        0.152774       -0.016434        0.136340
  --------------------------------------------------------------------
  Sum:       -1.000000        1.546374       -1.546374       -0.000000
  
  Multipole moment analysis of the density matrix
    Molecular charge:                      -1.000000
    Number of electrons:                   18.000000
      Center of electronic charge [Ang]: [ -0.000000,  -0.000000,   0.125389]
    Total nuclear charge:                  17.000000
      Center of nuclear charge [Ang]:    [ -0.000000,   0.000000,   0.000000]
    Dipole moment [D]:                     10.840808
      Cartesian components [D]:          [  0.000000,   0.000000, -10.840808]
    RMS size of the density [Ang]:         1.694523
      Cartesian components [Ang]:        [  1.069427,   0.551673,   1.193059]
  
  Exciton analysis of the difference density matrix
    <r_h> [Ang]:                  [ -0.000000,   0.000000,   0.106029]
    <r_e> [Ang]:                  [ -0.000000,  -0.000000,   0.106348]
    |<r_e - r_h>| [Ang]:            0.000319
    Hole size [Ang]:                1.864669
      Cartesian components [Ang]: [  1.033796,   0.876305,   1.280760]
    Electron size [Ang]:            3.166534
      Cartesian components [Ang]: [  2.210063,   1.180300,   1.936351]

  Transition density matrix analysis:
  -----------------------------------
  
  CT numbers (Mulliken)
    omega =     0.8688
    <Phe> =    -0.0010
  
  Exciton analysis of the transition density matrix
    Trans. dipole moment [D]:             0.000000
      Cartesian components [D]:         [ -0.000000,   0.000000,   0.000000]
    <r_h> [Ang]:                        [  0.000000,   0.000000,  -0.183479]
    <r_e> [Ang]:                        [ -0.000000,  -0.000000,   0.045247]
    |<r_e - r_h>| [Ang]:                  0.228726
    Hole size [Ang]:                      1.279792
      Cartesian components [Ang]:       [  0.764730,   0.883771,   0.521541]
    Electron size [Ang]:                  3.709584
      Cartesian components [Ang]:       [  2.614493,   1.339659,   2.265117]
    RMS electron-hole separation [Ang]:   3.922817
      Cartesian components [Ang]:       [  2.713053,   1.604746,   2.335086]
    Covariance(r_h, r_e) [Ang^2]:         0.031350
    Correlation coefficient:              0.006604
    Center-of-mass size [Ang]:            1.966061
      Cartesian components [Ang]:       [  1.367490,   0.802537,   1.162455]

  Decomposition into state-averaged NTOs
    H- 0 -> L+ 3:  0.6237 ( 77.8%)
    H- 0 -> L+ 1:  0.2120 (  9.0%)
                   omega =  86.9%
  ----------------------------------------------------------------------------


  Excited state 6 (singlet, A2)                                    [converged]
  ----------------------------------------------------------------------------
  Term symbol:  6 (1) A2                                    R^2 =  1.74626e-08

  Total energy:                                            -78.4992319859 a.u.
  Excitation energy:                                               9.354509 eV

  Osc. strength:                                                      0.000000
  Trans. dip. moment [a.u.]:           [  -0.000000,    0.000000,   -0.000000]
  <i|r^2|0> [a.u.]:                    [   0.000000,    0.000000,   -0.000000]

  Dip. moment [a.u.]:                  [   0.000000,    0.000000,   -4.141692]
  Total dipole [Debye]:                                              10.527134
  <r^2> [a.u.]:                        [  53.309989,   19.365361,   80.234178]
  Total <r^2> [a.u.]:                                               152.909529

  V1^2 = 0.9308, V2^2 = 0.0692

  Important amplitudes:
      occ i      occ j       vir a       vir b          v   
    ---------------------------------------------------------
     4 (A1) A               2 (A2) A                 -0.4799
     4 (A1) A               1 (A2) A                  0.4603
    ---------------------------------------------------------

  Density matrix analysis:
  ------------------------
  NOs
    Occupation of frontier NOs:
       0.9917   1.0234
    Number of electrons: 18.000000
    Number of unpaired electrons: n_u =  2.45116, n_u,nl =  2.05473
    NO participation ratio (PR_NO):  3.078072
  
  
  Mulliken Population Analysis
  Atom      Charge (e)              h+              e-           Del q
  --------------------------------------------------------------------
   1 C       -0.525571        0.441650       -0.551706       -0.110056
   2 C       -0.525571        0.441650       -0.551706       -0.110056
   3 H        0.238990        0.062846       -0.017476        0.045371
   4 H        0.238990        0.062846       -0.017476        0.045371
   5 H        0.115080        0.067102       -0.008162        0.058940
   6 H        0.115080        0.067102       -0.008162        0.058940
   7 H       -0.656997        0.017870       -0.006380        0.011490
  --------------------------------------------------------------------
  Sum:       -1.000000        1.161067       -1.161067       -0.000000
  
  Multipole moment analysis of the density matrix
    Molecular charge:                      -1.000000
    Number of electrons:                   18.000000
      Center of electronic charge [Ang]: [ -0.000000,  -0.000000,   0.121761]
    Total nuclear charge:                  17.000000
      Center of nuclear charge [Ang]:    [ -0.000000,   0.000000,   0.000000]
    Dipole moment [D]:                     10.527130
      Cartesian components [D]:          [  0.000000,   0.000000, -10.527130]
    RMS size of the density [Ang]:         1.537534
      Cartesian components [Ang]:        [  0.910687,   0.548880,   1.110580]
  
  Exciton analysis of the difference density matrix
    <r_h> [Ang]:                  [  0.000000,  -0.000000,  -0.103943]
    <r_e> [Ang]:                  [ -0.000000,  -0.000000,  -0.159765]
    |<r_e - r_h>| [Ang]:            0.055822
    Hole size [Ang]:                1.484669
      Cartesian components [Ang]: [  1.114433,   0.545974,   0.814981]
    Electron size [Ang]:            1.741581
      Cartesian components [Ang]: [  1.204532,   1.040726,   0.706468]

  Transition density matrix analysis:
  -----------------------------------
  
  CT numbers (Mulliken)
    omega =     0.8992
    <Phe> =    -0.0152
  
  Exciton analysis of the transition density matrix
    Trans. dipole moment [D]:             0.000000
      Cartesian components [D]:         [ -0.000000,   0.000000,  -0.000000]
    <r_h> [Ang]:                        [ -0.000000,  -0.000000,  -0.136149]
    <r_e> [Ang]:                        [ -0.000000,  -0.000000,  -0.184763]
    |<r_e - r_h>| [Ang]:                  0.048614
    Hole size [Ang]:                      1.300954
      Cartesian components [Ang]:       [  1.074687,   0.414095,   0.605025]
    Electron size [Ang]:                  1.771351
      Cartesian components [Ang]:       [  1.239038,   1.087004,   0.648762]
    RMS electron-hole separation [Ang]:   2.182020
      Cartesian components [Ang]:       [  1.617024,   1.164934,   0.888468]
    Covariance(r_h, r_e) [Ang^2]:         0.035658
    Correlation coefficient:              0.015473
    Center-of-mass size [Ang]:            1.106964
      Cartesian components [Ang]:       [  0.831499,   0.580739,   0.443532]

  Decomposition into state-averaged NTOs
    H- 2 -> L+ 0: -0.6661 ( 88.7%)
                   omega =  89.9%
  ----------------------------------------------------------------------------


  Excited state 7 (singlet, A2)                                    [converged]
  ----------------------------------------------------------------------------
  Term symbol:  7 (1) A2                                    R^2 =  4.68976e-08

  Total energy:                                            -78.4942974467 a.u.
  Excitation energy:                                               9.488784 eV

  Osc. strength:                                                      0.000000
  Trans. dip. moment [a.u.]:           [   0.000000,   -0.000000,   -0.000000]
  <i|r^2|0> [a.u.]:                    [  -0.000000,    0.000000,   -0.000000]

  Dip. moment [a.u.]:                  [   0.000000,    0.000000,    1.530172]
  Total dipole [Debye]:                                               3.889310
  <r^2> [a.u.]:                        [  94.026912,   27.149751,   73.747979]
  Total <r^2> [a.u.]:                                               194.924642

  V1^2 = 0.0213, V2^2 = 0.9787

  Important amplitudes:
      occ i      occ j       vir a       vir b          v   
    ---------------------------------------------------------
     5 (A1) A   1 (B2) A    6 (A1) A    4 (B1) A      0.1911
     5 (A1) A   1 (B2) B    6 (A1) A    4 (B1) B      0.1486
    ---------------------------------------------------------

  Density matrix analysis:
  ------------------------
  NOs
    Occupation of frontier NOs:
       0.8902   0.9401
    Number of electrons: 18.000000
    Number of unpaired electrons: n_u =  4.18050, n_u,nl =  4.00344
    NO participation ratio (PR_NO):  5.409312
  
  
  Mulliken Population Analysis
  Atom      Charge (e)              h+              e-           Del q
  --------------------------------------------------------------------
   1 C       -0.809930        0.559943       -0.954357       -0.394414
   2 C       -0.809930        0.559943       -0.954357       -0.394414
   3 H        0.155216        0.008794       -0.047198       -0.038404
   4 H        0.155216        0.008794       -0.047198       -0.038404
   5 H        0.076117        0.006761        0.013217        0.019978
   6 H        0.076117        0.006761        0.013217        0.019978
   7 H        0.157193        0.840080       -0.014400        0.825680
  --------------------------------------------------------------------
  Sum:       -1.000000        1.991076       -1.991076       -0.000000
  
  Multipole moment analysis of the density matrix
    Molecular charge:                      -1.000000
    Number of electrons:                   18.000000
      Center of electronic charge [Ang]: [ -0.000000,  -0.000000,  -0.044985]
    Total nuclear charge:                  17.000000
      Center of nuclear charge [Ang]:    [ -0.000000,   0.000000,   0.000000]
    Dipole moment [D]:                     3.889309
      Cartesian components [D]:          [  0.000000,   0.000000,   3.889309]
    RMS size of the density [Ang]:         1.740818
      Cartesian components [Ang]:        [  1.209458,   0.649902,   1.070179]
  
  Exciton analysis of the difference density matrix
    <r_h> [Ang]:                  [ -0.000000,   0.000000,   1.232737]
    <r_e> [Ang]:                  [ -0.000000,  -0.000000,  -0.307252]
    |<r_e - r_h>| [Ang]:            1.539989
    Hole size [Ang]:                1.951996
      Cartesian components [Ang]: [  0.763699,   0.817029,   1.599849]
    Electron size [Ang]:            3.411236
      Cartesian components [Ang]: [  2.536055,   1.490008,   1.727667]

  Transition density matrix analysis:
  -----------------------------------
  
  CT numbers (Mulliken)
    omega =     0.0206
    <Phe> =    -0.0055
  
  Exciton analysis of the transition density matrix
    Trans. dipole moment [D]:             0.000000
      Cartesian components [D]:         [  0.000000,  -0.000000,  -0.000000]
    <r_h> [Ang]:                        [ -0.000000,   0.000000,  -0.139366]
    <r_e> [Ang]:                        [ -0.000000,   0.000000,   0.121806]
    |<r_e - r_h>| [Ang]:                  0.261172
    Hole size [Ang]:                      1.320740
      Cartesian components [Ang]:       [  0.782298,   0.856524,   0.631453]
    Electron size [Ang]:                  3.605683
      Cartesian components [Ang]:       [  2.843305,   1.274108,   1.814722]
    RMS electron-hole separation [Ang]:   3.849446
      Cartesian components [Ang]:       [  2.946136,   1.534945,   1.944855]
    Covariance(r_h, r_e) [Ang^2]:        -0.002359
    Correlation coefficient:             -0.000495
    Center-of-mass size [Ang]:            1.919674
      Cartesian components [Ang]:       [  1.475892,   0.767775,   0.957816]

  Decomposition into state-averaged NTOs
    H- 0 -> L+ 3: -0.0951 (  1.8%)
                   omega =   2.1%
  ----------------------------------------------------------------------------


  Excited state 8 (singlet, A2)                                    [converged]
  ----------------------------------------------------------------------------
  Term symbol:  8 (1) A2                                    R^2 =  4.71923e-08

  Total energy:                                            -78.4807826539 a.u.
  Excitation energy:                                               9.856541 eV

  Osc. strength:                                                      0.000000
  Trans. dip. moment [a.u.]:           [   0.000000,   -0.000000,   -0.000000]
  <i|r^2|0> [a.u.]:                    [   0.000000,    0.000000,    0.000000]

  Dip. moment [a.u.]:                  [   0.000000,    0.000000,    1.950934]
  Total dipole [Debye]:                                               4.958782
  <r^2> [a.u.]:                        [  91.687257,   26.774215,   75.222576]
  Total <r^2> [a.u.]:                                               193.684047

  V1^2 = 0.0031, V2^2 = 0.9969

  Important amplitudes:
      occ i      occ j       vir a       vir b          v   
    ---------------------------------------------------------
     5 (A1) A   1 (B2) B    4 (B1) A    6 (A1) B      0.1659
     5 (A1) A   1 (B2) A    6 (A1) A    4 (B1) A     -0.1497
    ---------------------------------------------------------

  Density matrix analysis:
  ------------------------
  NOs
    Occupation of frontier NOs:
       0.8781   0.9361
    Number of electrons: 18.000000
    Number of unpaired electrons: n_u =  4.29179, n_u,nl =  4.06540
    NO participation ratio (PR_NO):  5.451968
  
  
  Mulliken Population Analysis
  Atom      Charge (e)              h+              e-           Del q
  --------------------------------------------------------------------
   1 C       -0.781396        0.562363       -0.928243       -0.365880
   2 C       -0.781396        0.562363       -0.928243       -0.365880
   3 H        0.151781        0.010033       -0.051872       -0.041839
   4 H        0.151781        0.010033       -0.051872       -0.041839
   5 H        0.043166        0.003968       -0.016942       -0.012974
   6 H        0.043166        0.003968       -0.016942       -0.012974
   7 H        0.172899        0.844263       -0.002877        0.841386
  --------------------------------------------------------------------
  Sum:       -1.000000        1.996991       -1.996991       -0.000000
  
  Multipole moment analysis of the density matrix
    Molecular charge:                      -1.000000
    Number of electrons:                   18.000000
      Center of electronic charge [Ang]: [ -0.000000,  -0.000000,  -0.057355]
    Total nuclear charge:                  17.000000
      Center of nuclear charge [Ang]:    [ -0.000000,   0.000000,   0.000000]
    Dipole moment [D]:                     4.958780
      Cartesian components [D]:          [  0.000000,   0.000000,   4.958780]
    RMS size of the density [Ang]:         1.734901
      Cartesian components [Ang]:        [  1.194316,   0.645392,   1.080259]
  
  Exciton analysis of the difference density matrix
    <r_h> [Ang]:                  [  0.000000,   0.000000,   1.248862]
    <r_e> [Ang]:                  [ -0.000000,  -0.000000,  -0.398062]
    |<r_e - r_h>| [Ang]:            1.646924
    Hole size [Ang]:                1.950670
      Cartesian components [Ang]: [  0.753117,   0.813726,   1.604923]
    Electron size [Ang]:            3.378521
      Cartesian components [Ang]: [  2.463762,   1.468836,   1.785161]

  Transition density matrix analysis:
  -----------------------------------
  
  CT numbers (Mulliken)
    omega =     0.0030
    <Phe> =    -0.0019
  
  Exciton analysis of the transition density matrix
    Trans. dipole moment [D]:             0.000000
      Cartesian components [D]:         [  0.000000,  -0.000000,  -0.000000]
    <r_h> [Ang]:                        [ -0.000000,  -0.000000,   0.067479]
    <r_e> [Ang]:                        [ -0.000000,  -0.000000,  -0.789932]
    |<r_e - r_h>| [Ang]:                  0.857412
    Hole size [Ang]:                      1.525456
      Cartesian components [Ang]:       [  0.772691,   0.871422,   0.985184]
    Electron size [Ang]:                  3.355245
      Cartesian components [Ang]:       [  2.356011,   1.729536,   1.647904]
    RMS electron-hole separation [Ang]:   3.740574
      Cartesian components [Ang]:       [  2.478912,   1.932908,   2.027499]
    Covariance(r_h, r_e) [Ang^2]:         0.163974
    Correlation coefficient:              0.032037
    Center-of-mass size [Ang]:            1.864982
      Cartesian components [Ang]:       [  1.240027,   0.970207,   0.999594]

  Decomposition into state-averaged NTOs
                   omega =   0.3%
  ----------------------------------------------------------------------------


  Excited state 9 (singlet, A2)                                    [converged]
  ----------------------------------------------------------------------------
  Term symbol:  9 (1) A2                                    R^2 =  8.72822e-06

  Total energy:                                            -78.4676300848 a.u.
  Excitation energy:                                              10.214440 eV

  Osc. strength:                                                      0.000000
  Trans. dip. moment [a.u.]:           [  -0.000000,    0.000000,    0.000000]
  <i|r^2|0> [a.u.]:                    [   0.000000,   -0.000000,    0.000000]

  Dip. moment [a.u.]:                  [  -0.000000,    0.000000,   -2.534619]
  Total dipole [Debye]:                                               6.442361
  <r^2> [a.u.]:                        [  64.944997,   36.335928,   78.972572]
  Total <r^2> [a.u.]:                                               180.253497

  V1^2 = 0.6262, V2^2 = 0.3738

  Important amplitudes:
      occ i      occ j       vir a       vir b          v   
    ---------------------------------------------------------
     3 (B1) A               2 (B2) A                  0.5503
     5 (A1) A   1 (B2) B    4 (B1) A    8 (A1) B      0.0878
    ---------------------------------------------------------

  Density matrix analysis:
  ------------------------
  NOs
    Occupation of frontier NOs:
       0.7403   1.3187
    Number of electrons: 18.000000
    Number of unpaired electrons: n_u =  3.12525, n_u,nl =  2.76036
    NO participation ratio (PR_NO):  7.021125
  
  
  Mulliken Population Analysis
  Atom      Charge (e)              h+              e-           Del q
  --------------------------------------------------------------------
   1 C       -0.721112        0.392881       -0.698478       -0.305596
   2 C       -0.721112        0.392881       -0.698478       -0.305596
   3 H        0.258192        0.082667       -0.018095        0.064572
   4 H        0.258192        0.082667       -0.018095        0.064572
   5 H        0.154234        0.112529       -0.014435        0.098095
   6 H        0.154234        0.112529       -0.014435        0.098095
   7 H       -0.382628        0.302994       -0.017134        0.285860
  --------------------------------------------------------------------
  Sum:       -1.000000        1.479149       -1.479149       -0.000000
  
  Multipole moment analysis of the density matrix
    Molecular charge:                      -1.000000
    Number of electrons:                   18.000000
      Center of electronic charge [Ang]: [  0.000000,  -0.000000,   0.074515]
    Total nuclear charge:                  17.000000
      Center of nuclear charge [Ang]:    [ -0.000000,   0.000000,   0.000000]
    Dipole moment [D]:                     6.442359
      Cartesian components [D]:          [ -0.000000,   0.000000,  -6.442359]
    RMS size of the density [Ang]:         1.672925
      Cartesian components [Ang]:        [  1.005166,   0.751853,   1.105909]
  
  Exciton analysis of the difference density matrix
    <r_h> [Ang]:                  [ -0.000000,   0.000000,   0.516882]
    <r_e> [Ang]:                  [  0.000000,  -0.000000,  -0.101879]
    |<r_e - r_h>| [Ang]:            0.618761
    Hole size [Ang]:                2.003084
      Cartesian components [Ang]: [  1.028686,   0.719941,   1.560717]
    Electron size [Ang]:            3.179307
      Cartesian components [Ang]: [  1.850651,   2.085029,   1.528314]

  Transition density matrix analysis:
  -----------------------------------
  
  CT numbers (Mulliken)
    omega =     0.6152
    <Phe> =    -0.0002
  
  Exciton analysis of the transition density matrix
    Trans. dipole moment [D]:             0.000000
      Cartesian components [D]:         [ -0.000000,   0.000000,   0.000000]
    <r_h> [Ang]:                        [ -0.000000,   0.000000,  -0.116847]
    <r_e> [Ang]:                        [  0.000000,   0.000000,  -0.177775]
    |<r_e - r_h>| [Ang]:                  0.060928
    Hole size [Ang]:                      1.524134
      Cartesian components [Ang]:       [  1.126092,   0.421389,   0.936660]
    Electron size [Ang]:                  3.370681
      Cartesian components [Ang]:       [  1.558168,   2.587722,   1.495761]
    RMS electron-hole separation [Ang]:   3.649619
      Cartesian components [Ang]:       [  1.825217,   2.621237,   1.765621]
    Covariance(r_h, r_e) [Ang^2]:         0.184233
    Correlation coefficient:              0.035861
    Center-of-mass size [Ang]:            1.874363
      Cartesian components [Ang]:       [  1.007537,   1.311188,   0.882547]

  Decomposition into state-averaged NTOs
    H- 3 -> L+ 4:  0.5524 ( 61.0%)
                   omega =  61.5%
  ----------------------------------------------------------------------------


  Excited state 10 (singlet, A2)                                    [converged]
  ----------------------------------------------------------------------------
  Term symbol:  10 (1) A2                                   R^2 =  3.19154e-06

  Total energy:                                            -78.4666315618 a.u.
  Excitation energy:                                              10.241611 eV

  Osc. strength:                                                      0.000000
  Trans. dip. moment [a.u.]:           [  -0.000000,    0.000000,   -0.000000]
  <i|r^2|0> [a.u.]:                    [  -0.000000,   -0.000000,   -0.000000]

  Dip. moment [a.u.]:                  [  -0.000000,    0.000000,   -0.867141]
  Total dipole [Debye]:                                               2.204053
  <r^2> [a.u.]:                        [  79.453083,   31.386536,   76.549290]
  Total <r^2> [a.u.]:                                               187.388910

  V1^2 = 0.2734, V2^2 = 0.7266

  Important amplitudes:
      occ i      occ j       vir a       vir b          v   
    ---------------------------------------------------------
     3 (B1) A               2 (B2) A                 -0.3490
     5 (A1) A   1 (B2) B    4 (B1) A    8 (A1) B      0.1446
    ---------------------------------------------------------

  Density matrix analysis:
  ------------------------
  NOs
    Occupation of frontier NOs:
       0.6212   1.2070
    Number of electrons: 18.000000
    Number of unpaired electrons: n_u =  3.87738, n_u,nl =  3.70774
    NO participation ratio (PR_NO):  7.574556
  
  
  Mulliken Population Analysis
  Atom      Charge (e)              h+              e-           Del q
  --------------------------------------------------------------------
   1 C       -0.739551        0.489861       -0.813896       -0.324035
   2 C       -0.739551        0.489861       -0.813896       -0.324035
   3 H        0.211422        0.034647       -0.016845        0.017802
   4 H        0.211422        0.034647       -0.016845        0.017802
   5 H        0.083903        0.047999       -0.020236        0.027763
   6 H        0.083903        0.047999       -0.020236        0.027763
   7 H       -0.111548        0.610683       -0.053744        0.556939
  --------------------------------------------------------------------
  Sum:       -1.000000        1.755697       -1.755697       -0.000000
  
  Multipole moment analysis of the density matrix
    Molecular charge:                      -1.000000
    Number of electrons:                   18.000000
      Center of electronic charge [Ang]: [  0.000000,  -0.000000,   0.025493]
    Total nuclear charge:                  17.000000
      Center of nuclear charge [Ang]:    [ -0.000000,   0.000000,   0.000000]
    Dipole moment [D]:                     2.204052
      Cartesian components [D]:          [ -0.000000,   0.000000,  -2.204052]
    RMS size of the density [Ang]:         1.707216
      Cartesian components [Ang]:        [  1.111784,   0.698774,   1.090980]
  
  Exciton analysis of the difference density matrix
    <r_h> [Ang]:                  [ -0.000000,   0.000000,   0.994052]
    <r_e> [Ang]:                  [  0.000000,  -0.000000,  -0.029832]
    |<r_e - r_h>| [Ang]:            1.023885
    Hole size [Ang]:                1.996874
      Cartesian components [Ang]: [  0.852489,   0.788454,   1.624533]
    Electron size [Ang]:            3.321444
      Cartesian components [Ang]: [  2.243804,   1.748757,   1.714405]

  Transition density matrix analysis:
  -----------------------------------
  
  CT numbers (Mulliken)
    omega =     0.2682
    <Phe> =    -0.0012
  
  Exciton analysis of the transition density matrix
    Trans. dipole moment [D]:             0.000000
      Cartesian components [D]:         [ -0.000000,   0.000000,  -0.000000]
    <r_h> [Ang]:                        [ -0.000000,   0.000000,  -0.127840]
    <r_e> [Ang]:                        [  0.000000,  -0.000000,  -0.180108]
    |<r_e - r_h>| [Ang]:                  0.052268
    Hole size [Ang]:                      1.503599
      Cartesian components [Ang]:       [  1.100682,   0.471763,   0.909257]
    Electron size [Ang]:                  3.371609
      Cartesian components [Ang]:       [  1.651910,   2.522796,   1.508125]
    RMS electron-hole separation [Ang]:   3.641808
      Cartesian components [Ang]:       [  1.892769,   2.564713,   1.761374]
    Covariance(r_h, r_e) [Ang^2]:         0.184261
    Correlation coefficient:              0.036347
    Center-of-mass size [Ang]:            1.870634
      Cartesian components [Ang]:       [  1.036586,   1.284169,   0.880721]

  Decomposition into state-averaged NTOs
    H- 3 -> L+ 4: -0.3503 ( 24.5%)
    H- 0 -> L+ 5: -0.0981 (  1.9%)
                   omega =  26.8%
  ----------------------------------------------------------------------------


--------------------------------------------------------------------------------
  Time of ADC calculation:  CPU 488.47 s  wall 116.66 s
================================================================================
 
 --------------------------------------------------------------
             Orbital Energies (a.u.) and Symmetries
 --------------------------------------------------------------
 
 Alpha MOs, Restricted
 -- Occupied --                  
-11.064 -11.062  -0.869  -0.612  -0.486  -0.397  -0.340  -0.206
  1 A1    1 B1    2 A1    2 B1    3 A1    4 A1    3 B1    1 B2                 
 -0.021
  5 A1                                                                         
 -- Virtual --                   
  0.204   0.205   0.238   0.239   0.247   0.269   0.324   0.350
  4 B1    6 A1    1 A2    2 B2    7 A1    5 B1    8 A1    2 A2                 
  0.354   0.451   0.491   0.495   0.502   0.533   0.557   0.578
  6 B1    9 A1   10 A1    7 B1    8 B1   11 A1    3 B2   12 A1                 
  0.593   0.642   0.701   0.781   0.985   1.011   1.084   1.092
  9 B1    3 A2   10 B1   11 B1   13 A1   14 A1   15 A1   12 B1                 
  1.200   1.205   1.280   1.287   1.314   1.348   1.360   1.409
 16 A1   13 B1   17 A1    4 B2   14 B1   18 A1    5 B2    4 A2                 
  1.458   1.470   1.509   1.664   1.797   1.910   1.920   1.929
  5 A2    6 B2   15 B1   16 B1   19 A1    7 B2   20 A1   17 B1                 
  1.961   2.052   2.052   2.115   2.150   2.194   2.262   2.287
 18 B1   21 A1    6 A2    8 B2   19 B1    9 B2   22 A1   23 A1                 
  2.354   2.504   2.586   2.671   2.727   2.765   3.039   3.068
  7 A2   20 B1    8 A2   24 A1   21 B1   22 B1   25 A1   26 A1                 
  3.464   3.528
 23 B1   24 B1                                                                 
 
 Beta MOs, Restricted
 -- Occupied --                  
-11.064 -11.062  -0.869  -0.612  -0.486  -0.397  -0.340  -0.206
  1 A1    1 B1    2 A1    2 B1    3 A1    4 A1    3 B1    1 B2                 
 -0.021
  5 A1                                                                         
 -- Virtual --                   
  0.204   0.205   0.238   0.239   0.247   0.269   0.324   0.350
  4 B1    6 A1    1 A2    2 B2    7 A1    5 B1    8 A1    2 A2                 
  0.354   0.451   0.491   0.495   0.502   0.533   0.557   0.578
  6 B1    9 A1   10 A1    7 B1    8 B1   11 A1    3 B2   12 A1                 
  0.593   0.642   0.701   0.781   0.985   1.011   1.084   1.092
  9 B1    3 A2   10 B1   11 B1   13 A1   14 A1   15 A1   12 B1                 
  1.200   1.205   1.280   1.287   1.314   1.348   1.360   1.409
 16 A1   13 B1   17 A1    4 B2   14 B1   18 A1    5 B2    4 A2                 
  1.458   1.470   1.509   1.664   1.797   1.910   1.920   1.929
  5 A2    6 B2   15 B1   16 B1   19 A1    7 B2   20 A1   17 B1                 
  1.961   2.052   2.052   2.115   2.150   2.194   2.262   2.287
 18 B1   21 A1    6 A2    8 B2   19 B1    9 B2   22 A1   23 A1                 
  2.354   2.504   2.586   2.671   2.727   2.765   3.039   3.068
  7 A2   20 B1    8 A2   24 A1   21 B1   22 B1   25 A1   26 A1                 
  3.464   3.528
 23 B1   24 B1                                                                 
 --------------------------------------------------------------
 
          Ground-State Mulliken Net Atomic Charges

     Atom                 Charge (a.u.)
  ----------------------------------------
      1 C                    -0.392236
      2 C                    -0.392236
      3 H                     0.195557
      4 H                     0.195557
      5 H                     0.047729
      6 H                     0.047729
      7 H                    -0.702100
  ----------------------------------------
  Sum of atomic charges =    -1.000000

 -----------------------------------------------------------------
                    Cartesian Multipole Moments
 -----------------------------------------------------------------
    Charge (ESU x 10^10)
                -4.8032
    Dipole Moment (Debye)
         X      -0.0000      Y      -0.0000      Z     -11.0850
       Tot      11.0850
    Quadrupole Moments (Debye-Ang)
        XX     -18.8849     XY       0.0000     YY     -21.7582
        XZ      -0.0000     YZ       0.0000     ZZ     -51.0576
    Octopole Moments (Debye-Ang^2)
       XXX       0.0000    XXY      -0.0000    XYY      -0.0000
       YYY      -0.0000    XXZ      -8.5287    XYZ       0.0000
       YYZ      -9.2088    XZZ      -0.0000    YZZ       0.0000
       ZZZ    -114.8437
    Hexadecapole Moments (Debye-Ang^3)
      XXXX     -86.9516   XXXY      -0.0000   XXYY     -21.3442
      XYYY      -0.0000   YYYY     -37.8414   XXXZ      -0.0000
      XXYZ       0.0000   XYYZ      -0.0000   YYYZ       0.0000
      XXZZ     -53.5485   XYZZ      -0.0000   YYZZ     -48.2322
      XZZZ      -0.0000   YZZZ       0.0000   ZZZZ    -480.1578
 -----------------------------------------------------------------
 Total job time:  199.80s(wall), 533.30s(cpu) 
 Mon Mar 28 18:02:03 2022

        *************************************************************
        *                                                           *
        *  Thank you very much for using Q-Chem.  Have a nice day.  *
        *                                                           *
        *************************************************************


