/src/tsommerfeld/qchem/exe/qcprog.exe .input0.783333.16823.qcin.1 /src/jdavis/qchem.scratch/qchem16823/

                  Welcome to Q-Chem
     A Quantum Leap Into The Future Of Chemistry


 Q-Chem 5.4 (devel), Q-Chem, Inc., Pleasanton, CA (2021)

 E. Epifanovsky,  A. T. B. Gilbert,  Xintian Feng,  Joonho Lee,  Yuezhi Mao,  
 N. Mardirossian,  P. Pokhilko,  A. White,  M. Wormit,  M. P. Coons,  
 A. L. Dempwolff,  Zhengting Gan,  D. Hait,  P. R. Horn,  L. D. Jacobson,  
 I. Kaliman,  J. Kussmann,  A. W. Lange,  Ka Un Lao,  D. S. Levine,  Jie Liu,  
 S. C. McKenzie,  A. F. Morrison,  K. Nanda,  F. Plasser,  D. R. Rehn,  
 M. L. Vidal,  Zhi-Qiang You,  Ying Zhu,  B. Alam,  B. Albrecht,  
 A. Aldossary,  E. Alguire,  J. H. Andersen,  D. Barton,  K. Begam,  A. Behn,  
 Y. A. Bernard,  E. J. Berquist,  H. Burton,  A. Carreras,  K. Carter-Fenk,  
 R. Chakraborty,  A. D. Chien,  K. D. Closser,  V. Cofer-Shabica,  
 S. Dasgupta,  Jia Deng,  M. de Wergifosse,  M. Diedenhofen,  Hainam Do,  
 S. Ehlert,  Po-Tung Fang,  S. Fatehi,  Qingguo Feng,  T. Friedhoff,  
 J. Gayvert,  Qinghui Ge,  G. Gidofalvi,  M. Goldey,  J. Gomes,  
 C. Gonzalez-Espinoza,  S. Gulania,  A. Gunina,  M. W. D. Hanson-Heine,  
 P. H. P. Harbach,  A. W. Hauser,  M. F. Herbst,  M. Hernandez Vera,  
 M. Hodecker,  Z. C. Holden,  S. Houck,  Xunkun Huang,  Kerwin Hui,  
 B. C. Huynh,  M. Ivanov,  Hyunjun Ji,  Hanjie Jiang,  B. Kaduk,  S. Kaehler,  
 K. Khistyaev,  Jaehoon Kim,  P. Klunzinger,  Z. Koczor-Benda,  
 Joong Hoon Koh,  D. Kosenkov,  L. Koulias,  T. Kowalczyk,  C. M. Krauter,  
 K. Kue,  A. Kunitsa,  T. Kus,  A. Landau,  K. V. Lawler,  D. Lefrancois,  
 S. Lehtola,  Rain Li,  Yi-Pei Li,  Jiashu Liang,  M. Liebenthal,  
 Hung-Hsuan Lin,  You-Sheng Lin,  Fenglai Liu,  Kuan-Yu Liu,  
 M. Loipersberger,  A. Luenser,  A. Manjanath,  P. Manohar,  E. Mansoor,  
 S. F. Manzer,  Shan-Ping Mao,  A. V. Marenich,  T. Markovich,  S. Mason,  
 S. A. Maurer,  P. F. McLaughlin,  M. F. S. J. Menger,  J.-M. Mewes,  
 S. A. Mewes,  P. Morgante,  J. W. Mullinax,  K. J. Oosterbaan,  G. Paran,  
 Alexander C. Paul,  Suranjan K. Paul,  F. Pavosevic,  Zheng Pei,  S. Prager,  
 E. I. Proynov,  E. Ramos,  B. Rana,  A. E. Rask,  A. Rettig,  R. M. Richard,  
 F. Rob,  E. Rossomme,  T. Scheele,  M. Scheurer,  M. Schneider,  
 N. Sergueev,  S. M. Sharada,  W. Skomorowski,  D. W. Small,  C. J. Stein,  
 Yu-Chuan Su,  E. J. Sundstrom,  Zhen Tao,  J. Thirman,  T. Tsuchimochi,  
 N. M. Tubman,  S. P. Veccham,  O. Vydrov,  J. Wenzel,  J. Witte,  A. Yamada,  
 Kun Yao,  S. Yeganeh,  S. R. Yost,  A. Zech,  Igor Ying Zhang,  Xing Zhang,  
 Yu Zhang,  D. Zuev,  A. Aspuru-Guzik,  A. T. Bell,  N. A. Besley,  
 K. B. Bravaya,  B. R. Brooks,  D. Casanova,  Jeng-Da Chai,  S. Coriani,  
 C. J. Cramer,  A. E. DePrince, III,  R. A. DiStasio Jr.,  A. Dreuw,  
 B. D. Dunietz,  T. R. Furlani,  W. A. Goddard III,  S. Grimme,  
 S. Hammes-Schiffer,  T. Head-Gordon,  W. J. Hehre,  Chao-Ping Hsu,  
 T.-C. Jagau,  Yousung Jung,  A. Klamt,  Jing Kong,  D. S. Lambrecht,  
 WanZhen Liang,  N. J. Mayhall,  C. W. McCurdy,  J. B. Neaton,  
 C. Ochsenfeld,  J. A. Parkhill,  R. Peverati,  V. A. Rassolov,  Yihan Shao,  
 L. V. Slipchenko,  T. Stauch,  R. P. Steele,  J. E. Subotnik,  
 A. J. W. Thom,  A. Tkatchenko,  D. G. Truhlar,  T. Van Voorhis,  
 T. A. Wesolowski,  K. B. Whaley,  H. L. Woodcock III,  P. M. Zimmerman,  
 S. Faraji,  P. M. W. Gill,  M. Head-Gordon,  J. M. Herbert,  A. I. Krylov

 Additional authors for Version 5.4.1: 
 S. Kotaru,  Shaozhi Li,  Xiangyuan Li,  F. Matz,  A. Molle,  Haisheng Ren,  
 Yingli Su,  Hung-Yi Tsai,  C. Utku,  Fang Wang

 Contributors to earlier versions of Q-Chem not listed above: 
 R. D. Adamson,  B. Austin,  R. Baer,  J. Baker,  G. J. O. Beran,  
 K. Brandhorst,  S. T. Brown,  E. F. C. Byrd,  A. K. Chakraborty,  
 G. K. L. Chan,  Chun-Min Chang,  Yunqing Chen,  C.-L. Cheng,  
 Siu Hung Chien,  D. M. Chipman,  D. L. Crittenden,  H. Dachsel,  
 R. J. Doerksen,  A. D. Dutoi,  R. G. Edgar,  J. Fosso-Tande,  
 L. Fusti-Molnar,  D. Ghosh,  A. Ghysels,  A. Golubeva-Zadorozhnaya,  
 J. Gonthier,  M. S. Gordon,  S. R. Gwaltney,  G. Hawkins,  J. E. Herr,  
 A. Heyden,  S. Hirata,  E. G. Hohenstein,  G. Kedziora,  F. J. Keil,  
 C. Kelley,  Jihan Kim,  R. A. King,  R. Z. Khaliullin,  P. P. Korambath,  
 W. Kurlancheek,  A. Laurent,  A. M. Lee,  M. S. Lee,  S. V. Levchenko,  
 Ching Yeh Lin,  D. Liotard,  E. Livshits,  R. C. Lochan,  I. Lotan,  
 L. A. Martinez-Martinez,  P. E. Maslen,  N. Nair,  D. P. O'Neill,  
 D. Neuhauser,  E. Neuscamman,  C. M. Oana,  R. Olivares-Amaya,  R. Olson,  
 T. M. Perrine,  B. Peters,  P. A. Pieniazek,  A. Prociuk,  Y. M. Rhee,  
 J. Ritchie,  M. A. Rohrdanz,  E. Rosta,  N. J. Russ,  H. F. Schaefer III,  
 M. W. Schmidt,  N. E. Schultz,  S. Sharma,  N. Shenvi,  C. D. Sherrill,  
 A. C. Simmonett,  A. Sodt,  T. Stein,  D. Stuck,  K. S. Thanthiriwatte,  
 V. Vanovschi,  L. Vogt,  Tao Wang,  A. Warshel,  M. A. Watson,  
 C. F. Williams,  Q. Wu,  X. Xu,  Jun Yang,  W. Zhang,  Yan Zhao

 Please cite Q-Chem as follows:
 Y. Shao et al., Mol. Phys. 113, 184-215 (2015)
 DOI: 10.1080/00268976.2014.952696

 Q-Chem 5.4.1 for Intel X86 EM64T Linux

 Parts of Q-Chem use Armadillo 9.900.5 (Nocturnal Misbehaviour).
 http://arma.sourceforge.net/

 Q-Chem begins on Mon Mar 28 17:26:47 2022  

 Host: node01
0

     Scratch files written to /src/jdavis/qchem.scratch/qchem16823//
 Processing $rem in /src/tsommerfeld/qchem/config/preferences:
 Processing $rem in /home/jdavis/.qchemrc:

 Checking the input file for inconsistencies... 	...done.

--------------------------------------------------------------
User input:
--------------------------------------------------------------
$molecule
-1 1
C        -0.6645000000    0.0000000000   -0.1764707059
C         0.6645000000    0.0000000000   -0.1764707059
H        -1.1590800000    0.0000000000    0.7858782941
H         1.1590800000    0.0000000000    0.7858782941
H        -1.1590800000    0.0000000000   -1.1388187059
H         1.1590800000    0.0000000000   -1.1388187059
H         0.0000000000    0.0000000000    2.8235292941
$end

$rem
   METHOD adc(3)
   BASIS gen
   PURECART 11
   EE_STATES [0,10,0,0]
   scf_convergence 8
   ADC_DAVIDSON_MAXITER 120
   ADC_DAVIDSON_MAXSUBSPACE 200
   adc_nguess_singles 100
   THRESH 14
   S2THRESH 14
   adc_davidson_conv 5
   adc_davidson_thresh 14
   THREADS 10
   MEM_TOTAL 95000
   STATE_ANALYSIS TRUE
$end
$basis
C 1
S   9   1.00
      6.665000D+03           6.920000D-04
      1.000000D+03           5.329000D-03
      2.280000D+02           2.707700D-02
      6.471000D+01           1.017180D-01
      2.106000D+01           2.747400D-01
      7.495000D+00           4.485640D-01
      2.797000D+00           2.850740D-01
      5.215000D-01           1.520400D-02
      1.596000D-01          -3.191000D-03
S   9   1.00
      6.665000D+03          -1.460000D-04
      1.000000D+03          -1.154000D-03
      2.280000D+02          -5.725000D-03
      6.471000D+01          -2.331200D-02
      2.106000D+01          -6.395500D-02
      7.495000D+00          -1.499810D-01
      2.797000D+00          -1.272620D-01
      5.215000D-01           5.445290D-01
      1.596000D-01           5.804960D-01
S   1   1.00
      1.596000D-01           1.000000D+00
S   1   1.00
      0.0469000              1.0000000
P   4   1.00
      9.439000D+00           3.810900D-02
      2.002000D+00           2.094800D-01
      5.456000D-01           5.085570D-01
      1.517000D-01           4.688420D-01
P   1   1.00
      1.517000D-01           1.000000D+00
P   1   1.00
      0.0792211      1.0000000
P   1   1.00
      0.0396106      1.0000000
D   1   1.00
      5.500000D-01           1.0000000
****
C 2
S   9   1.00
      6.665000D+03           6.920000D-04
      1.000000D+03           5.329000D-03
      2.280000D+02           2.707700D-02
      6.471000D+01           1.017180D-01
      2.106000D+01           2.747400D-01
      7.495000D+00           4.485640D-01
      2.797000D+00           2.850740D-01
      5.215000D-01           1.520400D-02
      1.596000D-01          -3.191000D-03
S   9   1.00
      6.665000D+03          -1.460000D-04
      1.000000D+03          -1.154000D-03
      2.280000D+02          -5.725000D-03
      6.471000D+01          -2.331200D-02
      2.106000D+01          -6.395500D-02
      7.495000D+00          -1.499810D-01
      2.797000D+00          -1.272620D-01
      5.215000D-01           5.445290D-01
      1.596000D-01           5.804960D-01
S   1   1.00
      1.596000D-01           1.000000D+00
S   1   1.00
      0.0469000              1.0000000
P   4   1.00
      9.439000D+00           3.810900D-02
      2.002000D+00           2.094800D-01
      5.456000D-01           5.085570D-01
      1.517000D-01           4.688420D-01
P   1   1.00
      1.517000D-01           1.000000D+00
P   1   1.00
      0.0792211      1.0000000
P   1   1.00
      0.0396106      1.0000000
D   1   1.00
      5.500000D-01           1.0000000
****
H 3
cc-pVDZ
****
H 4
cc-pVDZ
****
H 5
cc-pVDZ
****
H 6
cc-pVDZ
****
H 7
aug-cc-pVDZ
****
$end
--------------------------------------------------------------
 ----------------------------------------------------------------
             Standard Nuclear Orientation (Angstroms)
    I     Atom           X                Y                Z
 ----------------------------------------------------------------
    1      C      -0.6645000000    -0.0000000000    -0.1764707059
    2      C       0.6645000000     0.0000000000    -0.1764707059
    3      H      -1.1590800000    -0.0000000000     0.7858782941
    4      H       1.1590800000     0.0000000000     0.7858782941
    5      H      -1.1590800000    -0.0000000000    -1.1388187059
    6      H       1.1590800000     0.0000000000    -1.1388187059
    7      H       0.0000000000     0.0000000000     2.8235292941
 ----------------------------------------------------------------
 Molecular Point Group                 C2v   NOp =  4
 Largest Abelian Subgroup              C2v   NOp =  4
 Nuclear Repulsion Energy =          36.36366470 hartrees
 There are        9 alpha and        9 beta electrons
 Requested basis set is non-standard
 There are 33 shells and 67 basis functions
 Total memory of 95000 MB is distributed as follows: 
   MEM_STATIC is set to 192 MB
   QALLOC/CCMAN JOB total memory use is  94808 MB
 Warning: actual memory use might exceed 95000 MB

 Total QAlloc Memory Limit  95000 MB
 Mega-Array Size       188 MB
 MEM_STATIC part       192 MB

                       Distance Matrix (Angstroms)
             C (  1)   C (  2)   H (  3)   H (  4)   H (  5)   H (  6)
   C (  2)  1.329000
   H (  3)  1.082000  2.061931
   H (  4)  2.061931  1.082000  2.318160
   H (  5)  1.082000  2.061931  1.924697  3.013026
   H (  6)  2.061931  1.082000  3.013026  1.924697  2.318160
   H (  7)  3.072712  3.072712  2.344246  2.344246  4.128398  4.128398

 
 A cutoff of  1.0D-14 yielded    561 shell pairs
 There are      2337 function pairs (      2484 Cartesian)
 Smallest overlap matrix eigenvalue = 2.40E-04

 Scale SEOQF with 1.000000e-01/1.000000e-01/1.000000e-01

 Standard Electronic Orientation quadrupole field applied
 Nucleus-field energy     =    -0.0000000009 hartrees
 ================ Generating on-the-fly SAD Guess ================
Attempting to make child job directory: /src/jdavis/qchem.scratch/qchem16823//Frg1/
Attempting to make child job directory: /src/jdavis/qchem.scratch/qchem16823//Frg2/
Creating input file /src/jdavis/qchem.scratch/qchem16823/Frg1.input
using default PutDataFrgm: nothing
calling putenv with: QCSCRATCH=/src/jdavis/qchem.scratch/qchem16823/ 
Spawning Job For Fragment 0
Done Job For Fragment 0
calling putenv with: QCSCRATCH=/src/jdavis/qchem.scratch 
calling putenv with: QCTHREADS=1 
Creating input file /src/jdavis/qchem.scratch/qchem16823/Frg2.input
using default PutDataFrgm: nothing
calling putenv with: QCSCRATCH=/src/jdavis/qchem.scratch/qchem16823/ 
Spawning Job For Fragment 1
Done Job For Fragment 1
calling putenv with: QCSCRATCH=/src/jdavis/qchem.scratch 
calling putenv with: QCTHREADS=1 
 Time for running child jobs:  CPU 1.77 s  wall 54.46 s
 ============= Method Specific SAD Guess Constructed =============
 Guess from on-the-fly superposition of atomic densities
 Warning: Energy on first SCF cycle will be non-variational
 A restricted Hartree-Fock SCF calculation will be
 performed using Pulay DIIS extrapolation
 SCF converges when DIIS error is below 1.0E-08
 using 10 threads for integral computing
 -------------------------------------------------------
 OpenMP Integral computing Module                
 Release: version 1.0, May 2013, Q-Chem Inc. Pittsburgh 
 -------------------------------------------------------
 ---------------------------------------
  Cycle       Energy         DIIS Error
 ---------------------------------------
    1     -78.8153531896      7.37E-02
    2     -78.4590277371      6.97E-03
    3     -78.5063405079      1.74E-03
    4     -78.5090506677      5.59E-04
    5     -78.5093784060      1.21E-04
    6     -78.5094056463      2.91E-05
    7     -78.5094081948      7.82E-06
    8     -78.5094084245      1.12E-06
    9     -78.5094084300      2.64E-07
   10     -78.5094084304      5.50E-08
   11     -78.5094084304      1.21E-08
   12     -78.5094084304      1.63E-09 Convergence criterion met
 ---------------------------------------
 SCF time:  CPU 11.26 s  wall 1.13 s
 SCF   energy in the final basis set = -78.50940843
 Total energy in the final basis set = -78.50940843
================================================================================
|                                                                              |
|                                 A D C  M A N                                 |
|                                                                              |
 ------------------------------------------------------------------------------ 
|                                                                              |
| Components:                                                                  |
|                                                                              |
| - libvmm - 1.3-trunk                                                         |
|   Authors:                                                                   |
|   Evgeny Epifanovsky, Ilya Kaliman                                           |
|                                                                              |
| - libtensor - 2.5-trunk                                                      |
|   Authors:                                                                   |
|   Evgeny Epifanovsky, Michael Wormit, Dmitry Zuev, Sam Manzer,               |
|   Ilya Kaliman                                                               |
|                                                                              |
| - libwfa - 1.1-trunk                                                         |
|   Authors:                                                                   |
|   Felix Plasser, Stefanie Mewes (Baeppler), Benjamin Thomitzni,              |
|   Michael Wormit, Feng Chen, Anna I. Krylov, Pavel Pokhilko                  |
|                                                                              |
| - libadc - 1.1-trunk                                                         |
|   Authors:                                                                   |
|   Michael Wormit, Adrian L. Dempwolff, Philipp H. P. Harbach,                |
|   Caroline Krauter, Dirk Rehn, Matthias Schneider, Jan Wenzel                |
|                                                                              |
| - adcman - 2.6-trunk                                                         |
|   Authors:                                                                   |
|   Michael Wormit, Adrian L. Dempwolff, Philipp H. P. Harbach,                |
|   Caroline Krauter, Daniel Lefrancois, Jan-Michael Mewes, Dirk Rehn,         |
|   Matthias Schneider, Jan Wenzel, Andreas Dreuw                              |
|                                                                              |
| Authors of earlier versions of ADCMAN:                                       |
| Andreas Dreuw, Jan Hendrik Starcke, Dirk Rehn, Michael Wormit                |
|                                                                              |
================================================================================

 
 Alpha MOs, Restricted
 -- Occupied --                  
-11.065 -11.064  -0.871  -0.614  -0.488  -0.399  -0.342  -0.208
  1 A1    1 B1    2 A1    2 B1    3 A1    4 A1    3 B1    1 B2                 
 -0.025
  5 A1                                                                         
 -- Virtual --                   
  0.177   0.195   0.216   0.220   0.224   0.241   0.310   0.330
  4 B1    6 A1    2 B2    1 A2    7 A1    5 B1    8 A1    2 A2                 
  0.344   0.431   0.461   0.473   0.496   0.498   0.499   0.534
  6 B1    9 A1    7 B1   10 A1   11 A1    3 B2    8 B1    9 B1                 
  0.538   0.580   0.709   0.775   0.973   1.013   1.075   1.099
 12 A1    3 A2   10 B1   11 B1   13 A1   14 A1   15 A1   12 B1                 
  1.131   1.192   1.235   1.271   1.279   1.287   1.297   1.315
 16 A1   13 B1   17 A1    4 B2   18 A1    5 B2   14 B1    4 A2                 
  1.444   1.456   1.458   1.618   1.790   1.842   1.903   1.910
 15 B1    5 A2    6 B2   16 B1   19 A1   17 B1    7 B2   20 A1                 
  1.952   2.031   2.044   2.112   2.135   2.192   2.240   2.274
 18 B1   21 A1    6 A2    8 B2   19 B1    9 B2   22 A1   23 A1                 
  2.349   2.500   2.584   2.658   2.737   2.764   3.003   3.032
  7 A2   20 B1    8 A2   24 A1   21 B1   22 B1   25 A1   26 A1                 
  3.435   3.516
 23 B1   24 B1                                                                 
 
 Beta MOs, Restricted
 -- Occupied --                  
-11.065 -11.064  -0.871  -0.614  -0.488  -0.399  -0.342  -0.208
  1 A1    1 B1    2 A1    2 B1    3 A1    4 A1    3 B1    1 B2                 
 -0.025
  5 A1                                                                         
 -- Virtual --                   
  0.177   0.195   0.216   0.220   0.224   0.241   0.310   0.330
  4 B1    6 A1    2 B2    1 A2    7 A1    5 B1    8 A1    2 A2                 
  0.344   0.431   0.461   0.473   0.496   0.498   0.499   0.534
  6 B1    9 A1    7 B1   10 A1   11 A1    3 B2    8 B1    9 B1                 
  0.538   0.580   0.709   0.775   0.973   1.013   1.075   1.099
 12 A1    3 A2   10 B1   11 B1   13 A1   14 A1   15 A1   12 B1                 
  1.131   1.192   1.235   1.271   1.279   1.287   1.297   1.315
 16 A1   13 B1   17 A1    4 B2   18 A1    5 B2   14 B1    4 A2                 
  1.444   1.456   1.458   1.618   1.790   1.842   1.903   1.910
 15 B1    5 A2    6 B2   16 B1   19 A1   17 B1    7 B2   20 A1                 
  1.952   2.031   2.044   2.112   2.135   2.192   2.240   2.274
 18 B1   21 A1    6 A2    8 B2   19 B1    9 B2   22 A1   23 A1                 
  2.349   2.500   2.584   2.658   2.737   2.764   3.003   3.032
  7 A2   20 B1    8 A2   24 A1   21 B1   22 B1   25 A1   26 A1                 
  3.435   3.516
 23 B1   24 B1                                                                 

--------------------------------------------------------------------------------
                                   HF Summary                                   
--------------------------------------------------------------------------------
  Energy:                                                  -78.5094084304 a.u.
  Dip. moment [a.u.]:                  [  -0.000000,   -0.000000,   -4.337690]
  Total dipole [Debye]:                                              11.025310
  <r^2> [a.u.]:                        [  52.384195,   16.407759,   82.113847]
  Total <r^2> [a.u.]:                                               150.905801
--------------------------------------------------------------------------------

--------------------------------------------------------------------------------
                                 MP(2) Summary                                  
--------------------------------------------------------------------------------
  MP energy contribution:                                   -0.3062171868 a.u.
  Total energy:                                            -78.8156256173 a.u.
  Dip. moment [a.u.]:                  [   0.000000,   -0.000000,   -4.223540]
  Total dipole [Debye]:                                              10.735171
  <r^2> [a.u.]:                        [  52.724979,   16.389846,   81.601511]
  Total <r^2> [a.u.]:                                               150.716336

  Density matrix analysis:
  ------------------------
  NOs
    Occupation of frontier NOs:
       0.0449   1.9359
    Number of electrons: 18.000000
    Number of unpaired electrons: n_u =  0.46155, n_u,nl =  0.05057
    NO participation ratio (PR_NO): 16.168512
  
  
  Mulliken Population Analysis
  Atom      Charge (e)              h+              e-           Del q
  --------------------------------------------------------------------
   1 C       -0.397965        0.088149       -0.112692       -0.024543
   2 C       -0.397965        0.088149       -0.112692       -0.024543
   3 H        0.173280        0.016337       -0.018786       -0.002449
   4 H        0.173280        0.016337       -0.018786       -0.002449
   5 H        0.043775        0.019453       -0.011562        0.007891
   6 H        0.043775        0.019453       -0.011562        0.007891
   7 H       -0.638180        0.052018       -0.013815        0.038203
  --------------------------------------------------------------------
  Sum:       -1.000000        0.299897       -0.299897        0.000000
  
  Multipole moment analysis of the density matrix
    Molecular charge:                      -1.000000
    Number of electrons:                   18.000000
      Center of electronic charge [Ang]: [ -0.000000,   0.000000,   0.124167]
    Total nuclear charge:                  17.000000
      Center of nuclear charge [Ang]:    [ -0.000000,   0.000000,   0.000000]
    Dipole moment [D]:                     10.735168
      Cartesian components [D]:          [  0.000000,  -0.000000, -10.735168]
    RMS size of the density [Ang]:         1.526204
      Cartesian components [Ang]:        [  0.905676,   0.504955,   1.119852]
  
  Exciton analysis of the difference density matrix
    <r_h> [Ang]:                  [  0.000000,  -0.000000,   0.270120]
    <r_e> [Ang]:                  [ -0.000000,   0.000000,   0.068700]
    |<r_e - r_h>| [Ang]:            0.201420
    Hole size [Ang]:                1.829116
      Cartesian components [Ang]: [  0.960439,   0.759735,   1.358686]
    Electron size [Ang]:            1.799166
      Cartesian components [Ang]: [  1.113844,   0.748646,   1.198282]
--------------------------------------------------------------------------------

--------------------------------------------------------------------------------
                                 MP(3) Summary                                  
--------------------------------------------------------------------------------
  MP energy contribution:                                   -0.0285187224 a.u.
  Total energy:                                            -78.8441443396 a.u.
--------------------------------------------------------------------------------
Less singles guess vectors found than requested: 85 (found), 100 (requested).
Adjusting number of doubles guess vectors to 15.
  Starting Davidson for singlet states of irrep A2 ... 
--------------------------------------------------------------------------------
   It NVec Conv  Avg. Norm  Max. Norm  Conv. states           Remark
--------------------------------------------------------------------------------
       100    0  7.506e-02  4.193e-01  0.1374 n n n n n n n n Guess.
    1  110    0  2.479e-02  1.232e-01  0.0896 n n n n n n n n 
    2  120    0  1.788e-02  1.324e-01  0.0850 n n n n n n n n 
    3  130    0  7.663e-03  4.881e-02  0.0847 n n n n n n n n 
    4  140    0  3.360e-03  2.637e-02  0.0847 n n n n n n n n 
    5  150    0  2.484e-03  2.341e-02  0.0847 n n n n n n n n 
    6  160    0  3.681e-03  3.666e-02  0.0847 n n n n n n n n 
    7  170    1  2.759e-03  2.756e-02  0.0847 y n n n n n n n 
    8  180    2  1.394e-03  1.393e-02  0.0847 y y n n n n n n 
    9  190    3  6.328e-04  6.324e-03  0.0847 y y y n n n n n 
   10  200    5  2.644e-04  2.643e-03  0.0847 y y y y y n n n 
   11   20    7  1.035e-04  1.035e-03  0.0847 y y y y y y y n Subspace collapsed.
   12   30    8  7.265e-05  7.262e-04  0.0847 y y y y y y y y 
   13   40    9  4.592e-05  4.591e-04  0.0847 y y y y y y y y 
   14   50    9  2.662e-05  2.661e-04  0.0847 y y y y y y y y 
   15   60    9  1.848e-05  1.847e-04  0.0847 y y y y y y y y 
   16   70    9  1.349e-05  1.349e-04  0.0847 y y y y y y y y 
   17   80    9  8.223e-06  8.222e-05  0.0847 y y y y y y y y 
   18   90    9  5.701e-06  5.700e-05  0.0847 y y y y y y y y 
   19  100    9  4.857e-06  4.857e-05  0.0847 y y y y y y y y 
   20  110    9  3.732e-06  3.732e-05  0.0847 y y y y y y y y 
   21  120    9  1.971e-06  1.971e-05  0.0847 y y y y y y y y 
   22  130   10  8.962e-07  8.961e-06  0.0847 y y y y y y y y Converged.
--------------------------------------------------------------------------------
  Davidson Summary: 
 ------------------------------------------------------------
  State  0: excitation energy =   0.0847 a.u.   (converged)
  State  1: excitation energy =   0.1534 a.u.   (converged)
  State  2: excitation energy =   0.2398 a.u.   (converged)
  State  3: excitation energy =   0.2612 a.u.   (converged)
  State  4: excitation energy =   0.3050 a.u.   (converged)
  State  5: excitation energy =   0.3384 a.u.   (converged)
  State  6: excitation energy =   0.3439 a.u.   (converged)
  State  7: excitation energy =   0.3494 a.u.   (converged)
  State  8: excitation energy =   0.3604 a.u.   (converged)
  State  9: excitation energy =   0.3650 a.u.   (converged)
 ------------------------------------------------------------


--------------------------------------------------------------------------------
                   State-averaged natural transition orbitals
--------------------------------------------------------------------------------
--------------------------------------------------------------------------------

--------------------------------------------------------------------------------
                             Excited State Summary
--------------------------------------------------------------------------------
--------------------------------------------------------------------------------

  Excited state 1 (singlet, A2)                                    [converged]
  ----------------------------------------------------------------------------
  Term symbol:  1 (1) A2                                    R^2 =  6.45708e-15

  Total energy:                                            -78.7594855406 a.u.
  Excitation energy:                                               2.303683 eV

  Osc. strength:                                                      0.000000
  Trans. dip. moment [a.u.]:           [  -0.000000,   -0.000000,    0.000000]
  <i|r^2|0> [a.u.]:                    [   0.000000,    0.000000,    0.000000]

  Dip. moment [a.u.]:                  [  -0.000000,   -0.000000,    0.395538]
  Total dipole [Debye]:                                               1.005359
  <r^2> [a.u.]:                        [  64.851411,   27.917741,   59.488217]
  Total <r^2> [a.u.]:                                               152.257369

  V1^2 = 0.8821, V2^2 = 0.1179

  Important amplitudes:
      occ i      occ j       vir a       vir b          v   
    ---------------------------------------------------------
     5 (A1) A               1 (A2) A                  0.6045
     5 (A1) A               2 (A2) A                  0.2721
    ---------------------------------------------------------

  Density matrix analysis:
  ------------------------
  NOs
    Occupation of frontier NOs:
       0.9880   0.9893
    Number of electrons: 18.000000
    Number of unpaired electrons: n_u =  2.43550, n_u,nl =  2.05092
    NO participation ratio (PR_NO):  3.013887
  
  
  Mulliken Population Analysis
  Atom      Charge (e)              h+              e-           Del q
  --------------------------------------------------------------------
   1 C       -0.658693        0.291000       -0.551729       -0.260729
   2 C       -0.658693        0.291000       -0.551729       -0.260729
   3 H        0.080036        0.022085       -0.115329       -0.093244
   4 H        0.080036        0.022085       -0.115329       -0.093244
   5 H        0.071164        0.024709        0.002680        0.027389
   6 H        0.071164        0.024709        0.002680        0.027389
   7 H        0.014986        0.731487       -0.078321        0.653166
  --------------------------------------------------------------------
  Sum:       -1.000000        1.407076       -1.407076        0.000000
  
  Multipole moment analysis of the density matrix
    Molecular charge:                      -1.000000
    Number of electrons:                   18.000000
      Center of electronic charge [Ang]: [  0.000000,   0.000000,  -0.011628]
    Total nuclear charge:                  17.000000
      Center of nuclear charge [Ang]:    [ -0.000000,   0.000000,   0.000000]
    Dipole moment [D]:                     1.005358
      Cartesian components [D]:          [ -0.000000,  -0.000000,   1.005358]
    RMS size of the density [Ang]:         1.539011
      Cartesian components [Ang]:        [  1.004441,   0.659030,   0.961941]
  
  Exciton analysis of the difference density matrix
    <r_h> [Ang]:                  [  0.000000,   0.000000,   1.911316]
    <r_e> [Ang]:                  [  0.000000,   0.000000,   0.174159]
    |<r_e - r_h>| [Ang]:            1.737157
    Hole size [Ang]:                2.141388
      Cartesian components [Ang]: [  1.014337,   0.948358,   1.630117]
    Electron size [Ang]:            2.918052
      Cartesian components [Ang]: [  1.855321,   1.787065,   1.370843]

  Transition density matrix analysis:
  -----------------------------------
  
  CT numbers (Mulliken)
    omega =     0.8652
    <Phe> =     0.0003
  
  Exciton analysis of the transition density matrix
    Trans. dipole moment [D]:             0.000000
      Cartesian components [D]:         [ -0.000000,  -0.000000,   0.000000]
    <r_h> [Ang]:                        [  0.000000,  -0.000000,   2.623093]
    <r_e> [Ang]:                        [  0.000000,   0.000000,  -0.175553]
    |<r_e - r_h>| [Ang]:                  2.798646
    Hole size [Ang]:                      1.531020
      Cartesian components [Ang]:       [  0.801001,   0.784034,   1.042934]
    Electron size [Ang]:                  3.098267
      Cartesian components [Ang]:       [  2.066502,   1.997063,   1.157829]
    RMS electron-hole separation [Ang]:   4.444595
      Cartesian components [Ang]:       [  2.212125,   2.144906,   3.203171]
    Covariance(r_h, r_e) [Ang^2]:         0.010639
    Correlation coefficient:              0.002243
    Center-of-mass size [Ang]:            1.729491
      Cartesian components [Ang]:       [  1.110244,   1.073000,   0.779210]

  Decomposition into state-averaged NTOs
    H- 1 -> L+ 0:  0.5771 ( 66.6%)
    H- 1 -> L+ 3: -0.3136 ( 19.7%)
                   omega =  86.5%
  ----------------------------------------------------------------------------


  Excited state 2 (singlet, A2)                                    [converged]
  ----------------------------------------------------------------------------
  Term symbol:  2 (1) A2                                    R^2 =  1.15249e-13

  Total energy:                                            -78.6907599221 a.u.
  Excitation energy:                                               4.173802 eV

  Osc. strength:                                                      0.000000
  Trans. dip. moment [a.u.]:           [   0.000000,   -0.000000,    0.000000]
  <i|r^2|0> [a.u.]:                    [   0.000000,    0.000000,    0.000000]

  Dip. moment [a.u.]:                  [  -0.000000,    0.000000,    0.413481]
  Total dipole [Debye]:                                               1.050963
  <r^2> [a.u.]:                        [  67.446335,   30.878837,   60.582737]
  Total <r^2> [a.u.]:                                               158.907909

  V1^2 = 0.8599, V2^2 = 0.1401

  Important amplitudes:
      occ i      occ j       vir a       vir b          v   
    ---------------------------------------------------------
     5 (A1) A               2 (A2) A                 -0.5794
     5 (A1) A               1 (A2) A                  0.2888
    ---------------------------------------------------------

  Density matrix analysis:
  ------------------------
  NOs
    Occupation of frontier NOs:
       0.9713   0.9869
    Number of electrons: 18.000000
    Number of unpaired electrons: n_u =  2.48303, n_u,nl =  2.07041
    NO participation ratio (PR_NO):  3.183684
  
  
  Mulliken Population Analysis
  Atom      Charge (e)              h+              e-           Del q
  --------------------------------------------------------------------
   1 C       -0.630664        0.312251       -0.544951       -0.232700
   2 C       -0.630664        0.312251       -0.544951       -0.232700
   3 H        0.065070        0.020123       -0.128333       -0.108210
   4 H        0.065070        0.020123       -0.128333       -0.108210
   5 H        0.054316        0.015767       -0.005226        0.010541
   6 H        0.054316        0.015767       -0.005226        0.010541
   7 H        0.022557        0.732849       -0.072112        0.660737
  --------------------------------------------------------------------
  Sum:       -1.000000        1.429132       -1.429132        0.000000
  
  Multipole moment analysis of the density matrix
    Molecular charge:                      -1.000000
    Number of electrons:                   18.000000
      Center of electronic charge [Ang]: [  0.000000,  -0.000000,  -0.012156]
    Total nuclear charge:                  17.000000
      Center of nuclear charge [Ang]:    [ -0.000000,   0.000000,   0.000000]
    Dipole moment [D]:                     1.050963
      Cartesian components [D]:          [ -0.000000,   0.000000,   1.050963]
    RMS size of the density [Ang]:         1.572261
      Cartesian components [Ang]:        [  1.024340,   0.693099,   0.970745]
  
  Exciton analysis of the difference density matrix
    <r_h> [Ang]:                  [  0.000000,  -0.000000,   1.882739]
    <r_e> [Ang]:                  [  0.000000,  -0.000000,   0.165750]
    |<r_e - r_h>| [Ang]:            1.716990
    Hole size [Ang]:                2.117516
      Cartesian components [Ang]: [  0.997822,   0.929460,   1.619978]
    Electron size [Ang]:            3.099385
      Cartesian components [Ang]: [  1.969821,   1.924295,   1.422351]

  Transition density matrix analysis:
  -----------------------------------
  
  CT numbers (Mulliken)
    omega =     0.8426
    <Phe> =    -0.0003
  
  Exciton analysis of the transition density matrix
    Trans. dipole moment [D]:             0.000000
      Cartesian components [D]:         [  0.000000,  -0.000000,   0.000000]
    <r_h> [Ang]:                        [  0.000000,  -0.000000,   2.621679]
    <r_e> [Ang]:                        [  0.000000,  -0.000000,  -0.175472]
    |<r_e - r_h>| [Ang]:                  2.797151
    Hole size [Ang]:                      1.531486
      Cartesian components [Ang]:       [  0.800444,   0.783329,   1.044574]
    Electron size [Ang]:                  3.375744
      Cartesian components [Ang]:       [  2.238284,   2.186219,   1.267350]
    RMS electron-hole separation [Ang]:   4.642022
      Cartesian components [Ang]:       [  2.374579,   2.321441,   3.243556]
    Covariance(r_h, r_e) [Ang^2]:         0.008388
    Correlation coefficient:              0.001623
    Center-of-mass size [Ang]:            1.854580
      Cartesian components [Ang]:       [  1.189814,   1.161596,   0.821282]

  Decomposition into state-averaged NTOs
    H- 1 -> L+ 3: -0.5819 ( 67.7%)
    H- 1 -> L+ 0: -0.2867 ( 16.4%)
                   omega =  84.3%
  ----------------------------------------------------------------------------


  Excited state 3 (singlet, A2)                                    [converged]
  ----------------------------------------------------------------------------
  Term symbol:  3 (1) A2                                    R^2 =  2.36990e-12

  Total energy:                                            -78.6043408297 a.u.
  Excitation energy:                                               6.525385 eV

  Osc. strength:                                                      0.000000
  Trans. dip. moment [a.u.]:           [   0.000000,   -0.000000,   -0.000000]
  <i|r^2|0> [a.u.]:                    [  -0.000000,   -0.000000,   -0.000000]

  Dip. moment [a.u.]:                  [  -0.000000,   -0.000000,   -2.476389]
  Total dipole [Debye]:                                               6.294353
  <r^2> [a.u.]:                        [  84.439440,   21.316370,   88.117741]
  Total <r^2> [a.u.]:                                               193.873552

  V1^2 = 0.9257, V2^2 = 0.0743

  Important amplitudes:
      occ i      occ j       vir a       vir b          v   
    ---------------------------------------------------------
     1 (B2) A               4 (B1) A                  0.6625
     1 (B2) A               6 (B1) A                 -0.1237
    ---------------------------------------------------------

  Density matrix analysis:
  ------------------------
  NOs
    Occupation of frontier NOs:
       0.9777   0.9831
    Number of electrons: 18.000000
    Number of unpaired electrons: n_u =  2.36666, n_u,nl =  2.03316
    NO participation ratio (PR_NO):  2.900234
  
  
  Mulliken Population Analysis
  Atom      Charge (e)              h+              e-           Del q
  --------------------------------------------------------------------
   1 C       -0.519558        0.529658       -0.651252       -0.121593
   2 C       -0.519558        0.529658       -0.651252       -0.121593
   3 H        0.222265        0.070324       -0.021339        0.048985
   4 H        0.222265        0.070324       -0.021339        0.048985
   5 H        0.094568        0.121721       -0.070928        0.050794
   6 H        0.094568        0.121721       -0.070928        0.050794
   7 H       -0.594550        0.080424       -0.036794        0.043630
  --------------------------------------------------------------------
  Sum:       -1.000000        1.523830       -1.523830        0.000000
  
  Multipole moment analysis of the density matrix
    Molecular charge:                      -1.000000
    Number of electrons:                   18.000000
      Center of electronic charge [Ang]: [  0.000000,   0.000000,   0.072803]
    Total nuclear charge:                  17.000000
      Center of nuclear charge [Ang]:    [ -0.000000,   0.000000,   0.000000]
    Dipole moment [D]:                     6.294351
      Cartesian components [D]:          [ -0.000000,  -0.000000,  -6.294351]
    RMS size of the density [Ang]:         1.735171
      Cartesian components [Ang]:        [  1.146140,   0.575866,   1.168572]
  
  Exciton analysis of the difference density matrix
    <r_h> [Ang]:                  [ -0.000000,  -0.000000,  -0.038164]
    <r_e> [Ang]:                  [  0.000000,   0.000000,  -0.644893]
    |<r_e - r_h>| [Ang]:            0.606730
    Hole size [Ang]:                1.860948
      Cartesian components [Ang]: [  1.072645,   0.901278,   1.224851]
    Electron size [Ang]:            3.313538
      Cartesian components [Ang]: [  2.641707,   1.310584,   1.511056]

  Transition density matrix analysis:
  -----------------------------------
  
  CT numbers (Mulliken)
    omega =     0.8955
    <Phe> =    -0.0026
  
  Exciton analysis of the transition density matrix
    Trans. dipole moment [D]:             0.000000
      Cartesian components [D]:         [  0.000000,  -0.000000,  -0.000000]
    <r_h> [Ang]:                        [ -0.000000,   0.000000,  -0.183962]
    <r_e> [Ang]:                        [  0.000000,   0.000000,  -1.059994]
    |<r_e - r_h>| [Ang]:                  0.876032
    Hole size [Ang]:                      1.279767
      Cartesian components [Ang]:       [  0.764778,   0.883572,   0.521746]
    Electron size [Ang]:                  3.834707
      Cartesian components [Ang]:       [  3.178653,   1.544213,   1.488809]
    RMS electron-hole separation [Ang]:   4.124531
      Cartesian components [Ang]:       [  3.257790,   1.773203,   1.803970]
    Covariance(r_h, r_e) [Ang^2]:         0.049230
    Correlation coefficient:              0.010031
    Center-of-mass size [Ang]:            2.027390
      Cartesian components [Ang]:       [  1.640445,   0.892516,   0.789092]

  Decomposition into state-averaged NTOs
    H- 0 -> L+ 1: -0.6480 ( 84.0%)
    H- 0 -> L+ 2:  0.1657 (  5.5%)
                   omega =  89.5%
  ----------------------------------------------------------------------------


  Excited state 4 (singlet, A2)                                    [converged]
  ----------------------------------------------------------------------------
  Term symbol:  4 (1) A2                                    R^2 =  2.86863e-11

  Total energy:                                            -78.5829464402 a.u.
  Excitation energy:                                               7.107556 eV

  Osc. strength:                                                      0.000000
  Trans. dip. moment [a.u.]:           [   0.000000,   -0.000000,    0.000000]
  <i|r^2|0> [a.u.]:                    [   0.000000,    0.000000,   -0.000000]

  Dip. moment [a.u.]:                  [   0.000000,   -0.000000,    1.104553]
  Total dipole [Debye]:                                               2.807495
  <r^2> [a.u.]:                        [  63.402998,   43.680991,   62.940981]
  Total <r^2> [a.u.]:                                               170.024970

  V1^2 = 0.0316, V2^2 = 0.9684

  Important amplitudes:
      occ i      occ j       vir a       vir b          v   
    ---------------------------------------------------------
     5 (A1) A   1 (B2) B    2 (A2) A    2 (B2) B     -0.2344
     5 (A1) A   1 (B2) B    1 (A2) A    2 (B2) B     -0.1290
    ---------------------------------------------------------

  Density matrix analysis:
  ------------------------
  NOs
    Occupation of frontier NOs:
       0.9743   1.0107
    Number of electrons: 18.000000
    Number of unpaired electrons: n_u =  4.06142, n_u,nl =  3.94331
    NO participation ratio (PR_NO):  4.854476
  
  
  Mulliken Population Analysis
  Atom      Charge (e)              h+              e-           Del q
  --------------------------------------------------------------------
   1 C       -0.799151        0.571545       -0.972731       -0.401187
   2 C       -0.799151        0.571545       -0.972731       -0.401187
   3 H        0.168835        0.011756       -0.016200       -0.004445
   4 H        0.168835        0.011756       -0.016200       -0.004445
   5 H        0.036472        0.003308       -0.010611       -0.007303
   6 H        0.036472        0.003308       -0.010611       -0.007303
   7 H        0.187688        0.828036       -0.002167        0.825869
  --------------------------------------------------------------------
  Sum:       -1.000000        2.001252       -2.001252        0.000000
  
  Multipole moment analysis of the density matrix
    Molecular charge:                      -1.000000
    Number of electrons:                   18.000000
      Center of electronic charge [Ang]: [ -0.000000,   0.000000,  -0.032472]
    Total nuclear charge:                  17.000000
      Center of nuclear charge [Ang]:    [ -0.000000,   0.000000,   0.000000]
    Dipole moment [D]:                     2.807494
      Cartesian components [D]:          [  0.000000,  -0.000000,   2.807494]
    RMS size of the density [Ang]:         1.626053
      Cartesian components [Ang]:        [  0.993161,   0.824349,   0.989003]
  
  Exciton analysis of the difference density matrix
    <r_h> [Ang]:                  [ -0.000000,  -0.000000,   1.244654]
    <r_e> [Ang]:                  [ -0.000000,   0.000000,  -0.164217]
    |<r_e - r_h>| [Ang]:            1.408871
    Hole size [Ang]:                2.007530
      Cartesian components [Ang]: [  0.787180,   0.862016,   1.633233]
    Electron size [Ang]:            2.873006
      Cartesian components [Ang]: [  1.453889,   2.135844,   1.256400]

  Transition density matrix analysis:
  -----------------------------------
  
  CT numbers (Mulliken)
    omega =     0.0310
    <Phe> =    -0.0001
  
  Exciton analysis of the transition density matrix
    Trans. dipole moment [D]:             0.000000
      Cartesian components [D]:         [  0.000000,  -0.000000,   0.000000]
    <r_h> [Ang]:                        [  0.000000,  -0.000000,   2.507818]
    <r_e> [Ang]:                        [ -0.000000,   0.000000,  -0.175248]
    |<r_e - r_h>| [Ang]:                  2.683066
    Hole size [Ang]:                      1.637432
      Cartesian components [Ang]:       [  0.821940,   0.781118,   1.181293]
    Electron size [Ang]:                  3.082014
      Cartesian components [Ang]:       [  2.034377,   2.000224,   1.165859]
    RMS electron-hole separation [Ang]:   4.402870
      Cartesian components [Ang]:       [  2.195689,   2.147155,   3.154987]
    Covariance(r_h, r_e) [Ang^2]:        -0.003215
    Correlation coefficient:             -0.000637
    Center-of-mass size [Ang]:            1.744532
      Cartesian components [Ang]:       [  1.096301,   1.073756,   0.829798]

  Decomposition into state-averaged NTOs
    H- 1 -> L+ 0: -0.0798 (  1.3%)
                   omega =   3.1%
  ----------------------------------------------------------------------------


  Excited state 5 (singlet, A2)                                    [converged]
  ----------------------------------------------------------------------------
  Term symbol:  5 (1) A2                                    R^2 =  5.35633e-11

  Total energy:                                            -78.5391242661 a.u.
  Excitation energy:                                               8.300018 eV

  Osc. strength:                                                      0.000000
  Trans. dip. moment [a.u.]:           [   0.000000,   -0.000000,    0.000000]
  <i|r^2|0> [a.u.]:                    [   0.000000,    0.000000,    0.000000]

  Dip. moment [a.u.]:                  [   0.000000,    0.000000,   -4.747725]
  Total dipole [Debye]:                                              12.067515
  <r^2> [a.u.]:                        [  77.124354,   20.917679,   96.533455]
  Total <r^2> [a.u.]:                                               194.575488

  V1^2 = 0.9014, V2^2 = 0.0986

  Important amplitudes:
      occ i      occ j       vir a       vir b          v   
    ---------------------------------------------------------
     1 (B2) A               5 (B1) A                 -0.6611
     1 (B2) A               8 (B1) A                 -0.0907
    ---------------------------------------------------------

  Density matrix analysis:
  ------------------------
  NOs
    Occupation of frontier NOs:
       0.9772   0.9794
    Number of electrons: 18.000000
    Number of unpaired electrons: n_u =  2.39744, n_u,nl =  2.03952
    NO participation ratio (PR_NO):  2.986165
  
  
  Mulliken Population Analysis
  Atom      Charge (e)              h+              e-           Del q
  --------------------------------------------------------------------
   1 C       -0.497926        0.528846       -0.628808       -0.099962
   2 C       -0.497926        0.528846       -0.628808       -0.099962
   3 H        0.166270        0.079042       -0.086052       -0.007010
   4 H        0.166270        0.079042       -0.086052       -0.007010
   5 H        0.083572        0.099292       -0.059495        0.039797
   6 H        0.083572        0.099292       -0.059495        0.039797
   7 H       -0.503829        0.156232       -0.021881        0.134351
  --------------------------------------------------------------------
  Sum:       -1.000000        1.570590       -1.570590        0.000000
  
  Multipole moment analysis of the density matrix
    Molecular charge:                      -1.000000
    Number of electrons:                   18.000000
      Center of electronic charge [Ang]: [ -0.000000,  -0.000000,   0.139577]
    Total nuclear charge:                  17.000000
      Center of nuclear charge [Ang]:    [ -0.000000,   0.000000,   0.000000]
    Dipole moment [D]:                     12.067511
      Cartesian components [D]:          [  0.000000,   0.000000, -12.067511]
    RMS size of the density [Ang]:         1.734231
      Cartesian components [Ang]:        [  1.095370,   0.570455,   1.217499]
  
  Exciton analysis of the difference density matrix
    <r_h> [Ang]:                  [ -0.000000,  -0.000000,   0.123716]
    <r_e> [Ang]:                  [ -0.000000,  -0.000000,   0.300329]
    |<r_e - r_h>| [Ang]:            0.176613
    Hole size [Ang]:                1.904874
      Cartesian components [Ang]: [  1.050544,   0.884876,   1.319809]
    Electron size [Ang]:            3.372465
      Cartesian components [Ang]: [  2.335365,   1.261069,   2.080696]

  Transition density matrix analysis:
  -----------------------------------
  
  CT numbers (Mulliken)
    omega =     0.8717
    <Phe> =    -0.0007
  
  Exciton analysis of the transition density matrix
    Trans. dipole moment [D]:             0.000000
      Cartesian components [D]:         [  0.000000,  -0.000000,   0.000000]
    <r_h> [Ang]:                        [ -0.000000,   0.000000,  -0.183521]
    <r_e> [Ang]:                        [ -0.000000,  -0.000000,   0.333504]
    |<r_e - r_h>| [Ang]:                  0.517025
    Hole size [Ang]:                      1.279764
      Cartesian components [Ang]:       [  0.764506,   0.883973,   0.521458]
    Electron size [Ang]:                  4.000260
      Cartesian components [Ang]:       [  2.796454,   1.460128,   2.459665]
    RMS electron-hole separation [Ang]:   4.224889
      Cartesian components [Ang]:       [  2.889648,   1.706620,   2.566528]
    Covariance(r_h, r_e) [Ang^2]:         0.028754
    Correlation coefficient:              0.005617
    Center-of-mass size [Ang]:            2.103413
      Cartesian components [Ang]:       [  1.454233,   0.853554,   1.257377]

  Decomposition into state-averaged NTOs
    H- 0 -> L+ 2:  0.6381 ( 81.4%)
    H- 0 -> L+ 1:  0.1686 (  5.7%)
                   omega =  87.2%
  ----------------------------------------------------------------------------


  Excited state 6 (singlet, A2)                                    [converged]
  ----------------------------------------------------------------------------
  Term symbol:  6 (1) A2                                    R^2 =  9.53962e-10

  Total energy:                                            -78.5057867510 a.u.
  Excitation energy:                                               9.207178 eV

  Osc. strength:                                                      0.000000
  Trans. dip. moment [a.u.]:           [   0.000000,   -0.000000,    0.000000]
  <i|r^2|0> [a.u.]:                    [   0.000000,    0.000000,    0.000000]

  Dip. moment [a.u.]:                  [  -0.000000,   -0.000000,    1.475364]
  Total dipole [Debye]:                                               3.750002
  <r^2> [a.u.]:                        [ 101.481758,   28.400077,   76.345810]
  Total <r^2> [a.u.]:                                               206.227645

  V1^2 = 0.0168, V2^2 = 0.9832

  Important amplitudes:
      occ i      occ j       vir a       vir b          v   
    ---------------------------------------------------------
     5 (A1) A   1 (B2) A    6 (A1) A    4 (B1) A      0.1770
     5 (A1) A   1 (B2) B    6 (A1) A    4 (B1) B      0.1447
    ---------------------------------------------------------

  Density matrix analysis:
  ------------------------
  NOs
    Occupation of frontier NOs:
       0.8945   0.9398
    Number of electrons: 18.000000
    Number of unpaired electrons: n_u =  4.18650, n_u,nl =  4.01395
    NO participation ratio (PR_NO):  5.479528
  
  
  Mulliken Population Analysis
  Atom      Charge (e)              h+              e-           Del q
  --------------------------------------------------------------------
   1 C       -0.773930        0.564269       -0.940234       -0.375965
   2 C       -0.773930        0.564269       -0.940234       -0.375965
   3 H        0.128802        0.010584       -0.055062       -0.044478
   4 H        0.128802        0.010584       -0.055062       -0.044478
   5 H        0.054939        0.006248        0.004916        0.011164
   6 H        0.054939        0.006248        0.004916        0.011164
   7 H        0.180377        0.833676       -0.015119        0.818558
  --------------------------------------------------------------------
  Sum:       -1.000000        1.995878       -1.995878        0.000000
  
  Multipole moment analysis of the density matrix
    Molecular charge:                      -1.000000
    Number of electrons:                   18.000000
      Center of electronic charge [Ang]: [  0.000000,   0.000000,  -0.043374]
    Total nuclear charge:                  17.000000
      Center of nuclear charge [Ang]:    [ -0.000000,   0.000000,   0.000000]
    Dipole moment [D]:                     3.750001
      Cartesian components [D]:          [ -0.000000,  -0.000000,   3.750001]
    RMS size of the density [Ang]:         1.790651
      Cartesian components [Ang]:        [  1.256490,   0.664698,   1.088963]
  
  Exciton analysis of the difference density matrix
    <r_h> [Ang]:                  [ -0.000000,  -0.000000,   1.236526]
    <r_e> [Ang]:                  [  0.000000,   0.000000,  -0.274453]
    |<r_e - r_h>| [Ang]:            1.510979
    Hole size [Ang]:                1.968663
      Cartesian components [Ang]: [  0.771613,   0.825177,   1.612244]
    Electron size [Ang]:            3.621841
      Cartesian components [Ang]: [  2.726927,   1.538179,   1.820881]

  Transition density matrix analysis:
  -----------------------------------
  
  CT numbers (Mulliken)
    omega =     0.0163
    <Phe> =    -0.0006
  
  Exciton analysis of the transition density matrix
    Trans. dipole moment [D]:             0.000000
      Cartesian components [D]:         [  0.000000,  -0.000000,   0.000000]
    <r_h> [Ang]:                        [  0.000000,   0.000000,  -0.107996]
    <r_e> [Ang]:                        [ -0.000000,  -0.000000,   0.804306]
    |<r_e - r_h>| [Ang]:                  0.912303
    Hole size [Ang]:                      1.349968
      Cartesian components [Ang]:       [  0.783830,   0.854986,   0.690668]
    Electron size [Ang]:                  3.779242
      Cartesian components [Ang]:       [  2.944513,   1.438783,   1.882131]
    RMS electron-hole separation [Ang]:   4.128761
      Cartesian components [Ang]:       [  3.046516,   1.666548,   2.233388]
    Covariance(r_h, r_e) [Ang^2]:        -0.054644
    Correlation coefficient:             -0.010711
    Center-of-mass size [Ang]:            1.999737
      Cartesian components [Ang]:       [  1.523797,   0.840359,   0.985286]

  Decomposition into state-averaged NTOs
    H- 0 -> L+ 2:  0.0860 (  1.5%)
                   omega =   1.6%
  ----------------------------------------------------------------------------


  Excited state 7 (singlet, A2)                                    [converged]
  ----------------------------------------------------------------------------
  Term symbol:  7 (1) A2                                    R^2 =  1.90046e-09

  Total energy:                                            -78.5002874015 a.u.
  Excitation energy:                                               9.356823 eV

  Osc. strength:                                                      0.000000
  Trans. dip. moment [a.u.]:           [   0.000000,   -0.000000,    0.000000]
  <i|r^2|0> [a.u.]:                    [  -0.000000,    0.000000,    0.000000]

  Dip. moment [a.u.]:                  [  -0.000000,   -0.000000,   -4.103714]
  Total dipole [Debye]:                                              10.430602
  <r^2> [a.u.]:                        [  53.874255,   19.772868,   81.044625]
  Total <r^2> [a.u.]:                                               154.691748

  V1^2 = 0.9307, V2^2 = 0.0693

  Important amplitudes:
      occ i      occ j       vir a       vir b          v   
    ---------------------------------------------------------
     4 (A1) A               2 (A2) A                  0.5252
     4 (A1) A               1 (A2) A                  0.3959
    ---------------------------------------------------------

  Density matrix analysis:
  ------------------------
  NOs
    Occupation of frontier NOs:
       0.9874   1.0275
    Number of electrons: 18.000000
    Number of unpaired electrons: n_u =  2.45390, n_u,nl =  2.05734
    NO participation ratio (PR_NO):  3.110035
  
  
  Mulliken Population Analysis
  Atom      Charge (e)              h+              e-           Del q
  --------------------------------------------------------------------
   1 C       -0.505220        0.442455       -0.549711       -0.107256
   2 C       -0.505220        0.442455       -0.549711       -0.107256
   3 H        0.217432        0.062800       -0.018648        0.044152
   4 H        0.217432        0.062800       -0.018648        0.044152
   5 H        0.102001        0.067321       -0.009094        0.058226
   6 H        0.102001        0.067321       -0.009094        0.058226
   7 H       -0.628426        0.017334       -0.007579        0.009755
  --------------------------------------------------------------------
  Sum:       -1.000000        1.162487       -1.162487        0.000000
  
  Multipole moment analysis of the density matrix
    Molecular charge:                      -1.000000
    Number of electrons:                   18.000000
      Center of electronic charge [Ang]: [  0.000000,   0.000000,   0.120644]
    Total nuclear charge:                  17.000000
      Center of nuclear charge [Ang]:    [ -0.000000,   0.000000,   0.000000]
    Dipole moment [D]:                     10.430599
      Cartesian components [D]:          [ -0.000000,  -0.000000, -10.430599]
    RMS size of the density [Ang]:         1.546611
      Cartesian components [Ang]:        [  0.915494,   0.554625,   1.116364]
  
  Exciton analysis of the difference density matrix
    <r_h> [Ang]:                  [ -0.000000,  -0.000000,  -0.102357]
    <r_e> [Ang]:                  [  0.000000,   0.000000,  -0.156903]
    |<r_e - r_h>| [Ang]:            0.054546
    Hole size [Ang]:                1.498294
      Cartesian components [Ang]: [  1.117576,   0.555169,   0.829274]
    Electron size [Ang]:            1.785601
      Cartesian components [Ang]: [  1.235242,   1.059783,   0.734444]

  Transition density matrix analysis:
  -----------------------------------
  
  CT numbers (Mulliken)
    omega =     0.8992
    <Phe> =    -0.0157
  
  Exciton analysis of the transition density matrix
    Trans. dipole moment [D]:             0.000000
      Cartesian components [D]:         [  0.000000,  -0.000000,   0.000000]
    <r_h> [Ang]:                        [ -0.000000,  -0.000000,  -0.137423]
    <r_e> [Ang]:                        [  0.000000,   0.000000,  -0.186031]
    |<r_e - r_h>| [Ang]:                  0.048609
    Hole size [Ang]:                      1.300564
      Cartesian components [Ang]:       [  1.074022,   0.416731,   0.603555]
    Electron size [Ang]:                  1.815450
      Cartesian components [Ang]:       [  1.272315,   1.107612,   0.671023]
    RMS electron-hole separation [Ang]:   2.216060
      Cartesian components [Ang]:       [  1.641500,   1.182987,   0.903849]
    Covariance(r_h, r_e) [Ang^2]:         0.039383
    Correlation coefficient:              0.016680
    Center-of-mass size [Ang]:            1.125399
      Cartesian components [Ang]:       [  0.844111,   0.591920,   0.451254]

  Decomposition into state-averaged NTOs
    H- 2 -> L+ 0:  0.6643 ( 88.3%)
                   omega =  89.9%
  ----------------------------------------------------------------------------


  Excited state 8 (singlet, A2)                                    [converged]
  ----------------------------------------------------------------------------
  Term symbol:  8 (1) A2                                    R^2 =  5.48951e-09

  Total energy:                                            -78.4947436552 a.u.
  Excitation energy:                                               9.507676 eV

  Osc. strength:                                                      0.000000
  Trans. dip. moment [a.u.]:           [   0.000000,    0.000000,    0.000000]
  <i|r^2|0> [a.u.]:                    [  -0.000000,   -0.000000,   -0.000000]

  Dip. moment [a.u.]:                  [  -0.000000,   -0.000000,    2.425785]
  Total dipole [Debye]:                                               6.165732
  <r^2> [a.u.]:                        [ 100.189827,   27.987926,   80.088288]
  Total <r^2> [a.u.]:                                               208.266041

  V1^2 = 0.0039, V2^2 = 0.9961

  Important amplitudes:
      occ i      occ j       vir a       vir b          v   
    ---------------------------------------------------------
     5 (A1) A   1 (B2) A    6 (A1) A    4 (B1) A      0.1693
     5 (A1) A   1 (B2) B    4 (B1) A    6 (A1) B     -0.1581
    ---------------------------------------------------------

  Density matrix analysis:
  ------------------------
  NOs
    Occupation of frontier NOs:
       0.8663   0.9370
    Number of electrons: 18.000000
    Number of unpaired electrons: n_u =  4.29198, n_u,nl =  4.07395
    NO participation ratio (PR_NO):  5.483789
  
  
  Mulliken Population Analysis
  Atom      Charge (e)              h+              e-           Del q
  --------------------------------------------------------------------
   1 C       -0.729733        0.566654       -0.898422       -0.331768
   2 C       -0.729733        0.566654       -0.898422       -0.331768
   3 H        0.132563        0.012563       -0.053280       -0.040717
   4 H        0.132563        0.012563       -0.053280       -0.040717
   5 H        0.007273        0.003879       -0.040380       -0.036502
   6 H        0.007273        0.003879       -0.040380       -0.036502
   7 H        0.179793        0.830282       -0.012308        0.817974
  --------------------------------------------------------------------
  Sum:       -1.000000        1.996472       -1.996472        0.000000
  
  Multipole moment analysis of the density matrix
    Molecular charge:                      -1.000000
    Number of electrons:                   18.000000
      Center of electronic charge [Ang]: [  0.000000,   0.000000,  -0.071315]
    Total nuclear charge:                  17.000000
      Center of nuclear charge [Ang]:    [ -0.000000,   0.000000,   0.000000]
    Dipole moment [D]:                     6.165730
      Cartesian components [D]:          [ -0.000000,  -0.000000,   6.165730]
    RMS size of the density [Ang]:         1.798593
      Cartesian components [Ang]:        [  1.248466,   0.659858,   1.113938]
  
  Exciton analysis of the difference density matrix
    <r_h> [Ang]:                  [  0.000000,  -0.000000,   1.243989]
    <r_e> [Ang]:                  [  0.000000,   0.000000,  -0.518455]
    |<r_e - r_h>| [Ang]:            1.762444
    Hole size [Ang]:                1.974516
      Cartesian components [Ang]: [  0.765606,   0.824885,   1.622383]
    Electron size [Ang]:            3.639979
      Cartesian components [Ang]: [  2.691403,   1.518948,   1.923173]

  Transition density matrix analysis:
  -----------------------------------
  
  CT numbers (Mulliken)
    omega =     0.0038
    <Phe> =    -0.0035
  
  Exciton analysis of the transition density matrix
    Trans. dipole moment [D]:             0.000000
      Cartesian components [D]:         [  0.000000,   0.000000,   0.000000]
    <r_h> [Ang]:                        [ -0.000000,   0.000000,   0.021781]
    <r_e> [Ang]:                        [ -0.000000,   0.000000,  -0.996257]
    |<r_e - r_h>| [Ang]:                  1.018038
    Hole size [Ang]:                      1.478150
      Cartesian components [Ang]:       [  0.814452,   0.830048,   0.912478]
    Electron size [Ang]:                  3.286324
      Cartesian components [Ang]:       [  2.337804,   1.528519,   1.731539]
    RMS electron-hole separation [Ang]:   3.712023
      Cartesian components [Ang]:       [  2.488086,   1.749589,   2.127787]
    Covariance(r_h, r_e) [Ang^2]:         0.121073
    Correlation coefficient:              0.024924
    Center-of-mass size [Ang]:            1.818447
      Cartesian components [Ang]:       [  1.231539,   0.864529,   1.021103]

  Decomposition into state-averaged NTOs
                   omega =   0.4%
  ----------------------------------------------------------------------------


  Excited state 9 (singlet, A2)                                    [converged]
  ----------------------------------------------------------------------------
  Term symbol:  9 (1) A2                                    R^2 =  5.59677e-08

  Total energy:                                            -78.4837845755 a.u.
  Excitation energy:                                               9.805888 eV

  Osc. strength:                                                      0.000000
  Trans. dip. moment [a.u.]:           [   0.000000,    0.000000,    0.000000]
  <i|r^2|0> [a.u.]:                    [   0.000000,   -0.000000,    0.000000]

  Dip. moment [a.u.]:                  [  -0.000000,   -0.000000,   -0.006952]
  Total dipole [Debye]:                                               0.017671
  <r^2> [a.u.]:                        [  97.150399,   31.124555,   75.418978]
  Total <r^2> [a.u.]:                                               203.693933

  V1^2 = 0.0218, V2^2 = 0.9782

  Important amplitudes:
      occ i      occ j       vir a       vir b          v   
    ---------------------------------------------------------
     5 (A1) A   1 (B2) B    4 (B1) A    8 (A1) B      0.1668
     5 (A1) A   1 (B2) A    7 (A1) A    4 (B1) A      0.1485
    ---------------------------------------------------------

  Density matrix analysis:
  ------------------------
  NOs
    Occupation of frontier NOs:
       0.8798   0.9424
    Number of electrons: 18.000000
    Number of unpaired electrons: n_u =  4.29335, n_u,nl =  4.05263
    NO participation ratio (PR_NO):  5.877479
  
  
  Mulliken Population Analysis
  Atom      Charge (e)              h+              e-           Del q
  --------------------------------------------------------------------
   1 C       -0.751007        0.561676       -0.914719       -0.353043
   2 C       -0.751007        0.561676       -0.914719       -0.353043
   3 H        0.156815        0.012716       -0.029181       -0.016464
   4 H        0.156815        0.012716       -0.029181       -0.016464
   5 H        0.039023        0.005929       -0.010681       -0.004752
   6 H        0.039023        0.005929       -0.010681       -0.004752
   7 H        0.110337        0.819840       -0.071323        0.748517
  --------------------------------------------------------------------
  Sum:       -1.000000        1.980483       -1.980483        0.000000
  
  Multipole moment analysis of the density matrix
    Molecular charge:                      -1.000000
    Number of electrons:                   18.000000
      Center of electronic charge [Ang]: [  0.000000,   0.000000,   0.000204]
    Total nuclear charge:                  17.000000
      Center of nuclear charge [Ang]:    [ -0.000000,   0.000000,   0.000000]
    Dipole moment [D]:                     0.017671
      Cartesian components [D]:          [ -0.000000,  -0.000000,  -0.017671]
    RMS size of the density [Ang]:         1.780139
      Cartesian components [Ang]:        [  1.229383,   0.695851,   1.083191]
  
  Exciton analysis of the difference density matrix
    <r_h> [Ang]:                  [  0.000000,   0.000000,   1.232941]
    <r_e> [Ang]:                  [  0.000000,   0.000000,   0.106285]
    |<r_e - r_h>| [Ang]:            1.126656
    Hole size [Ang]:                1.973696
      Cartesian components [Ang]: [  0.763537,   0.824264,   1.622675]
    Electron size [Ang]:            3.590966
      Cartesian components [Ang]: [  2.620015,   1.662171,   1.807691]

  Transition density matrix analysis:
  -----------------------------------
  
  CT numbers (Mulliken)
    omega =     0.0212
    <Phe> =    -0.0021
  
  Exciton analysis of the transition density matrix
    Trans. dipole moment [D]:             0.000000
      Cartesian components [D]:         [  0.000000,   0.000000,   0.000000]
    <r_h> [Ang]:                        [ -0.000000,   0.000000,  -0.165609]
    <r_e> [Ang]:                        [ -0.000000,  -0.000000,  -0.402818]
    |<r_e - r_h>| [Ang]:                  0.237209
    Hole size [Ang]:                      1.322600
      Cartesian components [Ang]:       [  0.835994,   0.822382,   0.611616]
    Electron size [Ang]:                  3.483973
      Cartesian components [Ang]:       [  2.503616,   1.783271,   1.640097]
    RMS electron-hole separation [Ang]:   3.718501
      Cartesian components [Ang]:       [  2.622384,   1.960273,   1.762862]
    Covariance(r_h, r_e) [Ang^2]:         0.058178
    Correlation coefficient:              0.012626
    Center-of-mass size [Ang]:            1.871076
      Cartesian components [Ang]:       [  1.328256,   0.983624,   0.877008]

  Decomposition into state-averaged NTOs
    H- 0 -> L+ 5:  0.0891 (  1.6%)
                   omega =   2.1%
  ----------------------------------------------------------------------------


  Excited state 10 (singlet, A2)                                    [converged]
  ----------------------------------------------------------------------------
  Term symbol:  10 (1) A2                                   R^2 =  8.96139e-06

  Total energy:                                            -78.4791222863 a.u.
  Excitation energy:                                               9.932755 eV

  Osc. strength:                                                      0.000000
  Trans. dip. moment [a.u.]:           [   0.000000,    0.000000,   -0.000000]
  <i|r^2|0> [a.u.]:                    [  -0.000000,   -0.000000,   -0.000000]

  Dip. moment [a.u.]:                  [   0.000000,   -0.000000,   -3.699092]
  Total dipole [Debye]:                                               9.402156
  <r^2> [a.u.]:                        [  57.917305,   41.876649,   82.958848]
  Total <r^2> [a.u.]:                                               182.752803

  V1^2 = 0.8705, V2^2 = 0.1295

  Important amplitudes:
      occ i      occ j       vir a       vir b          v   
    ---------------------------------------------------------
     3 (B1) A               2 (B2) A                  0.6461
     3 (B1) A               3 (B2) A                  0.1104
    ---------------------------------------------------------

  Density matrix analysis:
  ------------------------
  NOs
    Occupation of frontier NOs:
       0.9722   1.0706
    Number of electrons: 18.000000
    Number of unpaired electrons: n_u =  2.59692, n_u,nl =  2.14691
    NO participation ratio (PR_NO):  3.640190
  
  
  Mulliken Population Analysis
  Atom      Charge (e)              h+              e-           Del q
  --------------------------------------------------------------------
   1 C       -0.689008        0.341196       -0.632239       -0.291043
   2 C       -0.689008        0.341196       -0.632239       -0.291043
   3 H        0.270147        0.144950       -0.048083        0.096867
   4 H        0.270147        0.144950       -0.048083        0.096867
   5 H        0.192906        0.167086       -0.017955        0.149131
   6 H        0.192906        0.167086       -0.017955        0.149131
   7 H       -0.548090        0.115113       -0.025022        0.090091
  --------------------------------------------------------------------
  Sum:       -1.000000        1.421577       -1.421577        0.000000
  
  Multipole moment analysis of the density matrix
    Molecular charge:                      -1.000000
    Number of electrons:                   18.000000
      Center of electronic charge [Ang]: [ -0.000000,   0.000000,   0.108749]
    Total nuclear charge:                  17.000000
      Center of nuclear charge [Ang]:    [ -0.000000,   0.000000,   0.000000]
    Dipole moment [D]:                     9.402154
      Cartesian components [D]:          [  0.000000,  -0.000000,  -9.402154]
    RMS size of the density [Ang]:         1.682642
      Cartesian components [Ang]:        [  0.949225,   0.807144,   1.130830]
  
  Exciton analysis of the difference density matrix
    <r_h> [Ang]:                  [ -0.000000,  -0.000000,   0.130304]
    <r_e> [Ang]:                  [ -0.000000,   0.000000,  -0.064920]
    |<r_e - r_h>| [Ang]:            0.195224
    Hole size [Ang]:                1.967671
      Cartesian components [Ang]: [  1.174079,   0.709420,   1.410670]
    Electron size [Ang]:            3.192989
      Cartesian components [Ang]: [  1.549603,   2.350272,   1.506695]

  Transition density matrix analysis:
  -----------------------------------
  
  CT numbers (Mulliken)
    omega =     0.8555
    <Phe> =    -0.0007
  
  Exciton analysis of the transition density matrix
    Trans. dipole moment [D]:             0.000000
      Cartesian components [D]:         [  0.000000,   0.000000,  -0.000000]
    <r_h> [Ang]:                        [ -0.000000,   0.000000,  -0.115826]
    <r_e> [Ang]:                        [ -0.000000,   0.000000,  -0.177400]
    |<r_e - r_h>| [Ang]:                  0.061574
    Hole size [Ang]:                      1.526755
      Cartesian components [Ang]:       [  1.125045,   0.422990,   0.941452]
    Electron size [Ang]:                  3.600246
      Cartesian components [Ang]:       [  1.667504,   2.761796,   1.598026]
    RMS electron-hole separation [Ang]:   3.867466
      Cartesian components [Ang]:       [  1.926875,   2.793105,   1.855535]
    Covariance(r_h, r_e) [Ang^2]:         0.169624
    Correlation coefficient:              0.030859
    Center-of-mass size [Ang]:            1.976866
      Cartesian components [Ang]:       [  1.046392,   1.397448,   0.927472]

  Decomposition into state-averaged NTOs
    H- 3 -> L+ 4:  0.6501 ( 84.5%)
                   omega =  85.5%
  ----------------------------------------------------------------------------


--------------------------------------------------------------------------------
  Time of ADC calculation:  CPU 612.06 s  wall 142.23 s
================================================================================
 
 --------------------------------------------------------------
             Orbital Energies (a.u.) and Symmetries
 --------------------------------------------------------------
 
 Alpha MOs, Restricted
 -- Occupied --                  
-11.065 -11.064  -0.871  -0.614  -0.488  -0.399  -0.342  -0.208
  1 A1    1 B1    2 A1    2 B1    3 A1    4 A1    3 B1    1 B2                 
 -0.025
  5 A1                                                                         
 -- Virtual --                   
  0.177   0.195   0.216   0.220   0.224   0.241   0.310   0.330
  4 B1    6 A1    2 B2    1 A2    7 A1    5 B1    8 A1    2 A2                 
  0.344   0.431   0.461   0.473   0.496   0.498   0.499   0.534
  6 B1    9 A1    7 B1   10 A1   11 A1    3 B2    8 B1    9 B1                 
  0.538   0.580   0.709   0.775   0.973   1.013   1.075   1.099
 12 A1    3 A2   10 B1   11 B1   13 A1   14 A1   15 A1   12 B1                 
  1.131   1.192   1.235   1.271   1.279   1.287   1.297   1.315
 16 A1   13 B1   17 A1    4 B2   18 A1    5 B2   14 B1    4 A2                 
  1.444   1.456   1.458   1.618   1.790   1.842   1.903   1.910
 15 B1    5 A2    6 B2   16 B1   19 A1   17 B1    7 B2   20 A1                 
  1.952   2.031   2.044   2.112   2.135   2.192   2.240   2.274
 18 B1   21 A1    6 A2    8 B2   19 B1    9 B2   22 A1   23 A1                 
  2.349   2.500   2.584   2.658   2.737   2.764   3.003   3.032
  7 A2   20 B1    8 A2   24 A1   21 B1   22 B1   25 A1   26 A1                 
  3.435   3.516
 23 B1   24 B1                                                                 
 
 Beta MOs, Restricted
 -- Occupied --                  
-11.065 -11.064  -0.871  -0.614  -0.488  -0.399  -0.342  -0.208
  1 A1    1 B1    2 A1    2 B1    3 A1    4 A1    3 B1    1 B2                 
 -0.025
  5 A1                                                                         
 -- Virtual --                   
  0.177   0.195   0.216   0.220   0.224   0.241   0.310   0.330
  4 B1    6 A1    2 B2    1 A2    7 A1    5 B1    8 A1    2 A2                 
  0.344   0.431   0.461   0.473   0.496   0.498   0.499   0.534
  6 B1    9 A1    7 B1   10 A1   11 A1    3 B2    8 B1    9 B1                 
  0.538   0.580   0.709   0.775   0.973   1.013   1.075   1.099
 12 A1    3 A2   10 B1   11 B1   13 A1   14 A1   15 A1   12 B1                 
  1.131   1.192   1.235   1.271   1.279   1.287   1.297   1.315
 16 A1   13 B1   17 A1    4 B2   18 A1    5 B2   14 B1    4 A2                 
  1.444   1.456   1.458   1.618   1.790   1.842   1.903   1.910
 15 B1    5 A2    6 B2   16 B1   19 A1   17 B1    7 B2   20 A1                 
  1.952   2.031   2.044   2.112   2.135   2.192   2.240   2.274
 18 B1   21 A1    6 A2    8 B2   19 B1    9 B2   22 A1   23 A1                 
  2.349   2.500   2.584   2.658   2.737   2.764   3.003   3.032
  7 A2   20 B1    8 A2   24 A1   21 B1   22 B1   25 A1   26 A1                 
  3.435   3.516
 23 B1   24 B1                                                                 
 --------------------------------------------------------------
 
          Ground-State Mulliken Net Atomic Charges

     Atom                 Charge (a.u.)
  ----------------------------------------
      1 C                    -0.373421
      2 C                    -0.373421
      3 H                     0.175729
      4 H                     0.175729
      5 H                     0.035884
      6 H                     0.035884
      7 H                    -0.676383
  ----------------------------------------
  Sum of atomic charges =    -1.000000

 -----------------------------------------------------------------
                    Cartesian Multipole Moments
 -----------------------------------------------------------------
    Charge (ESU x 10^10)
                -4.8032
    Dipole Moment (Debye)
         X      -0.0000      Y      -0.0000      Z     -11.0253
       Tot      11.0253
    Quadrupole Moments (Debye-Ang)
        XX     -19.1959     XY      -0.0000     YY     -22.0690
        XZ      -0.0000     YZ      -0.0000     ZZ     -51.9667
    Octopole Moments (Debye-Ang^2)
       XXX      -0.0000    XXY      -0.0000    XYY      -0.0000
       YYY       0.0000    XXZ      -8.7217    XYZ       0.0000
       YYZ      -9.4997    XZZ      -0.0000    YZZ       0.0000
       ZZZ    -115.7257
    Hexadecapole Moments (Debye-Ang^3)
      XXXX     -89.8621   XXXY      -0.0000   XXYY     -22.3323
      XYYY      -0.0000   YYYY     -41.0170   XXXZ      -0.0000
      XXYZ       0.0000   XYYZ      -0.0000   YYYZ       0.0000
      XXZZ     -57.4224   XYZZ       0.0000   YYZZ     -51.8915
      XZZZ      -0.0000   YZZZ       0.0000   ZZZZ    -501.0853
 -----------------------------------------------------------------
 Total job time:  225.03s(wall), 657.36s(cpu) 
 Mon Mar 28 17:30:32 2022

        *************************************************************
        *                                                           *
        *  Thank you very much for using Q-Chem.  Have a nice day.  *
        *                                                           *
        *************************************************************


