/src/tsommerfeld/qchem/exe/qcprog.exe .input0.45.15305.qcin.1 /src/jdavis/qchem.scratch/qchem15305/

                  Welcome to Q-Chem
     A Quantum Leap Into The Future Of Chemistry


 Q-Chem 5.4 (devel), Q-Chem, Inc., Pleasanton, CA (2021)

 E. Epifanovsky,  A. T. B. Gilbert,  Xintian Feng,  Joonho Lee,  Yuezhi Mao,  
 N. Mardirossian,  P. Pokhilko,  A. White,  M. Wormit,  M. P. Coons,  
 A. L. Dempwolff,  Zhengting Gan,  D. Hait,  P. R. Horn,  L. D. Jacobson,  
 I. Kaliman,  J. Kussmann,  A. W. Lange,  Ka Un Lao,  D. S. Levine,  Jie Liu,  
 S. C. McKenzie,  A. F. Morrison,  K. Nanda,  F. Plasser,  D. R. Rehn,  
 M. L. Vidal,  Zhi-Qiang You,  Ying Zhu,  B. Alam,  B. Albrecht,  
 A. Aldossary,  E. Alguire,  J. H. Andersen,  D. Barton,  K. Begam,  A. Behn,  
 Y. A. Bernard,  E. J. Berquist,  H. Burton,  A. Carreras,  K. Carter-Fenk,  
 R. Chakraborty,  A. D. Chien,  K. D. Closser,  V. Cofer-Shabica,  
 S. Dasgupta,  Jia Deng,  M. de Wergifosse,  M. Diedenhofen,  Hainam Do,  
 S. Ehlert,  Po-Tung Fang,  S. Fatehi,  Qingguo Feng,  T. Friedhoff,  
 J. Gayvert,  Qinghui Ge,  G. Gidofalvi,  M. Goldey,  J. Gomes,  
 C. Gonzalez-Espinoza,  S. Gulania,  A. Gunina,  M. W. D. Hanson-Heine,  
 P. H. P. Harbach,  A. W. Hauser,  M. F. Herbst,  M. Hernandez Vera,  
 M. Hodecker,  Z. C. Holden,  S. Houck,  Xunkun Huang,  Kerwin Hui,  
 B. C. Huynh,  M. Ivanov,  Hyunjun Ji,  Hanjie Jiang,  B. Kaduk,  S. Kaehler,  
 K. Khistyaev,  Jaehoon Kim,  P. Klunzinger,  Z. Koczor-Benda,  
 Joong Hoon Koh,  D. Kosenkov,  L. Koulias,  T. Kowalczyk,  C. M. Krauter,  
 K. Kue,  A. Kunitsa,  T. Kus,  A. Landau,  K. V. Lawler,  D. Lefrancois,  
 S. Lehtola,  Rain Li,  Yi-Pei Li,  Jiashu Liang,  M. Liebenthal,  
 Hung-Hsuan Lin,  You-Sheng Lin,  Fenglai Liu,  Kuan-Yu Liu,  
 M. Loipersberger,  A. Luenser,  A. Manjanath,  P. Manohar,  E. Mansoor,  
 S. F. Manzer,  Shan-Ping Mao,  A. V. Marenich,  T. Markovich,  S. Mason,  
 S. A. Maurer,  P. F. McLaughlin,  M. F. S. J. Menger,  J.-M. Mewes,  
 S. A. Mewes,  P. Morgante,  J. W. Mullinax,  K. J. Oosterbaan,  G. Paran,  
 Alexander C. Paul,  Suranjan K. Paul,  F. Pavosevic,  Zheng Pei,  S. Prager,  
 E. I. Proynov,  E. Ramos,  B. Rana,  A. E. Rask,  A. Rettig,  R. M. Richard,  
 F. Rob,  E. Rossomme,  T. Scheele,  M. Scheurer,  M. Schneider,  
 N. Sergueev,  S. M. Sharada,  W. Skomorowski,  D. W. Small,  C. J. Stein,  
 Yu-Chuan Su,  E. J. Sundstrom,  Zhen Tao,  J. Thirman,  T. Tsuchimochi,  
 N. M. Tubman,  S. P. Veccham,  O. Vydrov,  J. Wenzel,  J. Witte,  A. Yamada,  
 Kun Yao,  S. Yeganeh,  S. R. Yost,  A. Zech,  Igor Ying Zhang,  Xing Zhang,  
 Yu Zhang,  D. Zuev,  A. Aspuru-Guzik,  A. T. Bell,  N. A. Besley,  
 K. B. Bravaya,  B. R. Brooks,  D. Casanova,  Jeng-Da Chai,  S. Coriani,  
 C. J. Cramer,  A. E. DePrince, III,  R. A. DiStasio Jr.,  A. Dreuw,  
 B. D. Dunietz,  T. R. Furlani,  W. A. Goddard III,  S. Grimme,  
 S. Hammes-Schiffer,  T. Head-Gordon,  W. J. Hehre,  Chao-Ping Hsu,  
 T.-C. Jagau,  Yousung Jung,  A. Klamt,  Jing Kong,  D. S. Lambrecht,  
 WanZhen Liang,  N. J. Mayhall,  C. W. McCurdy,  J. B. Neaton,  
 C. Ochsenfeld,  J. A. Parkhill,  R. Peverati,  V. A. Rassolov,  Yihan Shao,  
 L. V. Slipchenko,  T. Stauch,  R. P. Steele,  J. E. Subotnik,  
 A. J. W. Thom,  A. Tkatchenko,  D. G. Truhlar,  T. Van Voorhis,  
 T. A. Wesolowski,  K. B. Whaley,  H. L. Woodcock III,  P. M. Zimmerman,  
 S. Faraji,  P. M. W. Gill,  M. Head-Gordon,  J. M. Herbert,  A. I. Krylov

 Additional authors for Version 5.4.1: 
 S. Kotaru,  Shaozhi Li,  Xiangyuan Li,  F. Matz,  A. Molle,  Haisheng Ren,  
 Yingli Su,  Hung-Yi Tsai,  C. Utku,  Fang Wang

 Contributors to earlier versions of Q-Chem not listed above: 
 R. D. Adamson,  B. Austin,  R. Baer,  J. Baker,  G. J. O. Beran,  
 K. Brandhorst,  S. T. Brown,  E. F. C. Byrd,  A. K. Chakraborty,  
 G. K. L. Chan,  Chun-Min Chang,  Yunqing Chen,  C.-L. Cheng,  
 Siu Hung Chien,  D. M. Chipman,  D. L. Crittenden,  H. Dachsel,  
 R. J. Doerksen,  A. D. Dutoi,  R. G. Edgar,  J. Fosso-Tande,  
 L. Fusti-Molnar,  D. Ghosh,  A. Ghysels,  A. Golubeva-Zadorozhnaya,  
 J. Gonthier,  M. S. Gordon,  S. R. Gwaltney,  G. Hawkins,  J. E. Herr,  
 A. Heyden,  S. Hirata,  E. G. Hohenstein,  G. Kedziora,  F. J. Keil,  
 C. Kelley,  Jihan Kim,  R. A. King,  R. Z. Khaliullin,  P. P. Korambath,  
 W. Kurlancheek,  A. Laurent,  A. M. Lee,  M. S. Lee,  S. V. Levchenko,  
 Ching Yeh Lin,  D. Liotard,  E. Livshits,  R. C. Lochan,  I. Lotan,  
 L. A. Martinez-Martinez,  P. E. Maslen,  N. Nair,  D. P. O'Neill,  
 D. Neuhauser,  E. Neuscamman,  C. M. Oana,  R. Olivares-Amaya,  R. Olson,  
 T. M. Perrine,  B. Peters,  P. A. Pieniazek,  A. Prociuk,  Y. M. Rhee,  
 J. Ritchie,  M. A. Rohrdanz,  E. Rosta,  N. J. Russ,  H. F. Schaefer III,  
 M. W. Schmidt,  N. E. Schultz,  S. Sharma,  N. Shenvi,  C. D. Sherrill,  
 A. C. Simmonett,  A. Sodt,  T. Stein,  D. Stuck,  K. S. Thanthiriwatte,  
 V. Vanovschi,  L. Vogt,  Tao Wang,  A. Warshel,  M. A. Watson,  
 C. F. Williams,  Q. Wu,  X. Xu,  Jun Yang,  W. Zhang,  Yan Zhao

 Please cite Q-Chem as follows:
 Y. Shao et al., Mol. Phys. 113, 184-215 (2015)
 DOI: 10.1080/00268976.2014.952696

 Q-Chem 5.4.1 for Intel X86 EM64T Linux

 Parts of Q-Chem use Armadillo 9.900.5 (Nocturnal Misbehaviour).
 http://arma.sourceforge.net/

 Q-Chem begins on Mon Mar 28 16:11:36 2022  

 Host: node01
0

     Scratch files written to /src/jdavis/qchem.scratch/qchem15305//
 Processing $rem in /src/tsommerfeld/qchem/config/preferences:
 Processing $rem in /home/jdavis/.qchemrc:

 Checking the input file for inconsistencies... 	...done.

--------------------------------------------------------------
User input:
--------------------------------------------------------------
$molecule
-1 1
C        -0.6645000000    0.0000000000   -0.1764707059
C         0.6645000000    0.0000000000   -0.1764707059
H        -1.1590800000    0.0000000000    0.7858782941
H         1.1590800000    0.0000000000    0.7858782941
H        -1.1590800000    0.0000000000   -1.1388187059
H         1.1590800000    0.0000000000   -1.1388187059
H         0.0000000000    0.0000000000    2.8235292941
$end

$rem
   METHOD adc(3)
   BASIS gen
   PURECART 11
   EE_STATES [0,10,0,0]
   scf_convergence 8
   ADC_DAVIDSON_MAXITER 120
   ADC_DAVIDSON_MAXSUBSPACE 200
   adc_nguess_singles 100
   THRESH 14
   S2THRESH 14
   adc_davidson_conv 5
   adc_davidson_thresh 14
   THREADS 10
   MEM_TOTAL 95000
   STATE_ANALYSIS TRUE
$end
$basis
C 1
S   9   1.00
      6.665000D+03           6.920000D-04
      1.000000D+03           5.329000D-03
      2.280000D+02           2.707700D-02
      6.471000D+01           1.017180D-01
      2.106000D+01           2.747400D-01
      7.495000D+00           4.485640D-01
      2.797000D+00           2.850740D-01
      5.215000D-01           1.520400D-02
      1.596000D-01          -3.191000D-03
S   9   1.00
      6.665000D+03          -1.460000D-04
      1.000000D+03          -1.154000D-03
      2.280000D+02          -5.725000D-03
      6.471000D+01          -2.331200D-02
      2.106000D+01          -6.395500D-02
      7.495000D+00          -1.499810D-01
      2.797000D+00          -1.272620D-01
      5.215000D-01           5.445290D-01
      1.596000D-01           5.804960D-01
S   1   1.00
      1.596000D-01           1.000000D+00
S   1   1.00
      0.0469000              1.0000000
P   4   1.00
      9.439000D+00           3.810900D-02
      2.002000D+00           2.094800D-01
      5.456000D-01           5.085570D-01
      1.517000D-01           4.688420D-01
P   1   1.00
      1.517000D-01           1.000000D+00
P   1   1.00
      0.04551      1.0000000
P   1   1.00
      0.022755      1.0000000
D   1   1.00
      5.500000D-01           1.0000000
****
C 2
S   9   1.00
      6.665000D+03           6.920000D-04
      1.000000D+03           5.329000D-03
      2.280000D+02           2.707700D-02
      6.471000D+01           1.017180D-01
      2.106000D+01           2.747400D-01
      7.495000D+00           4.485640D-01
      2.797000D+00           2.850740D-01
      5.215000D-01           1.520400D-02
      1.596000D-01          -3.191000D-03
S   9   1.00
      6.665000D+03          -1.460000D-04
      1.000000D+03          -1.154000D-03
      2.280000D+02          -5.725000D-03
      6.471000D+01          -2.331200D-02
      2.106000D+01          -6.395500D-02
      7.495000D+00          -1.499810D-01
      2.797000D+00          -1.272620D-01
      5.215000D-01           5.445290D-01
      1.596000D-01           5.804960D-01
S   1   1.00
      1.596000D-01           1.000000D+00
S   1   1.00
      0.0469000              1.0000000
P   4   1.00
      9.439000D+00           3.810900D-02
      2.002000D+00           2.094800D-01
      5.456000D-01           5.085570D-01
      1.517000D-01           4.688420D-01
P   1   1.00
      1.517000D-01           1.000000D+00
P   1   1.00
      0.04551      1.0000000
P   1   1.00
      0.022755      1.0000000
D   1   1.00
      5.500000D-01           1.0000000
****
H 3
cc-pVDZ
****
H 4
cc-pVDZ
****
H 5
cc-pVDZ
****
H 6
cc-pVDZ
****
H 7
aug-cc-pVDZ
****
$end
--------------------------------------------------------------
 ----------------------------------------------------------------
             Standard Nuclear Orientation (Angstroms)
    I     Atom           X                Y                Z
 ----------------------------------------------------------------
    1      C      -0.6645000000    -0.0000000000    -0.1764707059
    2      C       0.6645000000     0.0000000000    -0.1764707059
    3      H      -1.1590800000    -0.0000000000     0.7858782941
    4      H       1.1590800000     0.0000000000     0.7858782941
    5      H      -1.1590800000    -0.0000000000    -1.1388187059
    6      H       1.1590800000     0.0000000000    -1.1388187059
    7      H       0.0000000000     0.0000000000     2.8235292941
 ----------------------------------------------------------------
 Molecular Point Group                 C2v   NOp =  4
 Largest Abelian Subgroup              C2v   NOp =  4
 Nuclear Repulsion Energy =          36.36366470 hartrees
 There are        9 alpha and        9 beta electrons
 Requested basis set is non-standard
 There are 33 shells and 67 basis functions
 Total memory of 95000 MB is distributed as follows: 
   MEM_STATIC is set to 192 MB
   QALLOC/CCMAN JOB total memory use is  94808 MB
 Warning: actual memory use might exceed 95000 MB

 Total QAlloc Memory Limit  95000 MB
 Mega-Array Size       188 MB
 MEM_STATIC part       192 MB

                       Distance Matrix (Angstroms)
             C (  1)   C (  2)   H (  3)   H (  4)   H (  5)   H (  6)
   C (  2)  1.329000
   H (  3)  1.082000  2.061931
   H (  4)  2.061931  1.082000  2.318160
   H (  5)  1.082000  2.061931  1.924697  3.013026
   H (  6)  2.061931  1.082000  3.013026  1.924697  2.318160
   H (  7)  3.072712  3.072712  2.344246  2.344246  4.128398  4.128398

 
 A cutoff of  1.0D-14 yielded    561 shell pairs
 There are      2337 function pairs (      2484 Cartesian)
 Smallest overlap matrix eigenvalue = 1.83E-04

 Scale SEOQF with 1.000000e-01/1.000000e-01/1.000000e-01

 Standard Electronic Orientation quadrupole field applied
 Nucleus-field energy     =    -0.0000000009 hartrees
 ================ Generating on-the-fly SAD Guess ================
Attempting to make child job directory: /src/jdavis/qchem.scratch/qchem15305//Frg1/
Attempting to make child job directory: /src/jdavis/qchem.scratch/qchem15305//Frg2/
Creating input file /src/jdavis/qchem.scratch/qchem15305/Frg1.input
using default PutDataFrgm: nothing
calling putenv with: QCSCRATCH=/src/jdavis/qchem.scratch/qchem15305/ 
Spawning Job For Fragment 0
Done Job For Fragment 0
calling putenv with: QCSCRATCH=/src/jdavis/qchem.scratch 
calling putenv with: QCTHREADS=1 
Creating input file /src/jdavis/qchem.scratch/qchem15305/Frg2.input
using default PutDataFrgm: nothing
calling putenv with: QCSCRATCH=/src/jdavis/qchem.scratch/qchem15305/ 
Spawning Job For Fragment 1
Done Job For Fragment 1
calling putenv with: QCSCRATCH=/src/jdavis/qchem.scratch 
calling putenv with: QCTHREADS=1 
 Time for running child jobs:  CPU 1.77 s  wall 54.51 s
 ============= Method Specific SAD Guess Constructed =============
 Guess from on-the-fly superposition of atomic densities
 Warning: Energy on first SCF cycle will be non-variational
 A restricted Hartree-Fock SCF calculation will be
 performed using Pulay DIIS extrapolation
 SCF converges when DIIS error is below 1.0E-08
 using 10 threads for integral computing
 -------------------------------------------------------
 OpenMP Integral computing Module                
 Release: version 1.0, May 2013, Q-Chem Inc. Pittsburgh 
 -------------------------------------------------------
 ---------------------------------------
  Cycle       Energy         DIIS Error
 ---------------------------------------
    1     -78.8139967765      7.37E-02
    2     -78.4604559242      6.97E-03
    3     -78.5107171779      1.75E-03
    4     -78.5133949610      5.51E-04
    5     -78.5137125764      1.22E-04
    6     -78.5137381860      2.86E-05
    7     -78.5137403998      7.67E-06
    8     -78.5137406128      1.16E-06
    9     -78.5137406187      2.71E-07
   10     -78.5137406192      5.67E-08
   11     -78.5137406192      1.17E-08
   12     -78.5137406192      1.70E-09 Convergence criterion met
 ---------------------------------------
 SCF time:  CPU 10.53 s  wall 1.06 s
 SCF   energy in the final basis set = -78.51374062
 Total energy in the final basis set = -78.51374062
================================================================================
|                                                                              |
|                                 A D C  M A N                                 |
|                                                                              |
 ------------------------------------------------------------------------------ 
|                                                                              |
| Components:                                                                  |
|                                                                              |
| - libvmm - 1.3-trunk                                                         |
|   Authors:                                                                   |
|   Evgeny Epifanovsky, Ilya Kaliman                                           |
|                                                                              |
| - libtensor - 2.5-trunk                                                      |
|   Authors:                                                                   |
|   Evgeny Epifanovsky, Michael Wormit, Dmitry Zuev, Sam Manzer,               |
|   Ilya Kaliman                                                               |
|                                                                              |
| - libwfa - 1.1-trunk                                                         |
|   Authors:                                                                   |
|   Felix Plasser, Stefanie Mewes (Baeppler), Benjamin Thomitzni,              |
|   Michael Wormit, Feng Chen, Anna I. Krylov, Pavel Pokhilko                  |
|                                                                              |
| - libadc - 1.1-trunk                                                         |
|   Authors:                                                                   |
|   Michael Wormit, Adrian L. Dempwolff, Philipp H. P. Harbach,                |
|   Caroline Krauter, Dirk Rehn, Matthias Schneider, Jan Wenzel                |
|                                                                              |
| - adcman - 2.6-trunk                                                         |
|   Authors:                                                                   |
|   Michael Wormit, Adrian L. Dempwolff, Philipp H. P. Harbach,                |
|   Caroline Krauter, Daniel Lefrancois, Jan-Michael Mewes, Dirk Rehn,         |
|   Matthias Schneider, Jan Wenzel, Andreas Dreuw                              |
|                                                                              |
| Authors of earlier versions of ADCMAN:                                       |
| Andreas Dreuw, Jan Hendrik Starcke, Dirk Rehn, Michael Wormit                |
|                                                                              |
================================================================================

 
 Alpha MOs, Restricted
 -- Occupied --                  
-11.071 -11.070  -0.877  -0.620  -0.494  -0.405  -0.348  -0.214
  1 A1    1 B1    2 A1    2 B1    3 A1    4 A1    3 B1    1 B2                 
 -0.035
  5 A1                                                                         
 -- Virtual --                   
  0.136   0.157   0.160   0.162   0.173   0.176   0.253   0.277
  4 B1    2 B2    6 A1    1 A2    7 A1    5 B1    8 A1    2 A2                 
  0.279   0.324   0.330   0.346   0.368   0.383   0.430   0.467
  6 B1    9 A1    7 B1    3 B2   10 A1    8 B1    3 A2   11 A1                 
  0.501   0.504   0.644   0.674   0.861   0.959   1.024   1.033
 12 A1    9 B1   10 B1   11 B1   13 A1   14 A1   15 A1   16 A1                 
  1.059   1.090   1.111   1.113   1.134   1.222   1.238   1.279
  4 B2   12 B1    4 A2   17 A1   13 B1   14 B1   18 A1    5 B2                 
  1.446   1.449   1.486   1.515   1.773   1.778   1.873   1.881
  6 B2    5 A2   15 B1   16 B1   19 A1   17 B1   20 A1    7 B2                 
  1.930   1.972   2.016   2.077   2.101   2.162   2.185   2.231
 18 B1   21 A1    6 A2   19 B1    8 B2   22 A1    9 B2   23 A1                 
  2.334   2.469   2.577   2.619   2.720   2.746   2.963   2.990
  7 A2   20 B1    8 A2   24 A1   21 B1   22 B1   25 A1   26 A1                 
  3.420   3.508
 23 B1   24 B1                                                                 
 
 Beta MOs, Restricted
 -- Occupied --                  
-11.071 -11.070  -0.877  -0.620  -0.494  -0.405  -0.348  -0.214
  1 A1    1 B1    2 A1    2 B1    3 A1    4 A1    3 B1    1 B2                 
 -0.035
  5 A1                                                                         
 -- Virtual --                   
  0.136   0.157   0.160   0.162   0.173   0.176   0.253   0.277
  4 B1    2 B2    6 A1    1 A2    7 A1    5 B1    8 A1    2 A2                 
  0.279   0.324   0.330   0.346   0.368   0.383   0.430   0.467
  6 B1    9 A1    7 B1    3 B2   10 A1    8 B1    3 A2   11 A1                 
  0.501   0.504   0.644   0.674   0.861   0.959   1.024   1.033
 12 A1    9 B1   10 B1   11 B1   13 A1   14 A1   15 A1   16 A1                 
  1.059   1.090   1.111   1.113   1.134   1.222   1.238   1.279
  4 B2   12 B1    4 A2   17 A1   13 B1   14 B1   18 A1    5 B2                 
  1.446   1.449   1.486   1.515   1.773   1.778   1.873   1.881
  6 B2    5 A2   15 B1   16 B1   19 A1   17 B1   20 A1    7 B2                 
  1.930   1.972   2.016   2.077   2.101   2.162   2.185   2.231
 18 B1   21 A1    6 A2   19 B1    8 B2   22 A1    9 B2   23 A1                 
  2.334   2.469   2.577   2.619   2.720   2.746   2.963   2.990
  7 A2   20 B1    8 A2   24 A1   21 B1   22 B1   25 A1   26 A1                 
  3.420   3.508
 23 B1   24 B1                                                                 

--------------------------------------------------------------------------------
                                   HF Summary                                   
--------------------------------------------------------------------------------
  Energy:                                                  -78.5137406192 a.u.
  Dip. moment [a.u.]:                  [   0.000000,    0.000000,   -4.243982]
  Total dipole [Debye]:                                              10.787129
  <r^2> [a.u.]:                        [  53.708652,   17.455580,   84.913909]
  Total <r^2> [a.u.]:                                               156.078141
--------------------------------------------------------------------------------

--------------------------------------------------------------------------------
                                 MP(2) Summary                                  
--------------------------------------------------------------------------------
  MP energy contribution:                                   -0.3055398051 a.u.
  Total energy:                                            -78.8192804243 a.u.
  Dip. moment [a.u.]:                  [   0.000000,    0.000000,   -4.053963]
  Total dipole [Debye]:                                              10.304148
  <r^2> [a.u.]:                        [  54.431875,   17.770787,   85.020087]
  Total <r^2> [a.u.]:                                               157.222749

  Density matrix analysis:
  ------------------------
  NOs
    Occupation of frontier NOs:
       0.0448   1.9362
    Number of electrons: 18.000000
    Number of unpaired electrons: n_u =  0.47107, n_u,nl =  0.05209
    NO participation ratio (PR_NO): 16.357784
  
  
  Mulliken Population Analysis
  Atom      Charge (e)              h+              e-           Del q
  --------------------------------------------------------------------
   1 C       -0.376606        0.089964       -0.122160       -0.032196
   2 C       -0.376606        0.089964       -0.122160       -0.032196
   3 H        0.136611        0.014852       -0.017228       -0.002376
   4 H        0.136611        0.014852       -0.017228       -0.002376
   5 H        0.027749        0.019180       -0.011554        0.007627
   6 H        0.027749        0.019180       -0.011554        0.007627
   7 H       -0.575508        0.067466       -0.013574        0.053891
  --------------------------------------------------------------------
  Sum:       -1.000000        0.315457       -0.315457        0.000000
  
  Multipole moment analysis of the density matrix
    Molecular charge:                      -1.000000
    Number of electrons:                   18.000000
      Center of electronic charge [Ang]: [ -0.000000,  -0.000000,   0.119181]
    Total nuclear charge:                  17.000000
      Center of nuclear charge [Ang]:    [ -0.000000,   0.000000,   0.000000]
    Dipole moment [D]:                     10.304144
      Cartesian components [D]:          [  0.000000,   0.000000, -10.304144]
    RMS size of the density [Ang]:         1.559401
      Cartesian components [Ang]:        [  0.920220,   0.525797,   1.143882]
  
  Exciton analysis of the difference density matrix
    <r_h> [Ang]:                  [  0.000000,   0.000000,   0.353233]
    <r_e> [Ang]:                  [ -0.000000,  -0.000000,   0.034477]
    |<r_e - r_h>| [Ang]:            0.318756
    Hole size [Ang]:                1.959479
      Cartesian components [Ang]: [  0.987339,   0.799802,   1.491656]
    Electron size [Ang]:            2.231412
      Cartesian components [Ang]: [  1.271549,   0.958900,   1.562970]
--------------------------------------------------------------------------------

--------------------------------------------------------------------------------
                                 MP(3) Summary                                  
--------------------------------------------------------------------------------
  MP energy contribution:                                   -0.0285859342 a.u.
  Total energy:                                            -78.8478663585 a.u.
--------------------------------------------------------------------------------
Less singles guess vectors found than requested: 85 (found), 100 (requested).
Adjusting number of doubles guess vectors to 15.
  Starting Davidson for singlet states of irrep A2 ... 
--------------------------------------------------------------------------------
   It NVec Conv  Avg. Norm  Max. Norm  Conv. states           Remark
--------------------------------------------------------------------------------
       100    0  7.072e-02  3.497e-01  0.1064 n n n n n n n n Guess.
    1  110    0  3.526e-02  2.449e-01  0.0724 n n n n n n n n 
    2  120    0  2.081e-02  1.003e-01  0.0702 n n n n n n n n 
    3  130    0  1.350e-02  8.525e-02  0.0701 n n n n n n n n 
    4  140    0  5.927e-03  3.019e-02  0.0701 n n n n n n n n 
    5  150    0  3.244e-03  2.352e-02  0.0701 n n n n n n n n 
    6  160    0  1.782e-03  1.445e-02  0.0701 n n n n n n n n 
    7  170    1  1.426e-03  1.325e-02  0.0701 y n n n n n n n 
    8  180    2  3.052e-03  3.037e-02  0.0701 y y n n n n n n 
    9  190    4  1.401e-03  1.393e-02  0.0701 y y n y n y n n 
   10  200    5  5.908e-04  5.876e-03  0.0701 y y y y n y n n 
   11   20    6  2.690e-04  2.681e-03  0.0701 y y y y y y n n Subspace collapsed.
   12   30    6  2.266e-04  2.262e-03  0.0701 y y y y y y n n 
   13   40    6  1.609e-04  1.608e-03  0.0701 y y y y y y n n 
   14   50    7  8.727e-05  8.716e-04  0.0701 y y y y y y y n 
   15   60    7  4.193e-05  4.179e-04  0.0701 y y y y y y y n 
   16   70    7  2.290e-05  2.263e-04  0.0701 y y y y y y y n 
   17   80    7  1.415e-05  1.377e-04  0.0701 y y y y y y y n 
   18   90    7  1.397e-05  1.370e-04  0.0701 y y y y y y y n 
   19  100    7  1.073e-05  1.060e-04  0.0701 y y y y y y y n 
   20  110    9  8.517e-06  8.474e-05  0.0701 y y y y y y y y 
   21  120    9  6.994e-06  6.986e-05  0.0701 y y y y y y y y 
   22  130    9  5.316e-06  5.314e-05  0.0701 y y y y y y y y 
   23  139    9  3.300e-06  3.299e-05  0.0701 y y y y y y y y 
   24  148    9  1.581e-06  1.581e-05  0.0701 y y y y y y y y 
   25  156   10  6.416e-07  6.415e-06  0.0701 y y y y y y y y Converged.
--------------------------------------------------------------------------------
  Davidson Summary: 
 ------------------------------------------------------------
  State  0: excitation energy =   0.0701 a.u.   (converged)
  State  1: excitation energy =   0.1175 a.u.   (converged)
  State  2: excitation energy =   0.2256 a.u.   (converged)
  State  3: excitation energy =   0.2296 a.u.   (converged)
  State  4: excitation energy =   0.2673 a.u.   (converged)
  State  5: excitation energy =   0.2772 a.u.   (converged)
  State  6: excitation energy =   0.3259 a.u.   (converged)
  State  7: excitation energy =   0.3318 a.u.   (converged)
  State  8: excitation energy =   0.3369 a.u.   (converged)
  State  9: excitation energy =   0.3433 a.u.   (converged)
 ------------------------------------------------------------


--------------------------------------------------------------------------------
                   State-averaged natural transition orbitals
--------------------------------------------------------------------------------
--------------------------------------------------------------------------------

--------------------------------------------------------------------------------
                             Excited State Summary
--------------------------------------------------------------------------------
--------------------------------------------------------------------------------

  Excited state 1 (singlet, A2)                                    [converged]
  ----------------------------------------------------------------------------
  Term symbol:  1 (1) A2                                    R^2 =  4.74853e-15

  Total energy:                                            -78.7777699186 a.u.
  Excitation energy:                                               1.907421 eV

  Osc. strength:                                                      0.000000
  Trans. dip. moment [a.u.]:           [  -0.000000,   -0.000000,    0.000000]
  <i|r^2|0> [a.u.]:                    [   0.000000,    0.000000,    0.000000]

  Dip. moment [a.u.]:                  [   0.000000,    0.000000,    0.478380]
  Total dipole [Debye]:                                               1.215921
  <r^2> [a.u.]:                        [  85.310417,   48.462320,   65.943264]
  Total <r^2> [a.u.]:                                               199.716001

  V1^2 = 0.8766, V2^2 = 0.1234

  Important amplitudes:
      occ i      occ j       vir a       vir b          v   
    ---------------------------------------------------------
     5 (A1) A               1 (A2) A                  0.6350
     5 (A1) A               2 (A2) A                 -0.1854
    ---------------------------------------------------------

  Density matrix analysis:
  ------------------------
  NOs
    Occupation of frontier NOs:
       0.9846   0.9948
    Number of electrons: 18.000000
    Number of unpaired electrons: n_u =  2.42492, n_u,nl =  2.05015
    NO participation ratio (PR_NO):  2.981562
  
  
  Mulliken Population Analysis
  Atom      Charge (e)              h+              e-           Del q
  --------------------------------------------------------------------
   1 C       -0.663177        0.265188       -0.551758       -0.286570
   2 C       -0.663177        0.265188       -0.551758       -0.286570
   3 H        0.085691        0.025857       -0.076777       -0.050920
   4 H        0.085691        0.025857       -0.076777       -0.050920
   5 H        0.067667        0.041842       -0.001925        0.039918
   6 H        0.067667        0.041842       -0.001925        0.039918
   7 H        0.019638        0.698023       -0.102877        0.595146
  --------------------------------------------------------------------
  Sum:       -1.000000        1.363797       -1.363797       -0.000000
  
  Multipole moment analysis of the density matrix
    Molecular charge:                      -1.000000
    Number of electrons:                   18.000000
      Center of electronic charge [Ang]: [ -0.000000,  -0.000000,  -0.014064]
    Total nuclear charge:                  17.000000
      Center of nuclear charge [Ang]:    [ -0.000000,   0.000000,   0.000000]
    Dipole moment [D]:                     1.215921
      Cartesian components [D]:          [  0.000000,   0.000000,   1.215921]
    RMS size of the density [Ang]:         1.762615
      Cartesian components [Ang]:        [  1.152036,   0.868294,   1.012764]
  
  Exciton analysis of the difference density matrix
    <r_h> [Ang]:                  [ -0.000000,  -0.000000,   1.914742]
    <r_e> [Ang]:                  [ -0.000000,  -0.000000,   0.156113]
    |<r_e - r_h>| [Ang]:            1.758629
    Hole size [Ang]:                2.593827
      Cartesian components [Ang]: [  1.230229,   1.107945,   1.996730]
    Electron size [Ang]:            4.369777
      Cartesian components [Ang]: [  2.802456,   2.743982,   1.926590]

  Transition density matrix analysis:
  -----------------------------------
  
  CT numbers (Mulliken)
    omega =     0.8642
    <Phe> =     0.0011
  
  Exciton analysis of the transition density matrix
    Trans. dipole moment [D]:             0.000000
      Cartesian components [D]:         [ -0.000000,  -0.000000,   0.000000]
    <r_h> [Ang]:                        [ -0.000000,  -0.000000,   2.566717]
    <r_e> [Ang]:                        [ -0.000000,  -0.000000,  -0.176249]
    |<r_e - r_h>| [Ang]:                  2.742966
    Hole size [Ang]:                      1.931036
      Cartesian components [Ang]:       [  0.963443,   0.923286,   1.395787]
    Electron size [Ang]:                  4.824977
      Cartesian components [Ang]:       [  3.178838,   3.143219,   1.815371]
    RMS electron-hole separation [Ang]:   5.875493
      Cartesian components [Ang]:       [  3.320282,   3.275598,   3.573177]
    Covariance(r_h, r_e) [Ang^2]:         0.005877
    Correlation coefficient:              0.000631
    Center-of-mass size [Ang]:            2.599089
      Cartesian components [Ang]:       [  1.661490,   1.638217,   1.144973]

  Decomposition into state-averaged NTOs
    H- 1 -> L+ 1:  0.5131 ( 52.7%)
    H- 1 -> L+ 3: -0.4107 ( 33.7%)
                   omega =  86.4%
  ----------------------------------------------------------------------------


  Excited state 2 (singlet, A2)                                    [converged]
  ----------------------------------------------------------------------------
  Term symbol:  2 (1) A2                                    R^2 =  3.68534e-15

  Total energy:                                            -78.7303305658 a.u.
  Excitation energy:                                               3.198312 eV

  Osc. strength:                                                      0.000000
  Trans. dip. moment [a.u.]:           [  -0.000000,    0.000000,    0.000000]
  <i|r^2|0> [a.u.]:                    [   0.000000,    0.000000,   -0.000000]

  Dip. moment [a.u.]:                  [  -0.000000,   -0.000000,    0.448264]
  Total dipole [Debye]:                                               1.139373
  <r^2> [a.u.]:                        [  66.449414,   29.499319,   60.739580]
  Total <r^2> [a.u.]:                                               156.688314

  V1^2 = 0.8483, V2^2 = 0.1517

  Important amplitudes:
      occ i      occ j       vir a       vir b          v   
    ---------------------------------------------------------
     5 (A1) A               2 (A2) A                 -0.5979
     5 (A1) A               1 (A2) A                 -0.1896
    ---------------------------------------------------------

  Density matrix analysis:
  ------------------------
  NOs
    Occupation of frontier NOs:
       0.9807   0.9870
    Number of electrons: 18.000000
    Number of unpaired electrons: n_u =  2.44542, n_u,nl =  2.05325
    NO participation ratio (PR_NO):  3.066606
  
  
  Mulliken Population Analysis
  Atom      Charge (e)              h+              e-           Del q
  --------------------------------------------------------------------
   1 C       -0.576954        0.367489       -0.567837       -0.200348
   2 C       -0.576954        0.367489       -0.567837       -0.200348
   3 H        0.037772        0.031106       -0.129945       -0.098839
   4 H        0.037772        0.031106       -0.129945       -0.098839
   5 H        0.025188        0.012793       -0.015354       -0.002561
   6 H        0.025188        0.012793       -0.015354       -0.002561
   7 H        0.027988        0.689748       -0.086252        0.603496
  --------------------------------------------------------------------
  Sum:       -1.000000        1.512524       -1.512524       -0.000000
  
  Multipole moment analysis of the density matrix
    Molecular charge:                      -1.000000
    Number of electrons:                   18.000000
      Center of electronic charge [Ang]: [  0.000000,   0.000000,  -0.013178]
    Total nuclear charge:                  17.000000
      Center of nuclear charge [Ang]:    [ -0.000000,   0.000000,   0.000000]
    Dipole moment [D]:                     1.139372
      Cartesian components [D]:          [ -0.000000,  -0.000000,   1.139372]
    RMS size of the density [Ang]:         1.561233
      Cartesian components [Ang]:        [  1.016741,   0.677440,   0.971988]
  
  Exciton analysis of the difference density matrix
    <r_h> [Ang]:                  [ -0.000000,  -0.000000,   1.726564]
    <r_e> [Ang]:                  [  0.000000,   0.000000,   0.151398]
    |<r_e - r_h>| [Ang]:            1.575166
    Hole size [Ang]:                2.532102
      Cartesian components [Ang]: [  1.194197,   1.105270,   1.940054]
    Electron size [Ang]:            3.044782
      Cartesian components [Ang]: [  1.910767,   1.842021,   1.492187]

  Transition density matrix analysis:
  -----------------------------------
  
  CT numbers (Mulliken)
    omega =     0.8269
    <Phe> =    -0.0005
  
  Exciton analysis of the transition density matrix
    Trans. dipole moment [D]:             0.000000
      Cartesian components [D]:         [ -0.000000,   0.000000,   0.000000]
    <r_h> [Ang]:                        [ -0.000000,  -0.000000,   2.552321]
    <r_e> [Ang]:                        [ -0.000000,   0.000000,  -0.174954]
    |<r_e - r_h>| [Ang]:                  2.727275
    Hole size [Ang]:                      1.934359
      Cartesian components [Ang]:       [  0.960533,   0.918792,   1.405326]
    Electron size [Ang]:                  3.209853
      Cartesian components [Ang]:       [  2.137163,   2.070559,   1.203524]
    RMS electron-hole separation [Ang]:   4.632393
      Cartesian components [Ang]:       [  2.338658,   2.264779,   3.295530]
    Covariance(r_h, r_e) [Ang^2]:         0.011929
    Correlation coefficient:              0.001921
    Center-of-mass size [Ang]:            1.875417
      Cartesian components [Ang]:       [  1.173761,   1.132869,   0.925247]

  Decomposition into state-averaged NTOs
    H- 1 -> L+ 3:  0.4698 ( 44.1%)
    H- 1 -> L+ 1:  0.3596 ( 25.9%)
    H- 1 -> L+ 6:  0.2513 ( 12.6%)
                   omega =  82.7%
  ----------------------------------------------------------------------------


  Excited state 3 (singlet, A2)                                    [converged]
  ----------------------------------------------------------------------------
  Term symbol:  3 (1) A2                                    R^2 =  3.19825e-13

  Total energy:                                            -78.6222686949 a.u.
  Excitation energy:                                               6.138825 eV

  Osc. strength:                                                      0.000000
  Trans. dip. moment [a.u.]:           [  -0.000000,    0.000000,    0.000000]
  <i|r^2|0> [a.u.]:                    [  -0.000000,   -0.000000,   -0.000000]

  Dip. moment [a.u.]:                  [  -0.000000,   -0.000000,    1.203451]
  Total dipole [Debye]:                                               3.058868
  <r^2> [a.u.]:                        [  70.347746,   61.371690,   70.368187]
  Total <r^2> [a.u.]:                                               202.087623

  V1^2 = 0.0514, V2^2 = 0.9486

  Important amplitudes:
      occ i      occ j       vir a       vir b          v   
    ---------------------------------------------------------
     5 (A1) A   1 (B2) B    2 (A2) A    2 (B2) B      0.2254
     5 (A1) A   1 (B2) B    3 (A2) A    2 (B2) B      0.1531
    ---------------------------------------------------------

  Density matrix analysis:
  ------------------------
  NOs
    Occupation of frontier NOs:
       0.9693   0.9763
    Number of electrons: 18.000000
    Number of unpaired electrons: n_u =  4.27654, n_u,nl =  4.02805
    NO participation ratio (PR_NO):  4.889714
  
  
  Mulliken Population Analysis
  Atom      Charge (e)              h+              e-           Del q
  --------------------------------------------------------------------
   1 C       -0.781413        0.557105       -0.961911       -0.404806
   2 C       -0.781413        0.557105       -0.961911       -0.404806
   3 H        0.141856        0.015365       -0.010121        0.005245
   4 H        0.141856        0.015365       -0.010121        0.005245
   5 H        0.028066        0.004404       -0.004087        0.000317
   6 H        0.028066        0.004404       -0.004087        0.000317
   7 H        0.222982        0.800897       -0.002408        0.798489
  --------------------------------------------------------------------
  Sum:       -1.000000        1.954646       -1.954646        0.000000
  
  Multipole moment analysis of the density matrix
    Molecular charge:                      -1.000000
    Number of electrons:                   18.000000
      Center of electronic charge [Ang]: [  0.000000,   0.000000,  -0.035380]
    Total nuclear charge:                  17.000000
      Center of nuclear charge [Ang]:    [ -0.000000,   0.000000,   0.000000]
    Dipole moment [D]:                     3.058867
      Cartesian components [D]:          [ -0.000000,  -0.000000,   3.058867]
    RMS size of the density [Ang]:         1.772753
      Cartesian components [Ang]:        [  1.046140,   0.977122,   1.045694]
  
  Exciton analysis of the difference density matrix
    <r_h> [Ang]:                  [ -0.000000,   0.000000,   1.258135]
    <r_e> [Ang]:                  [  0.000000,   0.000000,  -0.165193]
    |<r_e - r_h>| [Ang]:            1.423329
    Hole size [Ang]:                2.101032
      Cartesian components [Ang]: [  0.840530,   0.880759,   1.712340]
    Electron size [Ang]:            3.520998
      Cartesian components [Ang]: [  1.728192,   2.649931,   1.545525]

  Transition density matrix analysis:
  -----------------------------------
  
  CT numbers (Mulliken)
    omega =     0.0507
    <Phe> =     0.0005
  
  Exciton analysis of the transition density matrix
    Trans. dipole moment [D]:             0.000000
      Cartesian components [D]:         [ -0.000000,   0.000000,   0.000000]
    <r_h> [Ang]:                        [ -0.000000,  -0.000000,   2.466231]
    <r_e> [Ang]:                        [ -0.000000,   0.000000,  -0.213268]
    |<r_e - r_h>| [Ang]:                  2.679498
    Hole size [Ang]:                      1.978568
      Cartesian components [Ang]:       [  0.960321,   0.919519,   1.465264]
    Electron size [Ang]:                  3.931877
      Cartesian components [Ang]:       [  2.597201,   2.540738,   1.502949]
    RMS electron-hole separation [Ang]:   5.132927
      Cartesian components [Ang]:       [  2.768025,   2.700940,   3.374892]
    Covariance(r_h, r_e) [Ang^2]:         0.103579
    Correlation coefficient:              0.013314
    Center-of-mass size [Ang]:            2.212552
      Cartesian components [Ang]:       [  1.385043,   1.351540,   1.072558]

  Decomposition into state-averaged NTOs
    H- 1 -> L+ 6:  0.1039 (  2.2%)
    H- 1 -> L+ 1: -0.0840 (  1.4%)
    H- 1 -> L+ 3: -0.0808 (  1.3%)
                   omega =   5.1%
  ----------------------------------------------------------------------------


  Excited state 4 (singlet, A2)                                    [converged]
  ----------------------------------------------------------------------------
  Term symbol:  4 (1) A2                                    R^2 =  1.14250e-13

  Total energy:                                            -78.6182463463 a.u.
  Excitation energy:                                               6.248278 eV

  Osc. strength:                                                      0.000000
  Trans. dip. moment [a.u.]:           [   0.000000,    0.000000,   -0.000000]
  <i|r^2|0> [a.u.]:                    [   0.000000,    0.000000,   -0.000000]

  Dip. moment [a.u.]:                  [   0.000000,   -0.000000,   -1.289699]
  Total dipole [Debye]:                                               3.278089
  <r^2> [a.u.]:                        [  93.203759,   28.089641,   98.286044]
  Total <r^2> [a.u.]:                                               219.579444

  V1^2 = 0.9186, V2^2 = 0.0814

  Important amplitudes:
      occ i      occ j       vir a       vir b          v   
    ---------------------------------------------------------
     1 (B2) A               4 (B1) A                  0.6427
     1 (B2) A               6 (B1) A                  0.1627
    ---------------------------------------------------------

  Density matrix analysis:
  ------------------------
  NOs
    Occupation of frontier NOs:
       0.9799   0.9874
    Number of electrons: 18.000000
    Number of unpaired electrons: n_u =  2.38626, n_u,nl =  2.03622
    NO participation ratio (PR_NO):  2.927981
  
  
  Mulliken Population Analysis
  Atom      Charge (e)              h+              e-           Del q
  --------------------------------------------------------------------
   1 C       -0.523472        0.553849       -0.700714       -0.146865
   2 C       -0.523472        0.553849       -0.700714       -0.146865
   3 H        0.184207        0.073459       -0.025864        0.047595
   4 H        0.184207        0.073459       -0.025864        0.047595
   5 H        0.115237        0.120557       -0.033069        0.087488
   6 H        0.115237        0.120557       -0.033069        0.087488
   7 H       -0.551944        0.092694       -0.069130        0.023564
  --------------------------------------------------------------------
  Sum:       -1.000000        1.588424       -1.588424       -0.000000
  
  Multipole moment analysis of the density matrix
    Molecular charge:                      -1.000000
    Number of electrons:                   18.000000
      Center of electronic charge [Ang]: [ -0.000000,   0.000000,   0.037916]
    Total nuclear charge:                  17.000000
      Center of nuclear charge [Ang]:    [ -0.000000,   0.000000,   0.000000]
    Dipole moment [D]:                     3.278088
      Cartesian components [D]:          [  0.000000,  -0.000000,  -3.278088]
    RMS size of the density [Ang]:         1.847861
      Cartesian components [Ang]:        [  1.204153,   0.661056,   1.235966]
  
  Exciton analysis of the difference density matrix
    <r_h> [Ang]:                  [ -0.000000,  -0.000000,   0.006243]
    <r_e> [Ang]:                  [ -0.000000,   0.000000,  -0.914661]
    |<r_e - r_h>| [Ang]:            0.920904
    Hole size [Ang]:                2.124737
      Cartesian components [Ang]: [  1.175641,   0.997162,   1.462205]
    Electron size [Ang]:            3.830276
      Cartesian components [Ang]: [  2.866593,   1.677343,   1.907925]

  Transition density matrix analysis:
  -----------------------------------
  
  CT numbers (Mulliken)
    omega =     0.8889
    <Phe> =    -0.0016
  
  Exciton analysis of the transition density matrix
    Trans. dipole moment [D]:             0.000000
      Cartesian components [D]:         [  0.000000,   0.000000,  -0.000000]
    <r_h> [Ang]:                        [ -0.000000,   0.000000,  -0.183859]
    <r_e> [Ang]:                        [ -0.000000,   0.000000,  -1.624714]
    |<r_e - r_h>| [Ang]:                  1.440855
    Hole size [Ang]:                      1.276901
      Cartesian components [Ang]:       [  0.763537,   0.881572,   0.519921]
    Electron size [Ang]:                  4.404273
      Cartesian components [Ang]:       [  3.504781,   2.012442,   1.750489]
    RMS electron-hole separation [Ang]:   4.798437
      Cartesian components [Ang]:       [  3.579551,   2.191408,   2.325842]
    Covariance(r_h, r_e) [Ang^2]:         0.039582
    Correlation coefficient:              0.007038
    Center-of-mass size [Ang]:            2.297132
      Cartesian components [Ang]:       [  1.797204,   1.101353,   0.913179]

  Decomposition into state-averaged NTOs
    H- 0 -> L+ 0:  0.6639 ( 88.2%)
                   omega =  88.9%
  ----------------------------------------------------------------------------


  Excited state 5 (singlet, A2)                                    [converged]
  ----------------------------------------------------------------------------
  Term symbol:  5 (1) A2                                    R^2 =  1.72522e-12

  Total energy:                                            -78.5805166045 a.u.
  Excitation energy:                                               7.274957 eV

  Osc. strength:                                                      0.000000
  Trans. dip. moment [a.u.]:           [   0.000000,    0.000000,   -0.000000]
  <i|r^2|0> [a.u.]:                    [   0.000000,    0.000000,    0.000000]

  Dip. moment [a.u.]:                  [  -0.000000,   -0.000000,    0.507857]
  Total dipole [Debye]:                                               1.290845
  <r^2> [a.u.]:                        [  68.662895,   34.081766,   62.068129]
  Total <r^2> [a.u.]:                                               164.812791

  V1^2 = 0.7933, V2^2 = 0.2067

  Important amplitudes:
      occ i      occ j       vir a       vir b          v   
    ---------------------------------------------------------
     5 (A1) A               3 (A2) A                  0.6023
     5 (A1) A               2 (A2) A                 -0.1723
    ---------------------------------------------------------

  Density matrix analysis:
  ------------------------
  NOs
    Occupation of frontier NOs:
       0.9067   0.9761
    Number of electrons: 18.000000
    Number of unpaired electrons: n_u =  2.61219, n_u,nl =  2.15475
    NO participation ratio (PR_NO):  3.742877
  
  
  Mulliken Population Analysis
  Atom      Charge (e)              h+              e-           Del q
  --------------------------------------------------------------------
   1 C       -0.608850        0.338136       -0.570380       -0.232244
   2 C       -0.608850        0.338136       -0.570380       -0.232244
   3 H        0.055669        0.023589       -0.104530       -0.080942
   4 H        0.055669        0.023589       -0.104530       -0.080942
   5 H        0.032666        0.010589       -0.005671        0.004917
   6 H        0.032666        0.010589       -0.005671        0.004917
   7 H        0.041028        0.694909       -0.078373        0.616536
  --------------------------------------------------------------------
  Sum:       -1.000000        1.439536       -1.439536       -0.000000
  
  Multipole moment analysis of the density matrix
    Molecular charge:                      -1.000000
    Number of electrons:                   18.000000
      Center of electronic charge [Ang]: [  0.000000,   0.000000,  -0.014930]
    Total nuclear charge:                  17.000000
      Center of nuclear charge [Ang]:    [ -0.000000,   0.000000,   0.000000]
    Dipole moment [D]:                     1.290845
      Cartesian components [D]:          [ -0.000000,  -0.000000,   1.290845]
    RMS size of the density [Ang]:         1.601185
      Cartesian components [Ang]:        [  1.033537,   0.728159,   0.982537]
  
  Exciton analysis of the difference density matrix
    <r_h> [Ang]:                  [ -0.000000,  -0.000000,   1.810849]
    <r_e> [Ang]:                  [  0.000000,   0.000000,   0.133912]
    |<r_e - r_h>| [Ang]:            1.676937
    Hole size [Ang]:                2.541847
      Cartesian components [Ang]: [  1.187790,   1.155554,   1.927392]
    Electron size [Ang]:            3.346445
      Cartesian components [Ang]: [  2.044300,   2.123259,   1.584710]

  Transition density matrix analysis:
  -----------------------------------
  
  CT numbers (Mulliken)
    omega =     0.7791
    <Phe> =    -0.0006
  
  Exciton analysis of the transition density matrix
    Trans. dipole moment [D]:             0.000000
      Cartesian components [D]:         [  0.000000,   0.000000,  -0.000000]
    <r_h> [Ang]:                        [ -0.000000,  -0.000000,   2.548695]
    <r_e> [Ang]:                        [ -0.000000,   0.000000,  -0.176934]
    |<r_e - r_h>| [Ang]:                  2.725629
    Hole size [Ang]:                      1.936770
      Cartesian components [Ang]:       [  0.960348,   0.919460,   1.408334]
    Electron size [Ang]:                  3.463163
      Cartesian components [Ang]:       [  2.283511,   2.250266,   1.309724]
    RMS electron-hole separation [Ang]:   4.811906
      Cartesian components [Ang]:       [  2.475508,   2.429864,   3.334975]
    Covariance(r_h, r_e) [Ang^2]:         0.009597
    Correlation coefficient:              0.001431
    Center-of-mass size [Ang]:            1.985181
      Cartesian components [Ang]:       [  1.239481,   1.215932,   0.962361]

  Decomposition into state-averaged NTOs
    H- 1 -> L+ 6: -0.5692 ( 64.8%)
    H- 1 -> L+ 3:  0.1934 (  7.5%)
    H- 1 -> L+ 1:  0.1631 (  5.3%)
                   omega =  77.9%
  ----------------------------------------------------------------------------


  Excited state 6 (singlet, A2)                                    [converged]
  ----------------------------------------------------------------------------
  Term symbol:  6 (1) A2                                    R^2 =  6.60270e-13

  Total energy:                                            -78.5706669297 a.u.
  Excitation energy:                                               7.542980 eV

  Osc. strength:                                                      0.000000
  Trans. dip. moment [a.u.]:           [  -0.000000,   -0.000000,   -0.000000]
  <i|r^2|0> [a.u.]:                    [  -0.000000,   -0.000000,   -0.000000]

  Dip. moment [a.u.]:                  [  -0.000000,   -0.000000,   -5.620400]
  Total dipole [Debye]:                                              14.285633
  <r^2> [a.u.]:                        [  92.705182,   27.326302,  113.040294]
  Total <r^2> [a.u.]:                                               233.071778

  V1^2 = 0.9035, V2^2 = 0.0965

  Important amplitudes:
      occ i      occ j       vir a       vir b          v   
    ---------------------------------------------------------
     1 (B2) A               5 (B1) A                 -0.6395
     1 (B2) A               4 (B1) A                  0.1286
    ---------------------------------------------------------

  Density matrix analysis:
  ------------------------
  NOs
    Occupation of frontier NOs:
       0.9842   0.9875
    Number of electrons: 18.000000
    Number of unpaired electrons: n_u =  2.40168, n_u,nl =  2.03970
    NO participation ratio (PR_NO):  2.951699
  
  
  Mulliken Population Analysis
  Atom      Charge (e)              h+              e-           Del q
  --------------------------------------------------------------------
   1 C       -0.529341        0.548410       -0.701145       -0.152735
   2 C       -0.529341        0.548410       -0.701145       -0.152735
   3 H        0.148487        0.088863       -0.076987        0.011876
   4 H        0.148487        0.088863       -0.076987        0.011876
   5 H        0.113759        0.097180       -0.011170        0.086010
   6 H        0.113759        0.097180       -0.011170        0.086010
   7 H       -0.465811        0.156030       -0.046334        0.109697
  --------------------------------------------------------------------
  Sum:       -1.000000        1.624937       -1.624937       -0.000000
  
  Multipole moment analysis of the density matrix
    Molecular charge:                      -1.000000
    Number of electrons:                   18.000000
      Center of electronic charge [Ang]: [  0.000000,   0.000000,   0.165233]
    Total nuclear charge:                  17.000000
      Center of nuclear charge [Ang]:    [ -0.000000,   0.000000,   0.000000]
    Dipole moment [D]:                     14.285629
      Cartesian components [D]:          [ -0.000000,  -0.000000, -14.285629]
    RMS size of the density [Ang]:         1.897005
      Cartesian components [Ang]:        [  1.200928,   0.652012,   1.315782]
  
  Exciton analysis of the difference density matrix
    <r_h> [Ang]:                  [ -0.000000,  -0.000000,   0.157154]
    <r_e> [Ang]:                  [  0.000000,   0.000000,   0.667280]
    |<r_e - r_h>| [Ang]:            0.510126
    Hole size [Ang]:                2.103003
      Cartesian components [Ang]: [  1.155964,   0.955795,   1.474051]
    Electron size [Ang]:            4.131981
      Cartesian components [Ang]: [  2.816375,   1.600082,   2.565353]

  Transition density matrix analysis:
  -----------------------------------
  
  CT numbers (Mulliken)
    omega =     0.8744
    <Phe> =    -0.0002
  
  Exciton analysis of the transition density matrix
    Trans. dipole moment [D]:             0.000000
      Cartesian components [D]:         [ -0.000000,  -0.000000,  -0.000000]
    <r_h> [Ang]:                        [ -0.000000,   0.000000,  -0.176932]
    <r_e> [Ang]:                        [  0.000000,   0.000000,   0.887482]
    |<r_e - r_h>| [Ang]:                  1.064414
    Hole size [Ang]:                      1.285801
      Cartesian components [Ang]:       [  0.764074,   0.882059,   0.539857]
    Electron size [Ang]:                  5.013006
      Cartesian components [Ang]:       [  3.465665,   1.928989,   3.065680]
    RMS electron-hole separation [Ang]:   5.280558
      Cartesian components [Ang]:       [  3.542944,   2.120551,   3.291672]
    Covariance(r_h, r_e) [Ang^2]:         0.016099
    Correlation coefficient:              0.002498
    Center-of-mass size [Ang]:            2.589195
      Cartesian components [Ang]:       [  1.777417,   1.060816,   1.555439]

  Decomposition into state-averaged NTOs
    H- 0 -> L+ 2: -0.6595 ( 87.0%)
                   omega =  87.4%
  ----------------------------------------------------------------------------


  Excited state 7 (singlet, A2)                                    [converged]
  ----------------------------------------------------------------------------
  Term symbol:  7 (1) A2                                    R^2 =  4.25287e-09

  Total energy:                                            -78.5220122942 a.u.
  Excitation energy:                                               8.866940 eV

  Osc. strength:                                                      0.000000
  Trans. dip. moment [a.u.]:           [  -0.000000,   -0.000000,   -0.000000]
  <i|r^2|0> [a.u.]:                    [  -0.000000,   -0.000000,   -0.000000]

  Dip. moment [a.u.]:                  [  -0.000000,   -0.000000,    0.652049]
  Total dipole [Debye]:                                               1.657343
  <r^2> [a.u.]:                        [ 104.034082,   36.444532,  102.588753]
  Total <r^2> [a.u.]:                                               243.067367

  V1^2 = 0.0736, V2^2 = 0.9264

  Important amplitudes:
      occ i      occ j       vir a       vir b          v   
    ---------------------------------------------------------
     1 (B2) A               6 (B1) A                 -0.1739
     5 (A1) A   1 (B2) B    5 (B1) A    7 (A1) B      0.1343
    ---------------------------------------------------------

  Density matrix analysis:
  ------------------------
  NOs
    Occupation of frontier NOs:
       0.7845   0.9424
    Number of electrons: 18.000000
    Number of unpaired electrons: n_u =  4.18192, n_u,nl =  4.00104
    NO participation ratio (PR_NO):  5.794671
  
  
  Mulliken Population Analysis
  Atom      Charge (e)              h+              e-           Del q
  --------------------------------------------------------------------
   1 C       -0.689836        0.566849       -0.880078       -0.313229
   2 C       -0.689836        0.566849       -0.880078       -0.313229
   3 H        0.129051        0.017004       -0.024564       -0.007560
   4 H        0.129051        0.017004       -0.024564       -0.007560
   5 H        0.010651        0.011062       -0.028161       -0.017098
   6 H        0.010651        0.011062       -0.028161       -0.017098
   7 H        0.100267        0.754383       -0.078608        0.675775
  --------------------------------------------------------------------
  Sum:       -1.000000        1.944215       -1.944215        0.000000
  
  Multipole moment analysis of the density matrix
    Molecular charge:                      -1.000000
    Number of electrons:                   18.000000
      Center of electronic charge [Ang]: [  0.000000,   0.000000,  -0.019169]
    Total nuclear charge:                  17.000000
      Center of nuclear charge [Ang]:    [ -0.000000,   0.000000,   0.000000]
    Dipole moment [D]:                     1.657342
      Cartesian components [D]:          [ -0.000000,  -0.000000,   1.657342]
    RMS size of the density [Ang]:         1.944496
      Cartesian components [Ang]:        [  1.272192,   0.752976,   1.263179]
  
  Exciton analysis of the difference density matrix
    <r_h> [Ang]:                  [ -0.000000,   0.000000,   1.165916]
    <r_e> [Ang]:                  [  0.000000,   0.000000,  -0.114968]
    |<r_e - r_h>| [Ang]:            1.280884
    Hole size [Ang]:                2.077016
      Cartesian components [Ang]: [  0.834118,   0.870416,   1.691336]
    Electron size [Ang]:            4.245525
      Cartesian components [Ang]: [  2.800007,   1.856673,   2.595612]

  Transition density matrix analysis:
  -----------------------------------
  
  CT numbers (Mulliken)
    omega =     0.0712
    <Phe> =    -0.0031
  
  Exciton analysis of the transition density matrix
    Trans. dipole moment [D]:             0.000000
      Cartesian components [D]:         [ -0.000000,  -0.000000,  -0.000000]
    <r_h> [Ang]:                        [ -0.000000,  -0.000000,  -0.181091]
    <r_e> [Ang]:                        [  0.000000,  -0.000000,  -1.107684]
    |<r_e - r_h>| [Ang]:                  0.926592
    Hole size [Ang]:                      1.279363
      Cartesian components [Ang]:       [  0.772748,   0.872991,   0.526800]
    Electron size [Ang]:                  4.129772
      Cartesian components [Ang]:       [  3.254817,   1.806590,   1.788132]
    RMS electron-hole separation [Ang]:   4.410798
      Cartesian components [Ang]:       [  3.335894,   1.999789,   2.080336]
    Covariance(r_h, r_e) [Ang^2]:         0.047610
    Correlation coefficient:              0.009011
    Center-of-mass size [Ang]:            2.167199
      Cartesian components [Ang]:       [  1.677331,   1.006554,   0.932824]

  Decomposition into state-averaged NTOs
    H- 0 -> L+ 4: -0.1781 (  6.3%)
                   omega =   7.1%
  ----------------------------------------------------------------------------


  Excited state 8 (singlet, A2)                                    [converged]
  ----------------------------------------------------------------------------
  Term symbol:  8 (1) A2                                    R^2 =  5.15899e-08

  Total energy:                                            -78.5160634529 a.u.
  Excitation energy:                                               9.028816 eV

  Osc. strength:                                                      0.000000
  Trans. dip. moment [a.u.]:           [   0.000000,    0.000000,    0.000000]
  <i|r^2|0> [a.u.]:                    [   0.000000,    0.000000,    0.000000]

  Dip. moment [a.u.]:                  [  -0.000000,    0.000000,   -2.441253]
  Total dipole [Debye]:                                               6.205048
  <r^2> [a.u.]:                        [  93.367373,   30.155223,   94.615856]
  Total <r^2> [a.u.]:                                               218.138452

  V1^2 = 0.7207, V2^2 = 0.2793

  Important amplitudes:
      occ i      occ j       vir a       vir b          v   
    ---------------------------------------------------------
     1 (B2) A               6 (B1) A                  0.5361
     1 (B2) A               4 (B1) A                 -0.1304
    ---------------------------------------------------------

  Density matrix analysis:
  ------------------------
  NOs
    Occupation of frontier NOs:
       0.7442   0.9868
    Number of electrons: 18.000000
    Number of unpaired electrons: n_u =  2.85753, n_u,nl =  2.34265
    NO participation ratio (PR_NO):  4.887514
  
  
  Mulliken Population Analysis
  Atom      Charge (e)              h+              e-           Del q
  --------------------------------------------------------------------
   1 C       -0.559661        0.519754       -0.702810       -0.183055
   2 C       -0.559661        0.519754       -0.702810       -0.183055
   3 H        0.174357        0.052905       -0.015159        0.037746
   4 H        0.174357        0.052905       -0.015159        0.037746
   5 H        0.087589        0.079388       -0.019548        0.059840
   6 H        0.087589        0.079388       -0.019548        0.059840
   7 H       -0.404569        0.216332       -0.045394        0.170938
  --------------------------------------------------------------------
  Sum:       -1.000000        1.520427       -1.520427        0.000000
  
  Multipole moment analysis of the density matrix
    Molecular charge:                      -1.000000
    Number of electrons:                   18.000000
      Center of electronic charge [Ang]: [  0.000000,  -0.000000,   0.071770]
    Total nuclear charge:                  17.000000
      Center of nuclear charge [Ang]:    [ -0.000000,   0.000000,   0.000000]
    Dipole moment [D]:                     6.205046
      Cartesian components [D]:          [ -0.000000,   0.000000,  -6.205046]
    RMS size of the density [Ang]:         1.840777
      Cartesian components [Ang]:        [  1.205209,   0.684930,   1.211116]
  
  Exciton analysis of the difference density matrix
    <r_h> [Ang]:                  [ -0.000000,   0.000000,   0.296312]
    <r_e> [Ang]:                  [  0.000000,  -0.000000,  -0.264983]
    |<r_e - r_h>| [Ang]:            0.561296
    Hole size [Ang]:                2.068049
      Cartesian components [Ang]: [  1.041521,   0.930555,   1.525166]
    Electron size [Ang]:            3.938745
      Cartesian components [Ang]: [  2.873292,   1.773941,   2.027570]

  Transition density matrix analysis:
  -----------------------------------
  
  CT numbers (Mulliken)
    omega =     0.6970
    <Phe> =    -0.0024
  
  Exciton analysis of the transition density matrix
    Trans. dipole moment [D]:             0.000000
      Cartesian components [D]:         [  0.000000,   0.000000,   0.000000]
    <r_h> [Ang]:                        [ -0.000000,   0.000000,  -0.183076]
    <r_e> [Ang]:                        [  0.000000,  -0.000000,  -0.380425]
    |<r_e - r_h>| [Ang]:                  0.197349
    Hole size [Ang]:                      1.278896
      Cartesian components [Ang]:       [  0.779830,   0.867633,   0.524074]
    Electron size [Ang]:                  4.325857
      Cartesian components [Ang]:       [  3.324211,   1.939660,   1.974938]
    RMS electron-hole separation [Ang]:   4.505405
      Cartesian components [Ang]:       [  3.405029,   2.119496,   2.052363]
    Covariance(r_h, r_e) [Ang^2]:         0.044444
    Correlation coefficient:              0.008033
    Center-of-mass size [Ang]:            2.260393
      Cartesian components [Ang]:       [  1.711930,   1.065114,   1.021864]

  Decomposition into state-averaged NTOs
    H- 0 -> L+ 4:  0.5769 ( 66.6%)
    H- 3 -> L+ 1: -0.0937 (  1.8%)
                   omega =  69.7%
  ----------------------------------------------------------------------------


  Excited state 9 (singlet, A2)                                    [converged]
  ----------------------------------------------------------------------------
  Term symbol:  9 (1) A2                                    R^2 =  7.09331e-08

  Total energy:                                            -78.5110062683 a.u.
  Excitation energy:                                               9.166429 eV

  Osc. strength:                                                      0.000000
  Trans. dip. moment [a.u.]:           [   0.000000,    0.000000,    0.000000]
  <i|r^2|0> [a.u.]:                    [   0.000000,    0.000000,    0.000000]

  Dip. moment [a.u.]:                  [  -0.000000,   -0.000000,    0.939640]
  Total dipole [Debye]:                                               2.388326
  <r^2> [a.u.]:                        [ 105.613932,   37.014607,   89.012511]
  Total <r^2> [a.u.]:                                               231.641050

  V1^2 = 0.1282, V2^2 = 0.8718

  Important amplitudes:
      occ i      occ j       vir a       vir b          v   
    ---------------------------------------------------------
     1 (B2) A               6 (B1) A                  0.2043
     5 (A1) A   1 (B2) A    7 (A1) A    4 (B1) A      0.1379
    ---------------------------------------------------------

  Density matrix analysis:
  ------------------------
  NOs
    Occupation of frontier NOs:
       0.8031   0.9515
    Number of electrons: 18.000000
    Number of unpaired electrons: n_u =  4.00843, n_u,nl =  3.83241
    NO participation ratio (PR_NO):  5.775614
  
  
  Mulliken Population Analysis
  Atom      Charge (e)              h+              e-           Del q
  --------------------------------------------------------------------
   1 C       -0.777746        0.563824       -0.964964       -0.401140
   2 C       -0.777746        0.563824       -0.964964       -0.401140
   3 H        0.154387        0.017415        0.000361        0.017775
   4 H        0.154387        0.017415        0.000361        0.017775
   5 H        0.059801        0.018444        0.013608        0.032052
   6 H        0.059801        0.018444        0.013608        0.032052
   7 H        0.127117        0.714008       -0.011383        0.702625
  --------------------------------------------------------------------
  Sum:       -1.000000        1.913374       -1.913374        0.000000
  
  Multipole moment analysis of the density matrix
    Molecular charge:                      -1.000000
    Number of electrons:                   18.000000
      Center of electronic charge [Ang]: [  0.000000,   0.000000,  -0.027624]
    Total nuclear charge:                  17.000000
      Center of nuclear charge [Ang]:    [ -0.000000,   0.000000,   0.000000]
    Dipole moment [D]:                     2.388326
      Cartesian components [D]:          [ -0.000000,  -0.000000,   2.388326]
    RMS size of the density [Ang]:         1.898133
      Cartesian components [Ang]:        [  1.281815,   0.758842,   1.176443]
  
  Exciton analysis of the difference density matrix
    <r_h> [Ang]:                  [  0.000000,   0.000000,   1.110180]
    <r_e> [Ang]:                  [  0.000000,   0.000000,  -0.270888]
    |<r_e - r_h>| [Ang]:            1.381068
    Hole size [Ang]:                2.080511
      Cartesian components [Ang]: [  0.850855,   0.878545,   1.683071]
    Electron size [Ang]:            4.047098
      Cartesian components [Ang]: [  2.866115,   1.894264,   2.139195]

  Transition density matrix analysis:
  -----------------------------------
  
  CT numbers (Mulliken)
    omega =     0.1241
    <Phe> =    -0.0013
  
  Exciton analysis of the transition density matrix
    Trans. dipole moment [D]:             0.000000
      Cartesian components [D]:         [  0.000000,   0.000000,   0.000000]
    <r_h> [Ang]:                        [ -0.000000,   0.000000,  -0.169254]
    <r_e> [Ang]:                        [  0.000000,  -0.000000,  -0.161581]
    |<r_e - r_h>| [Ang]:                  0.007673
    Hole size [Ang]:                      1.297002
      Cartesian components [Ang]:       [  0.786119,   0.862197,   0.566432]
    Electron size [Ang]:                  4.750851
      Cartesian components [Ang]:       [  3.559473,   2.210243,   2.239545]
    RMS electron-hole separation [Ang]:   4.918349
      Cartesian components [Ang]:       [  3.638400,   2.370904,   2.308899]
    Covariance(r_h, r_e) [Ang^2]:         0.031348
    Correlation coefficient:              0.005087
    Center-of-mass size [Ang]:            2.465537
      Cartesian components [Ang]:       [  1.826041,   1.187006,   1.155623]

  Decomposition into state-averaged NTOs
    H- 0 -> L+ 4:  0.2292 ( 10.5%)
                   omega =  12.4%
  ----------------------------------------------------------------------------


  Excited state 10 (singlet, A2)                                    [converged]
  ----------------------------------------------------------------------------
  Term symbol:  10 (1) A2                                   R^2 =  6.41533e-06

  Total energy:                                            -78.5045650264 a.u.
  Excitation energy:                                               9.341704 eV

  Osc. strength:                                                      0.000000
  Trans. dip. moment [a.u.]:           [   0.000000,   -0.000000,   -0.000000]
  <i|r^2|0> [a.u.]:                    [   0.000000,    0.000000,    0.000000]

  Dip. moment [a.u.]:                  [  -0.000000,   -0.000000,   -3.579552]
  Total dipole [Debye]:                                               9.098316
  <r^2> [a.u.]:                        [  64.033663,   57.806070,   89.955983]
  Total <r^2> [a.u.]:                                               211.795717

  V1^2 = 0.8677, V2^2 = 0.1323

  Important amplitudes:
      occ i      occ j       vir a       vir b          v   
    ---------------------------------------------------------
     3 (B1) A               2 (B2) A                  0.6373
     3 (B1) A               3 (B2) A                  0.1429
    ---------------------------------------------------------

  Density matrix analysis:
  ------------------------
  NOs
    Occupation of frontier NOs:
       0.9734   1.0710
    Number of electrons: 18.000000
    Number of unpaired electrons: n_u =  2.60293, n_u,nl =  2.14547
    NO participation ratio (PR_NO):  3.655213
  
  
  Mulliken Population Analysis
  Atom      Charge (e)              h+              e-           Del q
  --------------------------------------------------------------------
   1 C       -0.684904        0.337799       -0.646096       -0.308297
   2 C       -0.684904        0.337799       -0.646096       -0.308297
   3 H        0.247262        0.165115       -0.054465        0.110650
   4 H        0.247262        0.165115       -0.054465        0.110650
   5 H        0.189842        0.179562       -0.017468        0.162093
   6 H        0.189842        0.179562       -0.017468        0.162093
   7 H       -0.504400        0.119041       -0.047933        0.071108
  --------------------------------------------------------------------
  Sum:       -1.000000        1.483991       -1.483991        0.000000
  
  Multipole moment analysis of the density matrix
    Molecular charge:                      -1.000000
    Number of electrons:                   18.000000
      Center of electronic charge [Ang]: [  0.000000,   0.000000,   0.105234]
    Total nuclear charge:                  17.000000
      Center of nuclear charge [Ang]:    [ -0.000000,   0.000000,   0.000000]
    Dipole moment [D]:                     9.098313
      Cartesian components [D]:          [ -0.000000,  -0.000000,  -9.098313]
    RMS size of the density [Ang]:         1.812143
      Cartesian components [Ang]:        [  0.998089,   0.948313,   1.178297]
  
  Exciton analysis of the difference density matrix
    <r_h> [Ang]:                  [ -0.000000,  -0.000000,   0.156857]
    <r_e> [Ang]:                  [  0.000000,   0.000000,  -0.012314]
    |<r_e - r_h>| [Ang]:            0.169170
    Hole size [Ang]:                2.189951
      Cartesian components [Ang]: [  1.259819,   0.854388,   1.574409]
    Electron size [Ang]:            3.888217
      Cartesian components [Ang]: [  1.843637,   2.878302,   1.853272]

  Transition density matrix analysis:
  -----------------------------------
  
  CT numbers (Mulliken)
    omega =     0.8533
    <Phe> =    -0.0002
  
  Exciton analysis of the transition density matrix
    Trans. dipole moment [D]:             0.000000
      Cartesian components [D]:         [  0.000000,  -0.000000,  -0.000000]
    <r_h> [Ang]:                        [ -0.000000,  -0.000000,  -0.121076]
    <r_e> [Ang]:                        [  0.000000,   0.000000,  -0.176951]
    |<r_e - r_h>| [Ang]:                  0.055875
    Hole size [Ang]:                      1.521930
      Cartesian components [Ang]:       [  1.127312,   0.415634,   0.934177]
    Electron size [Ang]:                  4.468804
      Cartesian components [Ang]:       [  2.042888,   3.441617,   1.987986]
    RMS electron-hole separation [Ang]:   4.687155
      Cartesian components [Ang]:       [  2.264209,   3.466302,   2.197164]
    Covariance(r_h, r_e) [Ang^2]:         0.160091
    Correlation coefficient:              0.023539
    Center-of-mass size [Ang]:            2.377323
      Cartesian components [Ang]:       [  1.200188,   1.733473,   1.098310]

  Decomposition into state-averaged NTOs
    H- 2 -> L+ 5:  0.6480 ( 84.0%)
                   omega =  85.3%
  ----------------------------------------------------------------------------


--------------------------------------------------------------------------------
  Time of ADC calculation:  CPU 651.54 s  wall 155.55 s
================================================================================
 
 --------------------------------------------------------------
             Orbital Energies (a.u.) and Symmetries
 --------------------------------------------------------------
 
 Alpha MOs, Restricted
 -- Occupied --                  
-11.071 -11.070  -0.877  -0.620  -0.494  -0.405  -0.348  -0.214
  1 A1    1 B1    2 A1    2 B1    3 A1    4 A1    3 B1    1 B2                 
 -0.035
  5 A1                                                                         
 -- Virtual --                   
  0.136   0.157   0.160   0.162   0.173   0.176   0.253   0.277
  4 B1    2 B2    6 A1    1 A2    7 A1    5 B1    8 A1    2 A2                 
  0.279   0.324   0.330   0.346   0.368   0.383   0.430   0.467
  6 B1    9 A1    7 B1    3 B2   10 A1    8 B1    3 A2   11 A1                 
  0.501   0.504   0.644   0.674   0.861   0.959   1.024   1.033
 12 A1    9 B1   10 B1   11 B1   13 A1   14 A1   15 A1   16 A1                 
  1.059   1.090   1.111   1.113   1.134   1.222   1.238   1.279
  4 B2   12 B1    4 A2   17 A1   13 B1   14 B1   18 A1    5 B2                 
  1.446   1.449   1.486   1.515   1.773   1.778   1.873   1.881
  6 B2    5 A2   15 B1   16 B1   19 A1   17 B1   20 A1    7 B2                 
  1.930   1.972   2.016   2.077   2.101   2.162   2.185   2.231
 18 B1   21 A1    6 A2   19 B1    8 B2   22 A1    9 B2   23 A1                 
  2.334   2.469   2.577   2.619   2.720   2.746   2.963   2.990
  7 A2   20 B1    8 A2   24 A1   21 B1   22 B1   25 A1   26 A1                 
  3.420   3.508
 23 B1   24 B1                                                                 
 
 Beta MOs, Restricted
 -- Occupied --                  
-11.071 -11.070  -0.877  -0.620  -0.494  -0.405  -0.348  -0.214
  1 A1    1 B1    2 A1    2 B1    3 A1    4 A1    3 B1    1 B2                 
 -0.035
  5 A1                                                                         
 -- Virtual --                   
  0.136   0.157   0.160   0.162   0.173   0.176   0.253   0.277
  4 B1    2 B2    6 A1    1 A2    7 A1    5 B1    8 A1    2 A2                 
  0.279   0.324   0.330   0.346   0.368   0.383   0.430   0.467
  6 B1    9 A1    7 B1    3 B2   10 A1    8 B1    3 A2   11 A1                 
  0.501   0.504   0.644   0.674   0.861   0.959   1.024   1.033
 12 A1    9 B1   10 B1   11 B1   13 A1   14 A1   15 A1   16 A1                 
  1.059   1.090   1.111   1.113   1.134   1.222   1.238   1.279
  4 B2   12 B1    4 A2   17 A1   13 B1   14 B1   18 A1    5 B2                 
  1.446   1.449   1.486   1.515   1.773   1.778   1.873   1.881
  6 B2    5 A2   15 B1   16 B1   19 A1   17 B1   20 A1    7 B2                 
  1.930   1.972   2.016   2.077   2.101   2.162   2.185   2.231
 18 B1   21 A1    6 A2   19 B1    8 B2   22 A1    9 B2   23 A1                 
  2.334   2.469   2.577   2.619   2.720   2.746   2.963   2.990
  7 A2   20 B1    8 A2   24 A1   21 B1   22 B1   25 A1   26 A1                 
  3.420   3.508
 23 B1   24 B1                                                                 
 --------------------------------------------------------------
 
          Ground-State Mulliken Net Atomic Charges

     Atom                 Charge (a.u.)
  ----------------------------------------
      1 C                    -0.344410
      2 C                    -0.344410
      3 H                     0.138987
      4 H                     0.138987
      5 H                     0.020122
      6 H                     0.020122
      7 H                    -0.629399
  ----------------------------------------
  Sum of atomic charges =    -1.000000

 -----------------------------------------------------------------
                    Cartesian Multipole Moments
 -----------------------------------------------------------------
    Charge (ESU x 10^10)
                -4.8032
    Dipole Moment (Debye)
         X       0.0000      Y       0.0000      Z     -10.7871
       Tot      10.7871
    Quadrupole Moments (Debye-Ang)
        XX     -20.9773     XY       0.0000     YY     -23.4784
        XZ      -0.0000     YZ      -0.0000     ZZ     -55.7329
    Octopole Moments (Debye-Ang^2)
       XXX       0.0000    XXY       0.0000    XYY       0.0000
       YYY      -0.0000    XXZ      -6.2765    XYZ      -0.0000
       YYZ     -10.4600    XZZ       0.0000    YZZ      -0.0000
       ZZZ    -118.4763
    Hexadecapole Moments (Debye-Ang^3)
      XXXX    -126.9502   XXXY       0.0000   XXYY     -30.7426
      XYYY       0.0000   YYYY     -61.9740   XXXZ      -0.0000
      XXYZ      -0.0000   XYYZ      -0.0000   YYYZ       0.0000
      XXZZ     -81.2588   XYZZ       0.0000   YYZZ     -72.7565
      XZZZ      -0.0000   YZZZ      -0.0000   ZZZZ    -614.6075
 -----------------------------------------------------------------
 Total job time:  238.44s(wall), 696.23s(cpu) 
 Mon Mar 28 16:15:34 2022

        *************************************************************
        *                                                           *
        *  Thank you very much for using Q-Chem.  Have a nice day.  *
        *                                                           *
        *************************************************************


