CFour on node02
 --invoking executable--
/home/tsommerfeld/zscale/bin/xjoda


   *************************************************************************
         <<<     CCCCCC     CCCCCC   |||     CCCCCC     CCCCCC   >>>
       <<<      CCC        CCC       |||    CCC        CCC         >>>
      <<<      CCC        CCC        |||   CCC        CCC            >>>
    <<<        CCC        CCC        |||   CCC        CCC              >>>
      <<<      CCC        CCC        |||   CCC        CCC            >>>
       <<<      CCC        CCC       |||    CCC        CCC         >>>
         <<<     CCCCCC     CCCCCC   |||     CCCCCC     CCCCCC   >>>
   *************************************************************************

     ****************************************************************
     * CFOUR Coupled-Cluster techniques for Computational Chemistry *
     ****************************************************************
 

   Department of Chemistry                Institut fuer Physikalische Chemie
   University of Florida                  Universitaet Mainz
   Gainesville, FL 32611, USA             D-55099 Mainz, Germany

   Department of Chemistry                Department of Chemistry
   Johns Hopkins University               Southern Methodist University
   Baltimore, MD 21218, USA               Dallas, TX 75275, USA

   Institute of Nanotechnology            Department of Physical Chemistry
   Karlsruhe Inst. of Technology          Eotvos Lorand University
   D-76021 Karlsruhe, Germany             H-1053 Budapest, Hungary

 
                       Version 2.1
 
                     node02                                            
                     Fri Apr  1 10:09:12 CST 2022                      
                     integer*8 version is running
 
********************************************************************************
*                          Input from ZMAT file                                *
********************************************************************************
h_ethylene                                                                      
C       0.000000      0.0   -0.664500                                           
C       0.000000      0.0    0.664500                                           
H       0.962348      0.0   -1.159080                                           
H       0.962348      0.0    1.159080                                           
H      -0.962348      0.0   -1.159080                                           
H      -0.962348      0.0    1.159080                                           
H      0.000000      2.6      0.000000                                          
                                                                                
*CFOUR(CALC=CCSD(T)                                                             
#EXCITE=EOMEE                                                                   
#ESTATE_SYM=0/3/0/0                                                             
CC_PROG=VCC                                                                     
CHARGE=-1                                                                       
COORDINATES=CARTESIAN                                                           
BASIS=SPECIAL                                                                   
REFERENCE=RHF                                                                   
MEM_SIZE=90,MEM_UNIT=GB)                                                        
                                                                                
C:cc-pVTZ                                                                       
C:cc-pVTZ                                                                       
H:cc-pVTZ                                                                       
H:cc-pVTZ                                                                       
H:cc-pVTZ                                                                       
H:cc-pVTZ                                                                       
H:aug-cc-pVTZ                                                                   
                                                                                
********************************************************************************
  @GTFLGS-W, Keyword #EXCITE not known and is ignored.
  @GTFLGS-W, Keyword #ESTATE_SYM not known and is ignored.
    -------------------------------------------------------------------
                    CFOUR Control Parameters 
    -------------------------------------------------------------------
        External           Internal           Value            Units
          Name               Name
    -------------------------------------------------------------------
       ABCDTYPE             IABCDT         STANDARD    [  0]    ***   
       ANHARMONIC           IANHAR         OFF         [  0]    ***   
       ANH_ALGORIT          IANALG         STANDARD    [  0]    ***   
       ANH_DERIVAT          IANDER         SECOND      [  1]    ***   
       ANH_MODE             ANHMOD         VIBRATION   [  0]    ***   
       ANH_STEPSIZ          ICUBST             50000          x 10-6  
       ANH_SYMMETR          IANHSM         ABELIAN     [  0]    ***   
       AO_LADDERS           IAOLAD         SINGLEPASS  [  1]    ***   
       AV_SCF               IAVSCF         OFF         [  0]    ***   
       BASIS                IBASIS         SPECIAL     [  0]    ***   
       BOTHVECTORS          BOTHVC         OFF         [  0]    ***   
       BOX_POTENT           IPIAB          OFF         [  0]    ***   
       BREIT                IBREIT         OFF         [  0]    ***   
       BRUCK_CONV           IBRTOL          10D-  4             ***   
       BRUECKNER            IBRKNR         OFF         [  0]    ***   
       BUFFERSIZE           IBUFFS              4096            ***   
       CACHE_RECS           ICHREC             10               ***   
       CALCLEVEL            ICLLVL         CCSD(T)     [ 22]    ***   
       CCORBOPT             ICCORB         OFF         [  0]  x 0.01  
       CC_CONV              ICCCNV          10D-  7             ***   
       CC_EXPORDER          ICCEOR              5               ***   
       CC_EXTRAPOL          ICCEXT         DIIS        [  1]    ***   
       CC_GUESS             ICCGES         MP2         [  0]    ***   
       CC_MAXCYC            ICCCYC            100              cycles 
       CC_PROGRAM           ICCPRO         VCC         [  0]    ***   
       CHARGE               ICHRGE             -1               ***   
       CHOLESKY             ICHOLE         OFF         [  0]    ***   
       CIS_CONV             ICISTL              5               ***   
       COMM_SIZE            IPSIZE            ***               ***   
       CONSTANT             ICONST         OLD         [  1]    ***   
       CONTINUUM            ICONTU         NONE        [  0]    ***   
       CONTRACTION          ICNTYP         GENERAL     [  1]    ***   
       COORDINATES          ICOORD         CARTESIAN   [  1]    ***   
       CPHF_CONVER          ICPHFT          10D- 16             ***   
       CPHF_MAXCYC          ICPHFC             64              cycles 
       CUBIC                ICUBIC         OFF         [  0]    ***   
       CURVILINEAR          ICURVY         OFF         [  0]    ***   
       DBOC                 IDBOC          OFF         [  0]    ***   
       DCT                  IDCT           OFF         [  0]    ***   
       DERIV_LEV            IDRLVL         ZERO        [  0]    ***   
       DEVMEM_SIZE          IDVMEM         *********           MByte  
       DIAG_MRCC            IEOMST          10D-  0             ***   
       DIFF_TYPE            IDIFTY         RELAXED     [  0]    ***   
       DIRECT               IDIRCT         OFF         [  0]    ***   
       DROPMO               IDRPMO      NONE         
       ECP                  IECP           OFF         [  0]    ***   
       EIGENVECTOR          IVEC                1               ***   
       EL_ANHARM            IELANH         OFF         [  0]    ***   
       EOMFOLLOW            IEOMSR         ENERGY      [  0]    ***   
       EOMIP                IEOMIP         OFF         [  0]    ***   
       EOMLEVEL             HBARFM         SAME        [  0]    ***   
       EOM_MRCC             IMRCCE         NEW         [  1]    ***   
       EOM_NONIT            EOMNON         OFF         [  0]    ***   
       EOM_NSING            IEOMSI          10D-  0             ***   
       EOM_NSTATES          IMRCCD         DAVIDSON    [  0]    ***   
       EOM_NTRIP            IEOMTR          10D-  0             ***   
       EOM_ORDER            IEXORD         ENERGY      [  0]    ***   
       EOM_PROPSTA          IEOMST              0               ***   
       ESTATE_CONV          IEXTOL          10D-  5             ***   
       ESTATE_DIAG          IEXDIG         ITERATIVE   [  0]    ***   
       ESTATE_LOCK          IESLOC         ON          [  1]    ***   
       ESTATE_MAXC          IEXMXC             40               ***   
       ESTATE_PROP          IEXPRP         OFF         [  0]    ***   
       EVAL_HESS            IRECAL              0            # of cyc.
       EXCITATION           IEXCIT              0               ***   
       EXCITE               IEXCIT         NONE        [  0]    ***   
       EXTERN_POT           IEXPOT         OFF         [  0]    ***   
       FCGRADNEW            IFCGNW         OFF         [  0]    ***   
       FC_FIELD             IFINFC              0             x 10-6  
       FD_CALTYPE           IFDCAL         GRADONLY    [  0]    ***   
       FD_PROJECT           IFDPRJ         OFF         [  1]    ***   
       FD_STEPSIZE          IDISFD              0            10-4 bohr
       FD_USEGROUP          IFDGRP         FULL        [  0]    ***   
       FILE_RECSIZ          IFLREC              4096           words  
       FINITE_PERT          IFIPER              0             x 10-6  
       FIXGEOM              IFIXGM         OFF         [  0]    ***   
       FOCK                 IFOCK          AO          [  1]    ***   
       FREQ_ALGORI          IVIALG         STANDARD    [  0]    ***   
       FROZEN_CORE          IFROCO         OFF         [  0]    ***   
       GAMMA_ABCD           IGABCD         STORE       [  0]    ***   
       GAMMA_ABCI           IGABCI         STORE       [  0]    ***   
       GENBAS_1             IGNBS1              0               ***   
       GENBAS_2             IGNBS2              0               ***   
       GENBAS_3             IGNBS3              0               ***   
       GENBAS_4             IGNBS4              0               ***   
       GEO_CONV             ICONTL              5              H/bohr 
       GEO_MAXCYC           IOPTCY             50               ***   
       GEO_MAXSTEP          IMXSTP            300            millibohr
       GEO_METHOD           INR            SINGLE_POINT[  5]    ***   
       GIAO                 IGIAO          OFF         [  1]    ***   
       GIMIC                IGIMIC         OFF         [  0]    ***   
       GRID                 IGRID          OFF         [  0]    ***   
       GRID_ALGO            IGALGO         SERIAL      [  0]    ***   
       GUESS                IGUESS         MOREAD      [  0]    ***   
       HBAR                 IHBAR          OFF         [  0]    ***   
       HESS_TYPE            IHESTP         SCF         [  0]    ***   
       HF2_FILE             IHF2Fl         USE         [  1]    ***   
       HFSTABILITY          ISTABL         OFF         [  0]    ***   
       INCORE               INCORE         OFF         [  0]    ***   
       INPUT_MRCC           IMRCC          ON          [  1]    ***   
       INTEGRALS            INTTYP         VMOL        [  1]    ***   
       JODA_PRINT           IJPRNT              0               ***   
       KEYWORD_OUT          IDMPKW         NO          [  0]    ***   
       LINDEP_TOL           ILINDP              8               ***   
       LINEQ_CONV           IZTACN          10D-  7           cycles  
       LINEQ_EXPOR          ILMAXD              5               ***   
       LINEQ_MAXCY          ILMAXC            100               ***   
       LINEQ_TYPE           ILTYPE         DIIS        [  1]    ***   
       LOCK_ORBOCC          ILOCOC         OFF         [  0]    ***   
       MEMORY_SIZE          IMEMSZ         *********           words  
       MEM_UNIT             IMEMU          GB          [  3]    ***   
       MRCC                 IMRCCC         OFF         [  0]    ***   
       MULTIPLICTY          IMULTP              1               ***   
       NACOUPLING           IVCOUP         OFF         [  0]    ***   
       NEGEVAL              IDIE           ABORT       [  0]    ***   
       NEWNORM              INEWNO         OFF         [  0]    ***   
       NON-HF               INONHF         OFF         [  0]    ***   
       NTOP_TAMP            ITOPT2             15               ***   
       NUC_MODEL            INUCMO         POINT       [  0]    ***   
       OCCUPATION           IOCCU   ESTIMATED BY SCF 
       OPEN-SHELL           IOPEN          SPIN-ORBITAL[  0]    ***   
       OPTVIB               IOPTVB         OFF         [  0]    ***   
       ORBITALS             IORBTP         STANDARD    [  0]    ***   
       PARALLEL             IPARAL         ON          [  1]    ***   
       PARA_INT             IPINTS         ON          [  1]    ***   
       PARA_PRINT           IPPRIN              0               ***   
       PERT_ORB             IPTORB         STANDARD    [  0]    ***   
       POINTS               IGRDFD              0               ***   
       PRINT                IPRNT               0               ***   
       PROPS                IPROPS         OFF         [  0]    ***   
       PROP_INTEGR          IINTYP         INTERNAL    [  0]    ***   
       PSI                  IPSI           OFF         [  0]    ***   
       QC_ALG               IQCALG         FLM         [  0]    ***   
       QC_LINALG            IQCLIN         TRIDIAG     [  2]    ***   
       QC_MAXCYC            IQCMAX          10D-100           cycles  
       QC_MAXSCFCY          IQCMSC          10D- 15           cycles  
       QC_RTRUST            IQCRTR          10D-  0           x 10-3  
       QC_SKIPSCF           IQCSKI         OFF         [  0]    ***   
       QC_START             IQCSTA          10D-  1             ***   
       QRHFGUESS            IQGUES         OFF         [  0]    ***   
       QUARTIC              IQUART         OFF         [  0]    ***   
       RAMAN_INT            IRAMIN         OFF         [  0]    ***   
       RAMAN_ORB            IRAMRE         UNRELAXED   [  0]    ***   
       RDO                  IRDOFM         OFF         [  0]    ***   
       REDUCE_REPR          REDREP         Ir          [  0]    ***   
       REFERENCE            IREFNC         RHF         [  0]    ***   
       RELATIVIST           IRELAT         OFF         [  0]    ***   
       RELAX_DENS           IRDENS         OFF         [  0]    ***   
       RESET_FLAGS          IRESET         OFF         [  0]    ***   
       RESTART_CC           ICCRES         OFF         [  0]    ***   
       ROT_EVEC             ROTVEC              0               ***   
       SAVE_INTS            ISVINT         OFF         [  0]    ***   
       SCALE_ON             ISTCRT              0               ***   
       SCF_CONV             ISCFCV          10D-  7             ***   
       SCF_DAMPING          IDAMP               0             x 10-3  
       SCF_EXPORDE          IRPPOR              6               ***   
       SCF_EXPSTAR          IRPPLS              8               ***   
       SCF_EXTRAPO          IRPP           ON          [  1]    ***   
       SCF_MAXCYC           ISCFCY            150              cycles 
       SCF_NOSTOP           ISCFST         OFF         [  0]    ***   
       SCF_PRINT            ISCFPR              0               ***   
       SCF_PROG             ISCFPR         SCF         [  0]    ***   
       SD_FIELD             IFINSD              0             x 10-6  
       SOPERT               IPERSO         OFF         [  0]    ***   
       SPHERICAL            IDFGHI         ON          [  1]    ***   
       SPINORBIT            ISOCAL         OFF         [  0]    ***   
       SPINROTATIO          ISRCON         OFF         [  0]    ***   
       SPIN_FLIP            ISPFLP         OFF         [  0]    ***   
       SPIN_ORBIT           ISPORB         OFF         [  0]    ***   
       SPIN_SCAL            ISCSMP         OFF         [  0]    ***   
       STEEPSCALE           ISTPSC              1000          x 10-3  
       SUBGROUP             ISUBGP         DEFAULT     [  0]    ***   
       SUBGRPAXIS           ISBXYZ         X           [  0]    ***   
       SYMMETRY             ISYM           ON          [  0]    ***   
       SYM_CHECK            ISYMCK         OVERRIDE    [  1]    ***   
       T3_EXTRAPOL          IT3EXT         OFF         [  0]    ***   
       T4_EXTRAPOL          IT4EXP         OFF         [  0]    ***   
       TAMP_SUM             IEVERY              5               ***   
       TESTSUITE            ITESTS         OFF         [  0]    ***   
       THERMOCH             ITHERM         OFF         [  0]    ***   
       TOL_CHOLESK          ITOLCH          10D-  4             ***   
       TRANGRAD             IRESRM         OFF         [  0]    ***   
       TRANS_INV            ITRAIN         USE         [  0]    ***   
       TREAT_PERT           ITREAT         SIMULTANEOUS[  0]    ***   
       TRIP_ALGORI          ITRALG         NORMAL      [  0]    ***   
       UIJ_THRESHO          IUIJTH              1               ***   
       UNITS                IUNITS         ANGSTROM    [  0]    ***   
       UNOS                 IUNOS          OFF         [  0]    ***   
       UPDATE_HESS          IHUPDT         ON          [  1]    ***   
       VIBPHASE             ISETPH         STANDARD    [  0]    ***   
       VIBRATION            IVIB           NO          [  0]    ***   
       VIB_ALGORIT          IGEALG         STANDARD    [  0]    ***   
       VNATORB              IVNORB         OFF         [  0]    ***   
       VTRAN                IVTRAN         FULL/PARTIAL[  0]    ***   
       XFIELD               IXEFLD              0             x 10-6  
       XFORM_TOL            IXFTOL          10D- 11             ***   
       YFIELD               IYEFLD              0             x 10-6  
       ZFIELD               IZEFLD              0             x 10-6  
       ZSCALE_EXP           IZEXPS         OFF         [  0]    ***   
    -------------------------------------------------------------------
  @GETXYZ-I,     7 atoms read from ZMAT.
   Rotational constants (in cm-1): 
          0.7462492733             0.8536890782             1.6350928277
   Rotational constants (in MHz): 
      22371.9935251056         25592.9582983935         49018.8566562454
********************************************************************************
   The full molecular point group is C2v .
   The largest Abelian subgroup of the full molecular point group is C2v .
   The computational point group is C2v .
********************************************************************************


 ----------------------------------------------------------------
         Coordinates used in calculation (QCOMP) 
 ----------------------------------------------------------------
 Z-matrix   Atomic            Coordinates (in bohr)
  Symbol    Number           X              Y              Z
 ----------------------------------------------------------------
     C         6         0.00000000    -1.25572327     0.17051945
     C         6         0.00000000     1.25572327     0.17051945
     H         1         1.81857454    -2.19034422     0.17051945
     H         1         1.81857454     2.19034422     0.17051945
     H         1        -1.81857454    -2.19034422     0.17051945
     H         1        -1.81857454     2.19034422     0.17051945
     H         1         0.00000000     0.00000000    -4.74276951
 ----------------------------------------------------------------
 
   Interatomic distance matrix (Angstroms) 
 
                 C             C             H             H             H    
                [ 1]        [ 2]        [ 3]        [ 4]        [ 5]
  C    [ 1]     0.00000
  C    [ 2]     1.32900     0.00000
  H    [ 3]     1.08200     2.06193     0.00000
  H    [ 4]     2.06193     1.08200     2.31816     0.00000
  H    [ 5]     1.08200     2.06193     1.92470     3.01303     0.00000
  H    [ 6]     2.06193     1.08200     3.01303     1.92470     2.31816
  H    [ 7]     2.68357     2.68357     3.00493     3.00493     3.00493
 
                 H             H    
                [ 6]        [ 7]
  H    [ 6]     0.00000
  H    [ 7]     3.00493     0.00000
 rotcon2
   Rotational constants (in cm-1): 
          0.7462492733             1.6350928277             0.8536890782
   Rotational constants (in MHz): 
      22371.9935251056         49018.8566562454         25592.9582983935
  ECPDATA file not present.   Using default ECPDATA. 
  @GTFLGS-W, Keyword #EXCITE not known and is ignored.
  @GTFLGS-W, Keyword #ESTATE_SYM not known and is ignored.
  There are  139 basis functions.
 @GEOPT-W, Archive file not created for single-point calculation.
 @CHECKOUT-I, Total execution time (CPU/WALL):        0.12/       0.14 seconds.
--executable xjoda finished with status     0 in        0.16 seconds (walltime).
 --invoking executable--
/home/tsommerfeld/zscale/bin/xvmol
 SERIAL VERSION OF MOLECULE STARTED
********************************************************************************
                    INPUT FROM MOL FILE
********************************************************************************
INTGRL        1    0    1    0    0    0    0    0    0                         
         *** CFOUR Program System (Release V0.1) ***                            
h_ethylene                                                                      
    3    2 X  Y       0.10E-08              0    0                              
   9999.00      3.00                                                            
          6.00000000    1    4    1    1    1    1                              
C #1   0.000000000000000  -1.255723272983657   0.170519448568891                
   10    4                                                                      
   8236.00000000000       5.310000000000000E-004  0.000000000000000E+000        
 -1.130000000000000E-004  0.000000000000000E+000                                
   1235.00000000000       4.108000000000000E-003  0.000000000000000E+000        
 -8.780000000000000E-004  0.000000000000000E+000                                
   280.800000000000       2.108700000000000E-002  0.000000000000000E+000        
 -4.540000000000000E-003  0.000000000000000E+000                                
   79.2700000000000       8.185300000000000E-002  0.000000000000000E+000        
 -1.813300000000000E-002  0.000000000000000E+000                                
   25.5900000000000       0.234817000000000       0.000000000000000E+000        
 -5.576000000000000E-002  0.000000000000000E+000                                
   8.99700000000000       0.434401000000000       0.000000000000000E+000        
 -0.126895000000000       0.000000000000000E+000                                
   3.31900000000000       0.346129000000000       0.000000000000000E+000        
 -0.170352000000000       0.000000000000000E+000                                
  0.905900000000000       3.937800000000000E-002   1.00000000000000             
  0.140382000000000       0.000000000000000E+000                                
  0.364300000000000      -8.983000000000000E-003  0.000000000000000E+000        
  0.598684000000000       0.000000000000000E+000                                
  0.128500000000000       2.385000000000000E-003  0.000000000000000E+000        
  0.395389000000000        1.00000000000000                                     
    5    3                                                                      
   18.7100000000000       0.000000000000000E+000  1.403100000000000E-002        
  0.000000000000000E+000                                                        
   4.13300000000000       0.000000000000000E+000  8.686600000000000E-002        
  0.000000000000000E+000                                                        
   1.20000000000000       0.000000000000000E+000  0.290216000000000             
  0.000000000000000E+000                                                        
  0.382700000000000        1.00000000000000       0.501008000000000             
  0.000000000000000E+000                                                        
  0.120900000000000       0.000000000000000E+000  0.343406000000000             
   1.00000000000000                                                             
    2    2                                                                      
   1.09700000000000        1.00000000000000       0.000000000000000E+000        
  0.318000000000000       0.000000000000000E+000   1.00000000000000             
    1    1                                                                      
  0.761000000000000        1.00000000000000                                     
          1.00000000    1    3    1    1    1                                   
H #2   1.818574537711477  -2.190344215575466   0.170519448568891                
    5    3                                                                      
   33.8700000000000       0.000000000000000E+000  6.068000000000000E-003        
  0.000000000000000E+000                                                        
   5.09500000000000       0.000000000000000E+000  4.530800000000000E-002        
  0.000000000000000E+000                                                        
   1.15900000000000       0.000000000000000E+000  0.202822000000000             
  0.000000000000000E+000                                                        
  0.325800000000000        1.00000000000000       0.503903000000000             
  0.000000000000000E+000                                                        
  0.102700000000000       0.000000000000000E+000  0.383421000000000             
   1.00000000000000                                                             
    2    2                                                                      
   1.40700000000000        1.00000000000000       0.000000000000000E+000        
  0.388000000000000       0.000000000000000E+000   1.00000000000000             
    1    1                                                                      
   1.05700000000000        1.00000000000000                                     
          1.00000000    1    3    1    1    1                                   
H #3   0.000000000000000   0.000000000000000  -4.742769505167014                
    6    4                                                                      
   33.8700000000000       0.000000000000000E+000  6.068000000000000E-003        
  0.000000000000000E+000  0.000000000000000E+000                                
   5.09500000000000       0.000000000000000E+000  4.530800000000000E-002        
  0.000000000000000E+000  0.000000000000000E+000                                
   1.15900000000000       0.000000000000000E+000  0.202822000000000             
  0.000000000000000E+000  0.000000000000000E+000                                
  0.325800000000000        1.00000000000000       0.503903000000000             
  0.000000000000000E+000  0.000000000000000E+000                                
  0.102700000000000       0.000000000000000E+000  0.383421000000000             
   1.00000000000000       0.000000000000000E+000                                
  2.526000000000000E-002  0.000000000000000E+000  0.000000000000000E+000        
  0.000000000000000E+000   1.00000000000000                                     
    3    3                                                                      
   1.40700000000000        1.00000000000000       0.000000000000000E+000        
  0.000000000000000E+000                                                        
  0.388000000000000       0.000000000000000E+000   1.00000000000000             
  0.000000000000000E+000                                                        
  0.102000000000000       0.000000000000000E+000  0.000000000000000E+000        
   1.00000000000000                                                             
    2    2                                                                      
   1.05700000000000        1.00000000000000       0.000000000000000E+000        
  0.247000000000000       0.000000000000000E+000   1.00000000000000             
FINISH                                                                          
 
********************************************************************************
 ONE- AND TWO-ELECTRON INTEGRALS OVER SYMMETRY-ADAPTED AOS ARE CALCULATED.

  SPHERICAL HARMONICS ARE USED.
  
  INTEGRALS LESS THAN  0.10E-13 ARE NEGLECTED.

  NUCLEAR REPULSION ENERGY :   36.6599239005 A.U.
  @MOLECU-I, ONE ELECTRON INTEGRALS (CPU/WALL):        0.04/       0.04 SECONDS.
  @TWOEL-I,     778948 INTEGRALS OF SYMMETRY TYPE  I I I I
  @TWOEL-I,    3451531 INTEGRALS OF SYMMETRY TYPE  I J I J
  @TWOEL-I,    1821855 INTEGRALS OF SYMMETRY TYPE  I I J J
  @TWOEL-I,    2988790 INTEGRALS OF SYMMETRY TYPE  I J K L
  @TWOEL-I, TOTAL NUMBER OF 2-E INTEGRALS    9041124.
  @MOLECU-I, TWO ELECTRON INTEGRALS (CPU/WALL):       42.12/       4.59 SECONDS.
 @CHECKOUT-I, Total execution time (CPU/WALL):       42.17/       4.64 seconds.

Running with 12 threads/proc

--executable xvmol finished with status     0 in        4.66 seconds (walltime).
 --invoking executable--
/home/tsommerfeld/zscale/bin/xvmol2ja
 @GETMEM-I,  Allocated   85830 MB of main memory.
 @CHECKOUT-I, Total execution time (CPU/WALL):        0.09/       0.02 seconds.
--executable xvmol2ja finished with status     0 in        0.04 seconds (walltime).
 --invoking executable--
/home/tsommerfeld/zscale/bin/xvscf
  There are  139 functions in the AO basis.

  There are 4 irreducible representations.

       Irrep        # of functions
         1                 45
         2                 29
         3                 39
         4                 26


  Parameters for SCF calculation: 
        SCF reference function:  RHF  
  Maximum number of iterations:  150
     Full symmetry point group: C2v 
     Computational point group: C2v 
        Initial density matrix: MOREAD                 
     SCF convergence tolerance: 10**(- 7)
  DIIS convergence acceleration:  ON
          Latest start for DIIS:   8
                     DIIS order:   6

  Memory information:     823082 words required.
  Fock matrices are constructed from AO integral file.
 @GETMEM-I,  Allocated       6 MB of main memory.
  Initialization and symmetry analysis required      0.001 seconds.

  @INITGES-I, Occupancies from core Hamiltonian:

          Alpha population by irrep:   4    1    3    1
           Beta population by irrep:   4    1    3    1


 total no. of electrons in initial guess :  0.000000000000000E+000
  --------------------------------------------------------------------
  Iteration         Total Energy            Largest Density Difference
  --------------------------------------------------------------------
       0            36.659923900547192              0.0000000000D+00
   current occupation vector 
     4  1  3  1
     4  1  3  1
       1           -52.055202192207069              0.8756534830D+01
   current occupation vector 
     4  1  3  1
     4  1  3  1
       2           -56.744712154473397              0.3723283307D+02
   current occupation vector 
     4  2  3  0
     4  2  3  0
       3           -68.638460959033580              0.3696545877D+02
   current occupation vector 
     4  1  3  1
     4  1  3  1
       4           -59.313692943460062              0.1364324218D+02
   current occupation vector 
     5  1  3  0
     5  1  3  0
       5           -69.931640764829410              0.1362727232D+02
   current occupation vector 
     4  1  3  1
     4  1  3  1
       6           -60.314744801337220              0.9041825118D+01
   current occupation vector 
     5  1  3  0
     5  1  3  0
       7           -70.273763914963439              0.9064505913D+01
   current occupation vector 
     4  1  3  1
     4  1  3  1
       8           -60.561400975257335              0.8191627520D+01
   current occupation vector 
     5  1  3  0
     5  1  3  0
       9           -75.892008049513436              0.8287598446D+01
   current occupation vector 
     4  1  3  1
     4  1  3  1
      10           -77.700571542555764              0.8019868862D+00
   current occupation vector 
     4  1  3  1
     4  1  3  1
      11           -78.332484297955574              0.1717272027D+01
   current occupation vector 
     5  1  2  1
     5  1  2  1
      12           -78.455708695825791              0.5049486075D+00
   current occupation vector 
     5  1  2  1
     5  1  2  1
      13           -78.517002166685842              0.2765571012D+00
   current occupation vector 
     5  1  2  1
     5  1  2  1
      14           -78.522752181124929              0.9853031996D-01
   current occupation vector 
     5  1  2  1
     5  1  2  1
      15           -78.522868143646065              0.1310053741D-01
   current occupation vector 
     5  1  2  1
     5  1  2  1
      16           -78.522877271401455              0.6231123459D-02
   current occupation vector 
     5  1  2  1
     5  1  2  1
      17           -78.522877947032384              0.1992951285D-02
   current occupation vector 
     5  1  2  1
     5  1  2  1
      18           -78.522877976363617              0.3126120746D-03
   current occupation vector 
     5  1  2  1
     5  1  2  1
      19           -78.522877977203393              0.2861420156D-04
   current occupation vector 
     5  1  2  1
     5  1  2  1
      20           -78.522877977247248              0.5752637246D-05
   current occupation vector 
     5  1  2  1
     5  1  2  1
      21           -78.522877977248953              0.3409850528D-05
   current occupation vector 
     5  1  2  1
     5  1  2  1
      22           -78.522877977249152              0.3845757330D-06
   current occupation vector 
     5  1  2  1
     5  1  2  1

  SCF has converged.

 Density matrix saved to file den.dat
 total electron number:   18.0000000000000     
     E(SCF)=       -78.522877977248982              0.3674520910D-07


  Final occupancies:

     Alpha population by irrep:   5    1    2    1
      Beta population by irrep:   5    1    2    1


  Eigenvector printing suppressed.

 @PUTMOS-I, Writing converged MOs to NEWMOS. 
 @PUTMOS-I, Symmetry   1 Full Blocks 11 Partial Blocksize   1
 @PUTMOS-I, Symmetry   2 Full Blocks  7 Partial Blocksize   1
 @PUTMOS-I, Symmetry   3 Full Blocks  9 Partial Blocksize   3
 @PUTMOS-I, Symmetry   4 Full Blocks  6 Partial Blocksize   2
 @PUTFOCK-I, Writing converged Fock matrix to NEWFOCK. 
 @PUTFOCK-I, Symmetry   1 Full Blocks 11 Partial Blocksize   1
 @PUTFOCK-I, Symmetry   2 Full Blocks  7 Partial Blocksize   1
 @PUTFOCK-I, Symmetry   3 Full Blocks  9 Partial Blocksize   3
 @PUTFOCK-I, Symmetry   4 Full Blocks  6 Partial Blocksize   2


 
  ORBITAL EIGENVALUES (ALPHA)  (1H = 27.2113834 eV)

       MO #        E(hartree)               E(eV)           FULLSYM    COMPSYM
       ----   --------------------   --------------------   -------   ---------
    1     1         -11.0648941474        -301.0910769241      A1        A1 (1)
    2    75         -11.0631283600        -301.0430274084      B2        B2 (3)
    3     2          -0.8753891518         -23.8205498346      A1        A1 (1)
    4    76          -0.6213139026         -16.9068108150      B2        B2 (3)
    5    46          -0.4994448805         -13.5905861296      B1        B1 (2)
    6     3          -0.4070155719         -11.0754567769      A1        A1 (1)
    7   114          -0.3571709469          -9.7191155751      A2        A2 (4)
    8     4          -0.2187084617          -5.9513598040      A1        A1 (1)
    9     5          -0.0291632172          -0.7935714832      A1        A1 (1)
  +++++++++++++++++++++++++++++++++++++++++++++++++++++++++++++++++++++++++++++
   10     6           0.2396377259           6.5208740354      A1        A1 (1)
   11    77           0.3124416128           8.5019685152      B2        B2 (3)
   12     7           0.3140870965           8.5467444040      A1        A1 (1)
   13    47           0.3197310074           8.7003230266      B1        B1 (2)
   14    78           0.3241018902           8.8192607944      B2        B2 (3)
   15   115           0.3713934446          10.1061294125      A2        A2 (4)
   16    48           0.4562128212          12.4141819897      B1        B1 (2)
   17    79           0.4774500336          12.9920759200      B2        B2 (3)
   18     8           0.4871147509          13.2550662474      A1        A1 (1)
   19    80           0.5068244071          13.7913932573      B2        B2 (3)
   20     9           0.5378918439          14.6367811928      A1        A1 (1)
   21    10           0.5966460630          16.2355647754      A1        A1 (1)
   22    49           0.6355676515          17.2946750409      B1        B1 (2)
   23    81           0.7124544084          19.3868700609      B2        B2 (3)
   24    50           0.7426813533          20.2093870493      B1        B1 (2)
   25    11           0.7758396880          21.1116712067      A1        A1 (1)
   26    82           0.7798284589          21.2202111824      B2        B2 (3)
   27    12           0.7830071173          21.3067068750      A1        A1 (1)
   28    51           0.8255990362          22.4656919091      B1        B1 (2)
   29   116           0.8435418164          22.9539397797      A2        A2 (4)
   30    83           0.8516504039          23.1745856641      B2        B2 (3)
   31    13           0.9224892474          25.1022085941      A1        A1 (1)
   32    84           0.9367092516          25.4891545806      B2        B2 (3)
   33   117           0.9609911537          26.1498987284      A2        A2 (4)
   34   118           1.0273534080          27.9557074714      A2        A2 (4)
   35    14           1.0485832254          28.5334001728      A1        A1 (1)
   36    15           1.1076490663          30.1406634157      A1        A1 (1)
   37    16           1.1273565686          30.6769318161      A1        A1 (1)
   38    52           1.1340703073          30.8596219336      B1        B1 (2)
   39   119           1.1587196783          31.5303654186      A2        A2 (4)
   40   120           1.2280802222          33.4177617715      A2        A2 (4)
   41    85           1.2669958434          34.4767096621      B2        B2 (3)
   42    53           1.3098264577          35.6421899287      B1        B1 (2)
   43    17           1.3238505090          36.0238037635      A1        A1 (1)
   44    54           1.3495095226          36.7220210202      B1        B1 (2)
   45    86           1.3597130697          36.9996736525      B2        B2 (3)
   46    18           1.3919277206          37.8762788700      A1        A1 (1)
   47    87           1.4337570698          39.0145133296      B2        B2 (3)
   48    55           1.4658880999          39.8888431088      B1        B1 (2)
   49    88           1.4897071195          40.5369915838      B2        B2 (3)
   50    56           1.5053695172          40.9631870924      B1        B1 (2)
   51    19           1.5096557611          41.0798217166      A1        A1 (1)
   52    20           1.5187179799          41.3264172285      A1        A1 (1)
   53    89           1.5454681558          42.0543265195      B2        B2 (3)
   54    57           1.6270806294          44.2751148281      B1        B1 (2)
   55    90           1.6526512787          44.9709275724      B2        B2 (3)
   56    21           1.7415149685          47.3890315049      A1        A1 (1)
   57   121           1.7489753481          47.5920387553      A2        A2 (4)
   58   122           1.8023388711          49.0441340393      A2        A2 (4)
   59    91           1.8328662924          49.8748274038      B2        B2 (3)
   60    92           1.9648459578          53.4661766798      B2        B2 (3)
   61    22           2.0216792545          55.0126893047      A1        A1 (1)
   62   123           2.1305284803          57.9746273224      A2        A2 (4)
   63    23           2.5747993250          70.0638516094      A1        A1 (1)
   64    24           2.7135022174          73.8381491946      A1        A1 (1)
   65    93           2.7435352393          74.6553892686      B2        B2 (3)
   66    25           2.7901326825          75.9233701615      A1        A1 (1)
   67    58           2.8300637131          77.0099487446      B1        B1 (2)
   68    59           2.8741764053          78.2103161238      B1        B1 (2)
   69    26           2.9583896235          80.5018742924      A1        A1 (1)
   70    94           2.9710855247          80.8473473281      B2        B2 (3)
   71   124           3.0254084133          82.3255482751      A2        A2 (4)
   72    27           3.0379562023          82.6669909734      A1        A1 (1)
   73    60           3.0925023662          84.1512675532      B1        B1 (2)
   74   125           3.2270042460          87.8112497719      A2        A2 (4)
   75    28           3.2722315578          89.0419474922      A1        A1 (1)
   76    61           3.2810218591          89.2811437521      B1        B1 (2)
   77    29           3.2940493808          89.6356406385      A1        A1 (1)
   78   126           3.3195766765          90.3302736696      A2        A2 (4)
   79    62           3.3472368214          91.0829444765      B1        B1 (2)
   80    95           3.4113314790          92.8270487801      B2        B2 (3)
   81    30           3.4210307541          93.0909794727      A1        A1 (1)
   82    96           3.4459803110          93.7698914321      B2        B2 (3)
   83    63           3.5048756594          95.3725153378      B1        B1 (2)
   84    97           3.5761878252          97.3130180224      B2        B2 (3)
   85   127           3.5970571856          97.8809021881      A2        A2 (4)
   86    98           3.5976412344          97.8967949647      B2        B2 (3)
   87   128           3.6047408236          98.0899846075      A2        A2 (4)
   88    99           3.6336598727          98.8769119410      B2        B2 (3)
   89    31           3.7383003029         101.7243228078      A1        A1 (1)
   90    32           3.7545352838         102.1660990961      A1        A1 (1)
   91    64           3.8007379733         103.4233381952      B1        B1 (2)
   92    65           3.8808268025         105.6026660311      B1        B1 (2)
   93   129           3.9768834917         108.2165014291      A2        A2 (4)
   94   100           4.0508394710         110.2289459369      B2        B2 (3)
   95   130           4.0688567774         110.7192217702      A2        A2 (4)
   96   131           4.1331472090         112.4686533535      A2        A2 (4)
   97   101           4.1497495385         112.9204257057      B2        B2 (3)
   98    33           4.1633818223         113.2913790079      A1        A1 (1)
   99    66           4.1681783847         113.4219001059      B1        B1 (2)
  100    34           4.2198267643         114.8273239658      A1        A1 (1)
  101    35           4.2515728929         115.6911800408      A1        A1 (1)
  102   132           4.2564173560         115.8230045848      A2        A2 (4)
  103    67           4.2844405485         116.5855544203      B1        B1 (2)
  104   102           4.3400922266         118.0999135680      B2        B2 (3)
  105   133           4.3531605038         118.4555194717      A2        A2 (4)
  106   103           4.3647314980         118.7703822314      B2        B2 (3)
  107    68           4.3658515162         118.8008594734      B1        B1 (2)
  108    36           4.3898701415         119.4544394952      A1        A1 (1)
  109    37           4.4470716891         121.0109727402      A1        A1 (1)
  110   104           4.4595568070         121.3507100685      B2        B2 (3)
  111    38           4.4786096297         121.8691637340      A1        A1 (1)
  112    69           4.4992621111         122.4311463216      B1        B1 (2)
  113   105           4.5724708131         124.4232563804      B2        B2 (3)
  114    70           4.6347088332         126.1168390076      B1        B1 (2)
  115   106           4.6726391016         127.1489740827      B2        B2 (3)
  116    39           4.6781764799         127.2996538070      A1        A1 (1)
  117   134           4.7656113417         129.6788773537      A2        A2 (4)
  118    40           4.8277458581         131.3696435026      A1        A1 (1)
  119   107           4.9230422640         133.9627905407      B2        B2 (3)
  120   108           5.0029480696         136.1371380524      B2        B2 (3)
  121    41           5.0927672353         138.5812418079      A1        A1 (1)
  122    42           5.1561311192         140.3054607442      A1        A1 (1)
  123   135           5.1852870913         141.0988350799      A2        A2 (4)
  124    71           5.2885017921         143.9074498778      B1        B1 (2)
  125    72           5.3885080466         146.6287584088      B1        B1 (2)
  126   109           5.4624025729         148.6395306955      B2        B2 (3)
  127    43           5.5247254142         150.3354214267      A1        A1 (1)
  128   136           5.5866774021         152.0212207214      A2        A2 (4)
  129   137           5.6001638760         152.3882063316      A2        A2 (4)
  130   110           5.7001553492         155.1091126464      B2        B2 (3)
  131    73           5.8132427011         158.1863759363      B1        B1 (2)
  132    44           5.8183607869         158.3256461319      A1        A1 (1)
  133   111           6.1661683460         167.7899709711      B2        B2 (3)
  134   138           6.2655118835         170.4932460583      A2        A2 (4)
  135    74           6.4325334540         175.0381340489      B1        B1 (2)
  136   112           6.6860563464         181.9368426759      B2        B2 (3)
  137   139           7.0355698768         191.4475893563      A2        A2 (4)
  138    45          12.2980246368         334.6462634550      A1        A1 (1)
  139   113          14.9943004600         408.0156586307      B2        B2 (3)


  VSCF finished.

 @CHECKOUT-I, Total execution time (CPU/WALL):       23.44/       1.97 seconds.
--executable xvscf finished with status     0 in        1.99 seconds (walltime).
 --invoking executable--
/home/tsommerfeld/zscale/bin/xvtran
 @GETMEM-I,  Allocated   85830 MB of main memory.
  Full RHF integral transformation
  Transformation of IIII integrals :
  1 pass through the AO integral file was required.
      778948 AO integrals were read.
      997326 MO integrals were written to HF2.
  Transformation of IIJJ integrals :
  1 pass through the AO integral file was required.
     1821855 AO integrals were read.
     2386575 MO integrals were written to HF2.
  Transformation of IJIJ integrals :
  1 pass through the AO integral file was required.
     3451531 AO integrals were read.
     4517476 MO integrals were written to HF2.
  Transformation of IJKL integrals :
  1 pass through the AO integral file was required.
     2988790 AO integrals were read.
     3969810 MO integrals were written to HF2.
  Summary of active molecular orbitals: 
------------------------------------------------------------------------
 
  Index      Eigenvalue    Symmetry    Index      Eigenvalue    Symmetry
------------------------------------------------------------------------
     1       -11.0648941        1        71         4.3658515        2
     2        -0.8753892        1        72         4.4992621        2
     3        -0.4070156        1        73         4.6347088        2
     4        -0.2187085        1        74         5.2885018        2
     5        -0.0291632        1        75         5.3885080        2
     6        -0.4994449        2        76         5.8132427        2
     7       -11.0631284        3        77         6.4325335        2
     8        -0.6213139        3        78         0.3124416        3
     9        -0.3571709        4        79         0.3241019        3
    10         0.2396377        1        80         0.4774500        3
    11         0.3140871        1        81         0.5068244        3
    12         0.4871148        1        82         0.7124544        3
    13         0.5378918        1        83         0.7798285        3
    14         0.5966461        1        84         0.8516504        3
    15         0.7758397        1        85         0.9367093        3
    16         0.7830071        1        86         1.2669958        3
    17         0.9224892        1        87         1.3597131        3
    18         1.0485832        1        88         1.4337571        3
    19         1.1076491        1        89         1.4897071        3
    20         1.1273566        1        90         1.5454682        3
    21         1.3238505        1        91         1.6526513        3
    22         1.3919277        1        92         1.8328663        3
    23         1.5096558        1        93         1.9648460        3
    24         1.5187180        1        94         2.7435352        3
    25         1.7415150        1        95         2.9710855        3
    26         2.0216793        1        96         3.4113315        3
    27         2.5747993        1        97         3.4459803        3
    28         2.7135022        1        98         3.5761878        3
    29         2.7901327        1        99         3.5976412        3
    30         2.9583896        1       100         3.6336599        3
    31         3.0379562        1       101         4.0508395        3
    32         3.2722316        1       102         4.1497495        3
    33         3.2940494        1       103         4.3400922        3
    34         3.4210308        1       104         4.3647315        3
    35         3.7383003        1       105         4.4595568        3
    36         3.7545353        1       106         4.5724708        3
    37         4.1633818        1       107         4.6726391        3
    38         4.2198268        1       108         4.9230423        3
    39         4.2515729        1       109         5.0029481        3
    40         4.3898701        1       110         5.4624026        3
    41         4.4470717        1       111         5.7001553        3
    42         4.4786096        1       112         6.1661683        3
    43         4.6781765        1       113         6.6860563        3
    44         4.8277459        1       114        14.9943005        3
    45         5.0927672        1       115         0.3713934        4
    46         5.1561311        1       116         0.8435418        4
    47         5.5247254        1       117         0.9609912        4
    48         5.8183608        1       118         1.0273534        4
    49        12.2980246        1       119         1.1587197        4
    50         0.3197310        2       120         1.2280802        4
    51         0.4562128        2       121         1.7489753        4
    52         0.6355677        2       122         1.8023389        4
    53         0.7426814        2       123         2.1305285        4
    54         0.8255990        2       124         3.0254084        4
    55         1.1340703        2       125         3.2270042        4
    56         1.3098265        2       126         3.3195767        4
    57         1.3495095        2       127         3.5970572        4
    58         1.4658881        2       128         3.6047408        4
    59         1.5053695        2       129         3.9768835        4
    60         1.6270806        2       130         4.0688568        4
    61         2.8300637        2       131         4.1331472        4
    62         2.8741764        2       132         4.2564174        4
    63         3.0925024        2       133         4.3531605        4
    64         3.2810219        2       134         4.7656113        4
    65         3.3472368        2       135         5.1852871        4
    66         3.5048757        2       136         5.5866774        4
    67         3.8007380        2       137         5.6001639        4
    68         3.8808268        2       138         6.2655119        4
    69         4.1681784        2       139         7.0355699        4
    70         4.2844405        2
------------------------------------------------------------------------
  -11.0648941473541      -0.875389151830001      -0.407015571907611     
 -0.218708461693215      -2.916321715686854E-002 -0.499444880467555     
  -11.0631283600390      -0.621313902586786      -0.357170946888474     
  0.239637725858118       0.314087096505980       0.487114750933482     
  0.537891843925300       0.596646063035425       0.775839687985166     
  0.783007117344219       0.922489247425631        1.04858322538475     
   1.10764906629730        1.12735656857856        1.32385050895512     
   1.39192772058820        1.50965576107228        1.51871797993409     
   1.74151496850753        2.02167925445020        2.57479932495577     
   2.71350221740823        2.79013268254268        2.95838962352671     
   3.03795620230597        3.27223155777461        3.29404938076230     
   3.42103075408875        3.73830030294451        3.75453528379174     
   4.16338182232669        4.21982676433114        4.25157289286607     
   4.38987014145085        4.44707168912847        4.47860962974777     
   4.67817647988427        4.82774585810278        5.09276723534254     
   5.15613111916282        5.52472541424294        5.81836078690266     
   12.2980246368147       0.319731007376739       0.456212821202011     
  0.635567651475480       0.742681353322800       0.825599036214763     
   1.13407030726673        1.30982645772823        1.34950952255649     
   1.46588809993516        1.50536951724229        1.62708062935382     
   2.83006371313602        2.87417640529896        3.09250236624222     
   3.28102185911158        3.34723682135654        3.50487565942135     
   3.80073797333071        3.88082680247518        4.16817838470814     
   4.28444054852044        4.36585151615043        4.49926211107543     
   4.63470883320204        5.28850179214974        5.38850804655583     
   5.81324270107740        6.43253345395557       0.312441612768513     
  0.324101890180639       0.477450033649750       0.506824407072555     
  0.712454408358270       0.779828458938155       0.851650403928283     
  0.936709251637256        1.26699584344066        1.35971306966004     
   1.43375706982877        1.48970711954898        1.54546815578308     
   1.65265127874349        1.83286629241514        1.96484595780440     
   2.74353523932228        2.97108552474926        3.41133147902103     
   3.44598031102361        3.57618782521599        3.59764123439061     
   3.63365987269132        4.05083947098938        4.14974953848413     
   4.34009222655091        4.36473149804738        4.45955680696915     
   4.57247081309509        4.67263910157107        4.92304226402311     
   5.00294806960725        5.46240257287013        5.70015534919040     
   6.16616834596843        6.68605634639972        14.9943004599577     
  0.371393444573527       0.843541816387912       0.960991153737313     
   1.02735340796514        1.15871967827084        1.22808022217436     
   1.74897534813742        1.80233887113859        2.13052848031085     
   3.02540841327218        3.22700424602133        3.31957667648717     
   3.59705718556197        3.60474082356074        3.97688349167510     
   4.06885677742527        4.13314720902814        4.25641735601135     
   4.35316050383808        4.76561134167605        5.18528709128034     
   5.58667740212628        5.60016387596036        6.26551188346612     
   7.03556987684564     
 @CHECKOUT-I, Total execution time (CPU/WALL):       17.66/       2.69 seconds.
--executable xvtran finished with status     0 in        2.70 seconds (walltime).
 --invoking executable--
/home/tsommerfeld/zscale/bin/xintprc
 @GETMEM-I,  Allocated   85830 MB of main memory.
  @GMOIAA-I, Processing MO integrals for spin case AA.
  @GMOIAA-I, Generation of integral list completed.
                      TYPE                NUMBER
                      ----               --------
                      PPPP               9084376
                      PPPH               2501601
                      PPHH                173538
                      PHPH                 97627
                      PHHH                 13713
                      HHHH                   332

                     TOTAL              11871187

  @FORMT2-I, Second-order MP correlation energies:
            ------------------------------------------------
            E(SCF)                  =    -78.522877977249 a.u.
            E2(AA)                  =     -0.039539475829 a.u.
            E2(AB)                  =     -0.324649547403 a.u.
            E2(TOT)                 =     -0.403728499062 a.u.
            Total MP2 energy        =    -78.926606476311 a.u.
            ------------------------------------------------
   Largest T2 amplitudes for spin case AB:
       _       _                 _       _                 _       _
   i   j   a   b             i   j   a   b             i   j   a   b
-----------------------------------------------------------------------------
[  5   5  10  10]-0.07982 [  4   4  78  78]-0.07013 [  5   5  15  10]-0.03587
[  5   5  10  15]-0.03587 [  5   5  51  51]-0.03561 [  5   5  15  15]-0.03343
[  4   4  82  78]-0.02831 [  4   4  78  82]-0.02831 [  4   4  14  14]-0.02566
[  4   3  78  85]-0.02389 [  3   4  85  78]-0.02389 [  5   5  80  80]-0.02237
[  4   4  82  82]-0.02149 [  4   4  78  79] 0.02055 [  4   4  79  78] 0.02055
-----------------------------------------------------------------------------
   Norm of T2AB vector (   345906 symmetry allowed elements):  0.3374425017.
-----------------------------------------------------------------------------
 @CHECKOUT-I, Total execution time (CPU/WALL):        5.08/       2.82 seconds.
--executable xintprc finished with status     0 in        2.85 seconds (walltime).
  calling xvcc 
 --invoking executable--
/home/tsommerfeld/zscale/bin/xvcc
 @GETMEM-I,  Allocated   85830 MB of main memory.
   CCSD(T) energy will be calculated.
   The total correlation energy is -0.403728499062 a.u.
   The total correlation energy is -0.422244205371 a.u.
  Convergence information after     1 iterations: 
  Largest element of residual vector : -0.24487903E-01.
  Largest element of DIIS residual   : -0.24487903E-01.
   The total correlation energy is -0.433458677207 a.u.
  Convergence information after     2 iterations: 
  Largest element of residual vector : -0.13297405E-01.
  Largest element of DIIS residual   : -0.10436471E-01.
   The total correlation energy is -0.436131698522 a.u.
  Convergence information after     3 iterations: 
  Largest element of residual vector : -0.74592740E-02.
  Largest element of DIIS residual   :  0.59973802E-02.
   The total correlation energy is -0.437860778858 a.u.
  Convergence information after     4 iterations: 
  Largest element of residual vector :  0.41182515E-02.
  Largest element of DIIS residual   : -0.20737969E-02.
   The total correlation energy is -0.438053672588 a.u.
  Convergence information after     5 iterations: 
  Largest element of residual vector :  0.14208919E-02.
  Largest element of DIIS residual   :  0.60398025E-03.
   The total correlation energy is -0.438059947254 a.u.
  Convergence information after     6 iterations: 
  Largest element of residual vector :  0.36651438E-03.
  Largest element of DIIS residual   :  0.23968486E-03.
   The total correlation energy is -0.438052056568 a.u.
  Convergence information after     7 iterations: 
  Largest element of residual vector :  0.14410781E-03.
  Largest element of DIIS residual   :  0.72000606E-04.
   The total correlation energy is -0.438043771606 a.u.
  Convergence information after     8 iterations: 
  Largest element of residual vector :  0.37430553E-04.
  Largest element of DIIS residual   :  0.34466509E-04.
   The total correlation energy is -0.438045666887 a.u.
  Convergence information after     9 iterations: 
  Largest element of residual vector :  0.15807959E-04.
  Largest element of DIIS residual   :  0.11029622E-04.
   The total correlation energy is -0.438045929946 a.u.
  Convergence information after    10 iterations: 
  Largest element of residual vector :  0.11186637E-04.
  Largest element of DIIS residual   :  0.82074994E-05.
   The total correlation energy is -0.438046849475 a.u.
  Convergence information after    11 iterations: 
  Largest element of residual vector :  0.44166049E-05.
  Largest element of DIIS residual   :  0.41050876E-05.
   The total correlation energy is -0.438047256447 a.u.
  Convergence information after    12 iterations: 
  Largest element of residual vector :  0.28341229E-05.
  Largest element of DIIS residual   :  0.21800957E-05.
   The total correlation energy is -0.438047457810 a.u.
  Convergence information after    13 iterations: 
  Largest element of residual vector :  0.13222519E-05.
  Largest element of DIIS residual   :  0.10118938E-05.
   The total correlation energy is -0.438047489863 a.u.
  Convergence information after    14 iterations: 
  Largest element of residual vector :  0.76540557E-06.
  Largest element of DIIS residual   :  0.45003445E-06.
   The total correlation energy is -0.438047481024 a.u.
  Convergence information after    15 iterations: 
  Largest element of residual vector : -0.27649802E-06.
  Largest element of DIIS residual   : -0.16569317E-06.
   The total correlation energy is -0.438047478879 a.u.
  Convergence information after    16 iterations: 
  Largest element of residual vector : -0.10916845E-06.
  Largest element of DIIS residual   : -0.59310476E-07.
   The total correlation energy is -0.438047477778 a.u.
  Convergence information after    17 iterations: 
  Largest element of residual vector : -0.32874230E-07.
  Largest element of DIIS residual   :  0.29262797E-07.
  Amplitude equations converged in    17iterations.
   The total correlation energy is -0.438047477145 a.u.
   The CC iterations have converged.

   Largest T1 amplitudes for spin case AA:
   i       a                 i       a                 i       a    
-----------------------------------------------------------------------------
[  5      10    ] 0.03799 [  4      14    ]-0.01945 [  4      18    ] 0.01417
[  4      10    ]-0.01168 [  5      14    ]-0.01144 [  5      15    ]-0.00908
[  4      21    ]-0.00901 [  4      27    ]-0.00872 [  6      52    ]-0.00842
[  5      17    ] 0.00823 [  6      53    ] 0.00638 [  5      11    ] 0.00636
[  3      12    ] 0.00545 [  4      12    ] 0.00511 [  8      83    ] 0.00504
-----------------------------------------------------------------------------
   Norm of T1AA vector (      327 symmetry allowed elements):  0.0571098627.
-----------------------------------------------------------------------------
   Largest T2 amplitudes for spin case AB:
       _       _                 _       _                 _       _
   i   j   a   b             i   j   a   b             i   j   a   b
-----------------------------------------------------------------------------
[  5   5  10  10]-0.14513 [  4   4  78  78]-0.09715 [  5   5  15  10]-0.07030
[  5   5  10  15]-0.07030 [  5   5  51  51]-0.04660 [  5   5  15  15]-0.04455
[  4   4  82  78]-0.03928 [  4   4  78  82]-0.03928 [  5   5  16  10] 0.03248
[  5   5  10  16] 0.03248 [  4   4  79  78] 0.02880 [  4   4  78  79] 0.02880
[  5   5  80  80]-0.02802 [  5   4  78  78]-0.02757 [  4   5  78  78]-0.02757
-----------------------------------------------------------------------------
   Norm of T2AB vector (   345906 symmetry allowed elements):  0.4211245239.
-----------------------------------------------------------------------------
       Summary of iterative solution of CC equations 
      -----------------------------------------------------------
                       Correlation           Total
       Iteration         Energy              Energy
      -----------------------------------------------------------
            0        -0.403728499062     -78.926606476311  DIIS 
            1        -0.422244205371     -78.945122182620  DIIS 
            2        -0.433458677207     -78.956336654456  DIIS 
            3        -0.436131698522     -78.959009675771  DIIS 
            4        -0.437860778858     -78.960738756107  DIIS 
            5        -0.438053672588     -78.960931649837  DIIS 
            6        -0.438059947254     -78.960937924503  DIIS 
            7        -0.438052056568     -78.960930033817  DIIS 
            8        -0.438043771606     -78.960921748855  DIIS 
            9        -0.438045666887     -78.960923644136  DIIS 
           10        -0.438045929946     -78.960923907195  DIIS 
           11        -0.438046849475     -78.960924826724  DIIS 
           12        -0.438047256447     -78.960925233696  DIIS 
           13        -0.438047457810     -78.960925435059  DIIS 
           14        -0.438047489863     -78.960925467112  DIIS 
           15        -0.438047481024     -78.960925458273  DIIS 
           16        -0.438047478879     -78.960925456128  DIIS 
           17        -0.438047477145     -78.960925454394  DIIS 
      -----------------------------------------------------------
      A miracle has come to pass. The CC iterations have converged.
        E(CCSD)           =     -78.960925454394
        E(CCSD + T(CCSD)) =     -78.978192064858
        E(CCSD(T))        =     -78.977716899650
 @CHECKOUT-I, Total execution time (CPU/WALL):      203.28/      16.96 seconds.
--executable xvcc finished with status     0 in       16.98 seconds (walltime).
  The final electronic energy is       -78.977716899650218 a.u. 
  This computation required                           29.40 seconds (walltime).
