CFour on node02
 --invoking executable--
/home/tsommerfeld/zscale/bin/xjoda


   *************************************************************************
         <<<     CCCCCC     CCCCCC   |||     CCCCCC     CCCCCC   >>>
       <<<      CCC        CCC       |||    CCC        CCC         >>>
      <<<      CCC        CCC        |||   CCC        CCC            >>>
    <<<        CCC        CCC        |||   CCC        CCC              >>>
      <<<      CCC        CCC        |||   CCC        CCC            >>>
       <<<      CCC        CCC       |||    CCC        CCC         >>>
         <<<     CCCCCC     CCCCCC   |||     CCCCCC     CCCCCC   >>>
   *************************************************************************

     ****************************************************************
     * CFOUR Coupled-Cluster techniques for Computational Chemistry *
     ****************************************************************
 

   Department of Chemistry                Institut fuer Physikalische Chemie
   University of Florida                  Universitaet Mainz
   Gainesville, FL 32611, USA             D-55099 Mainz, Germany

   Department of Chemistry                Department of Chemistry
   Johns Hopkins University               Southern Methodist University
   Baltimore, MD 21218, USA               Dallas, TX 75275, USA

   Institute of Nanotechnology            Department of Physical Chemistry
   Karlsruhe Inst. of Technology          Eotvos Lorand University
   D-76021 Karlsruhe, Germany             H-1053 Budapest, Hungary

 
                       Version 2.1
 
                     node02                                            
                     Fri Apr  1 10:16:24 CST 2022                      
                     integer*8 version is running
 
********************************************************************************
*                          Input from ZMAT file                                *
********************************************************************************
h_ethylene                                                                      
C       0.000000      0.0   -0.664500                                           
C       0.000000      0.0    0.664500                                           
H       0.962348      0.0   -1.159080                                           
H       0.962348      0.0    1.159080                                           
H      -0.962348      0.0   -1.159080                                           
H      -0.962348      0.0    1.159080                                           
H      0.000000      5.6      0.000000                                          
                                                                                
*CFOUR(CALC=CCSD(T)                                                             
#EXCITE=EOMEE                                                                   
#ESTATE_SYM=0/3/0/0                                                             
CC_PROG=VCC                                                                     
CHARGE=-1                                                                       
COORDINATES=CARTESIAN                                                           
BASIS=SPECIAL                                                                   
REFERENCE=RHF                                                                   
MEM_SIZE=90,MEM_UNIT=GB)                                                        
                                                                                
C:cc-pVTZ                                                                       
C:cc-pVTZ                                                                       
H:cc-pVTZ                                                                       
H:cc-pVTZ                                                                       
H:cc-pVTZ                                                                       
H:cc-pVTZ                                                                       
H:aug-cc-pVTZ                                                                   
                                                                                
********************************************************************************
  @GTFLGS-W, Keyword #EXCITE not known and is ignored.
  @GTFLGS-W, Keyword #ESTATE_SYM not known and is ignored.
    -------------------------------------------------------------------
                    CFOUR Control Parameters 
    -------------------------------------------------------------------
        External           Internal           Value            Units
          Name               Name
    -------------------------------------------------------------------
       ABCDTYPE             IABCDT         STANDARD    [  0]    ***   
       ANHARMONIC           IANHAR         OFF         [  0]    ***   
       ANH_ALGORIT          IANALG         STANDARD    [  0]    ***   
       ANH_DERIVAT          IANDER         SECOND      [  1]    ***   
       ANH_MODE             ANHMOD         VIBRATION   [  0]    ***   
       ANH_STEPSIZ          ICUBST             50000          x 10-6  
       ANH_SYMMETR          IANHSM         ABELIAN     [  0]    ***   
       AO_LADDERS           IAOLAD         SINGLEPASS  [  1]    ***   
       AV_SCF               IAVSCF         OFF         [  0]    ***   
       BASIS                IBASIS         SPECIAL     [  0]    ***   
       BOTHVECTORS          BOTHVC         OFF         [  0]    ***   
       BOX_POTENT           IPIAB          OFF         [  0]    ***   
       BREIT                IBREIT         OFF         [  0]    ***   
       BRUCK_CONV           IBRTOL          10D-  4             ***   
       BRUECKNER            IBRKNR         OFF         [  0]    ***   
       BUFFERSIZE           IBUFFS              4096            ***   
       CACHE_RECS           ICHREC             10               ***   
       CALCLEVEL            ICLLVL         CCSD(T)     [ 22]    ***   
       CCORBOPT             ICCORB         OFF         [  0]  x 0.01  
       CC_CONV              ICCCNV          10D-  7             ***   
       CC_EXPORDER          ICCEOR              5               ***   
       CC_EXTRAPOL          ICCEXT         DIIS        [  1]    ***   
       CC_GUESS             ICCGES         MP2         [  0]    ***   
       CC_MAXCYC            ICCCYC            100              cycles 
       CC_PROGRAM           ICCPRO         VCC         [  0]    ***   
       CHARGE               ICHRGE             -1               ***   
       CHOLESKY             ICHOLE         OFF         [  0]    ***   
       CIS_CONV             ICISTL              5               ***   
       COMM_SIZE            IPSIZE            ***               ***   
       CONSTANT             ICONST         OLD         [  1]    ***   
       CONTINUUM            ICONTU         NONE        [  0]    ***   
       CONTRACTION          ICNTYP         GENERAL     [  1]    ***   
       COORDINATES          ICOORD         CARTESIAN   [  1]    ***   
       CPHF_CONVER          ICPHFT          10D- 16             ***   
       CPHF_MAXCYC          ICPHFC             64              cycles 
       CUBIC                ICUBIC         OFF         [  0]    ***   
       CURVILINEAR          ICURVY         OFF         [  0]    ***   
       DBOC                 IDBOC          OFF         [  0]    ***   
       DCT                  IDCT           OFF         [  0]    ***   
       DERIV_LEV            IDRLVL         ZERO        [  0]    ***   
       DEVMEM_SIZE          IDVMEM         *********           MByte  
       DIAG_MRCC            IEOMST          10D-  0             ***   
       DIFF_TYPE            IDIFTY         RELAXED     [  0]    ***   
       DIRECT               IDIRCT         OFF         [  0]    ***   
       DROPMO               IDRPMO      NONE         
       ECP                  IECP           OFF         [  0]    ***   
       EIGENVECTOR          IVEC                1               ***   
       EL_ANHARM            IELANH         OFF         [  0]    ***   
       EOMFOLLOW            IEOMSR         ENERGY      [  0]    ***   
       EOMIP                IEOMIP         OFF         [  0]    ***   
       EOMLEVEL             HBARFM         SAME        [  0]    ***   
       EOM_MRCC             IMRCCE         NEW         [  1]    ***   
       EOM_NONIT            EOMNON         OFF         [  0]    ***   
       EOM_NSING            IEOMSI          10D-  0             ***   
       EOM_NSTATES          IMRCCD         DAVIDSON    [  0]    ***   
       EOM_NTRIP            IEOMTR          10D-  0             ***   
       EOM_ORDER            IEXORD         ENERGY      [  0]    ***   
       EOM_PROPSTA          IEOMST              0               ***   
       ESTATE_CONV          IEXTOL          10D-  5             ***   
       ESTATE_DIAG          IEXDIG         ITERATIVE   [  0]    ***   
       ESTATE_LOCK          IESLOC         ON          [  1]    ***   
       ESTATE_MAXC          IEXMXC             40               ***   
       ESTATE_PROP          IEXPRP         OFF         [  0]    ***   
       EVAL_HESS            IRECAL              0            # of cyc.
       EXCITATION           IEXCIT              0               ***   
       EXCITE               IEXCIT         NONE        [  0]    ***   
       EXTERN_POT           IEXPOT         OFF         [  0]    ***   
       FCGRADNEW            IFCGNW         OFF         [  0]    ***   
       FC_FIELD             IFINFC              0             x 10-6  
       FD_CALTYPE           IFDCAL         GRADONLY    [  0]    ***   
       FD_PROJECT           IFDPRJ         OFF         [  1]    ***   
       FD_STEPSIZE          IDISFD              0            10-4 bohr
       FD_USEGROUP          IFDGRP         FULL        [  0]    ***   
       FILE_RECSIZ          IFLREC              4096           words  
       FINITE_PERT          IFIPER              0             x 10-6  
       FIXGEOM              IFIXGM         OFF         [  0]    ***   
       FOCK                 IFOCK          AO          [  1]    ***   
       FREQ_ALGORI          IVIALG         STANDARD    [  0]    ***   
       FROZEN_CORE          IFROCO         OFF         [  0]    ***   
       GAMMA_ABCD           IGABCD         STORE       [  0]    ***   
       GAMMA_ABCI           IGABCI         STORE       [  0]    ***   
       GENBAS_1             IGNBS1              0               ***   
       GENBAS_2             IGNBS2              0               ***   
       GENBAS_3             IGNBS3              0               ***   
       GENBAS_4             IGNBS4              0               ***   
       GEO_CONV             ICONTL              5              H/bohr 
       GEO_MAXCYC           IOPTCY             50               ***   
       GEO_MAXSTEP          IMXSTP            300            millibohr
       GEO_METHOD           INR            SINGLE_POINT[  5]    ***   
       GIAO                 IGIAO          OFF         [  1]    ***   
       GIMIC                IGIMIC         OFF         [  0]    ***   
       GRID                 IGRID          OFF         [  0]    ***   
       GRID_ALGO            IGALGO         SERIAL      [  0]    ***   
       GUESS                IGUESS         MOREAD      [  0]    ***   
       HBAR                 IHBAR          OFF         [  0]    ***   
       HESS_TYPE            IHESTP         SCF         [  0]    ***   
       HF2_FILE             IHF2Fl         USE         [  1]    ***   
       HFSTABILITY          ISTABL         OFF         [  0]    ***   
       INCORE               INCORE         OFF         [  0]    ***   
       INPUT_MRCC           IMRCC          ON          [  1]    ***   
       INTEGRALS            INTTYP         VMOL        [  1]    ***   
       JODA_PRINT           IJPRNT              0               ***   
       KEYWORD_OUT          IDMPKW         NO          [  0]    ***   
       LINDEP_TOL           ILINDP              8               ***   
       LINEQ_CONV           IZTACN          10D-  7           cycles  
       LINEQ_EXPOR          ILMAXD              5               ***   
       LINEQ_MAXCY          ILMAXC            100               ***   
       LINEQ_TYPE           ILTYPE         DIIS        [  1]    ***   
       LOCK_ORBOCC          ILOCOC         OFF         [  0]    ***   
       MEMORY_SIZE          IMEMSZ         *********           words  
       MEM_UNIT             IMEMU          GB          [  3]    ***   
       MRCC                 IMRCCC         OFF         [  0]    ***   
       MULTIPLICTY          IMULTP              1               ***   
       NACOUPLING           IVCOUP         OFF         [  0]    ***   
       NEGEVAL              IDIE           ABORT       [  0]    ***   
       NEWNORM              INEWNO         OFF         [  0]    ***   
       NON-HF               INONHF         OFF         [  0]    ***   
       NTOP_TAMP            ITOPT2             15               ***   
       NUC_MODEL            INUCMO         POINT       [  0]    ***   
       OCCUPATION           IOCCU   ESTIMATED BY SCF 
       OPEN-SHELL           IOPEN          SPIN-ORBITAL[  0]    ***   
       OPTVIB               IOPTVB         OFF         [  0]    ***   
       ORBITALS             IORBTP         STANDARD    [  0]    ***   
       PARALLEL             IPARAL         ON          [  1]    ***   
       PARA_INT             IPINTS         ON          [  1]    ***   
       PARA_PRINT           IPPRIN              0               ***   
       PERT_ORB             IPTORB         STANDARD    [  0]    ***   
       POINTS               IGRDFD              0               ***   
       PRINT                IPRNT               0               ***   
       PROPS                IPROPS         OFF         [  0]    ***   
       PROP_INTEGR          IINTYP         INTERNAL    [  0]    ***   
       PSI                  IPSI           OFF         [  0]    ***   
       QC_ALG               IQCALG         FLM         [  0]    ***   
       QC_LINALG            IQCLIN         TRIDIAG     [  2]    ***   
       QC_MAXCYC            IQCMAX          10D-100           cycles  
       QC_MAXSCFCY          IQCMSC          10D- 15           cycles  
       QC_RTRUST            IQCRTR          10D-  0           x 10-3  
       QC_SKIPSCF           IQCSKI         OFF         [  0]    ***   
       QC_START             IQCSTA          10D-  1             ***   
       QRHFGUESS            IQGUES         OFF         [  0]    ***   
       QUARTIC              IQUART         OFF         [  0]    ***   
       RAMAN_INT            IRAMIN         OFF         [  0]    ***   
       RAMAN_ORB            IRAMRE         UNRELAXED   [  0]    ***   
       RDO                  IRDOFM         OFF         [  0]    ***   
       REDUCE_REPR          REDREP         Ir          [  0]    ***   
       REFERENCE            IREFNC         RHF         [  0]    ***   
       RELATIVIST           IRELAT         OFF         [  0]    ***   
       RELAX_DENS           IRDENS         OFF         [  0]    ***   
       RESET_FLAGS          IRESET         OFF         [  0]    ***   
       RESTART_CC           ICCRES         OFF         [  0]    ***   
       ROT_EVEC             ROTVEC              0               ***   
       SAVE_INTS            ISVINT         OFF         [  0]    ***   
       SCALE_ON             ISTCRT              0               ***   
       SCF_CONV             ISCFCV          10D-  7             ***   
       SCF_DAMPING          IDAMP               0             x 10-3  
       SCF_EXPORDE          IRPPOR              6               ***   
       SCF_EXPSTAR          IRPPLS              8               ***   
       SCF_EXTRAPO          IRPP           ON          [  1]    ***   
       SCF_MAXCYC           ISCFCY            150              cycles 
       SCF_NOSTOP           ISCFST         OFF         [  0]    ***   
       SCF_PRINT            ISCFPR              0               ***   
       SCF_PROG             ISCFPR         SCF         [  0]    ***   
       SD_FIELD             IFINSD              0             x 10-6  
       SOPERT               IPERSO         OFF         [  0]    ***   
       SPHERICAL            IDFGHI         ON          [  1]    ***   
       SPINORBIT            ISOCAL         OFF         [  0]    ***   
       SPINROTATIO          ISRCON         OFF         [  0]    ***   
       SPIN_FLIP            ISPFLP         OFF         [  0]    ***   
       SPIN_ORBIT           ISPORB         OFF         [  0]    ***   
       SPIN_SCAL            ISCSMP         OFF         [  0]    ***   
       STEEPSCALE           ISTPSC              1000          x 10-3  
       SUBGROUP             ISUBGP         DEFAULT     [  0]    ***   
       SUBGRPAXIS           ISBXYZ         X           [  0]    ***   
       SYMMETRY             ISYM           ON          [  0]    ***   
       SYM_CHECK            ISYMCK         OVERRIDE    [  1]    ***   
       T3_EXTRAPOL          IT3EXT         OFF         [  0]    ***   
       T4_EXTRAPOL          IT4EXP         OFF         [  0]    ***   
       TAMP_SUM             IEVERY              5               ***   
       TESTSUITE            ITESTS         OFF         [  0]    ***   
       THERMOCH             ITHERM         OFF         [  0]    ***   
       TOL_CHOLESK          ITOLCH          10D-  4             ***   
       TRANGRAD             IRESRM         OFF         [  0]    ***   
       TRANS_INV            ITRAIN         USE         [  0]    ***   
       TREAT_PERT           ITREAT         SIMULTANEOUS[  0]    ***   
       TRIP_ALGORI          ITRALG         NORMAL      [  0]    ***   
       UIJ_THRESHO          IUIJTH              1               ***   
       UNITS                IUNITS         ANGSTROM    [  0]    ***   
       UNOS                 IUNOS          OFF         [  0]    ***   
       UPDATE_HESS          IHUPDT         ON          [  1]    ***   
       VIBPHASE             ISETPH         STANDARD    [  0]    ***   
       VIBRATION            IVIB           NO          [  0]    ***   
       VIB_ALGORIT          IGEALG         STANDARD    [  0]    ***   
       VNATORB              IVNORB         OFF         [  0]    ***   
       VTRAN                IVTRAN         FULL/PARTIAL[  0]    ***   
       XFIELD               IXEFLD              0             x 10-6  
       XFORM_TOL            IXFTOL          10D- 11             ***   
       YFIELD               IYEFLD              0             x 10-6  
       ZFIELD               IZEFLD              0             x 10-6  
       ZSCALE_EXP           IZEXPS         OFF         [  0]    ***   
    -------------------------------------------------------------------
  @GETXYZ-I,     7 atoms read from ZMAT.
   Rotational constants (in cm-1): 
          0.3623593124             0.4923093882             0.8536890782
   Rotational constants (in MHz): 
      10863.2604149601         14759.0662259356         25592.9582983935
********************************************************************************
   The full molecular point group is C2v .
   The largest Abelian subgroup of the full molecular point group is C2v .
   The computational point group is C2v .
********************************************************************************


 ----------------------------------------------------------------
         Coordinates used in calculation (QCOMP) 
 ----------------------------------------------------------------
 Z-matrix   Atomic            Coordinates (in bohr)
  Symbol    Number           X              Y              Z
 ----------------------------------------------------------------
     C         6        -1.25572327     0.00000000    -0.36727266
     C         6         1.25572327     0.00000000    -0.36727266
     H         1        -2.19034422     1.81857454    -0.36727266
     H         1         2.19034422     1.81857454    -0.36727266
     H         1        -2.19034422    -1.81857454    -0.36727266
     H         1         2.19034422    -1.81857454    -0.36727266
     H         1         0.00000000     0.00000000    10.21519586
 ----------------------------------------------------------------
 
   Interatomic distance matrix (Angstroms) 
 
                 C             C             H             H             H    
                [ 1]        [ 2]        [ 3]        [ 4]        [ 5]
  C    [ 1]     0.00000
  C    [ 2]     1.32900     0.00000
  H    [ 3]     1.08200     2.06193     0.00000
  H    [ 4]     2.06193     1.08200     2.31816     0.00000
  H    [ 5]     1.08200     2.06193     1.92470     3.01303     0.00000
  H    [ 6]     2.06193     1.08200     3.01303     1.92470     2.31816
  H    [ 7]     5.63929     5.63929     5.79910     5.79910     5.79910
 
                 H             H    
                [ 6]        [ 7]
  H    [ 6]     0.00000
  H    [ 7]     5.79910     0.00000
 rotcon2
   Rotational constants (in cm-1): 
          0.4923093882             0.3623593124             0.8536890782
   Rotational constants (in MHz): 
      14759.0662259356         10863.2604149601         25592.9582983935
  ECPDATA file not present.   Using default ECPDATA. 
  @GTFLGS-W, Keyword #EXCITE not known and is ignored.
  @GTFLGS-W, Keyword #ESTATE_SYM not known and is ignored.
  There are  139 basis functions.
 @GEOPT-W, Archive file not created for single-point calculation.
 @CHECKOUT-I, Total execution time (CPU/WALL):        0.13/       0.15 seconds.
--executable xjoda finished with status     0 in        0.16 seconds (walltime).
 --invoking executable--
/home/tsommerfeld/zscale/bin/xvmol
 SERIAL VERSION OF MOLECULE STARTED
********************************************************************************
                    INPUT FROM MOL FILE
********************************************************************************
INTGRL        1    0    1    0    0    0    0    0    0                         
         *** CFOUR Program System (Release V0.1) ***                            
h_ethylene                                                                      
    3    2 X  Y       0.10E-08              0    0                              
   9999.00      3.00                                                            
          6.00000000    1    4    1    1    1    1                              
C #1  -1.255723272983657   0.000000000000000  -0.367272658456073                
   10    4                                                                      
   8236.00000000000       5.310000000000000E-004  0.000000000000000E+000        
 -1.130000000000000E-004  0.000000000000000E+000                                
   1235.00000000000       4.108000000000000E-003  0.000000000000000E+000        
 -8.780000000000000E-004  0.000000000000000E+000                                
   280.800000000000       2.108700000000000E-002  0.000000000000000E+000        
 -4.540000000000000E-003  0.000000000000000E+000                                
   79.2700000000000       8.185300000000000E-002  0.000000000000000E+000        
 -1.813300000000000E-002  0.000000000000000E+000                                
   25.5900000000000       0.234817000000000       0.000000000000000E+000        
 -5.576000000000000E-002  0.000000000000000E+000                                
   8.99700000000000       0.434401000000000       0.000000000000000E+000        
 -0.126895000000000       0.000000000000000E+000                                
   3.31900000000000       0.346129000000000       0.000000000000000E+000        
 -0.170352000000000       0.000000000000000E+000                                
  0.905900000000000       3.937800000000000E-002   1.00000000000000             
  0.140382000000000       0.000000000000000E+000                                
  0.364300000000000      -8.983000000000000E-003  0.000000000000000E+000        
  0.598684000000000       0.000000000000000E+000                                
  0.128500000000000       2.385000000000000E-003  0.000000000000000E+000        
  0.395389000000000        1.00000000000000                                     
    5    3                                                                      
   18.7100000000000       0.000000000000000E+000  1.403100000000000E-002        
  0.000000000000000E+000                                                        
   4.13300000000000       0.000000000000000E+000  8.686600000000000E-002        
  0.000000000000000E+000                                                        
   1.20000000000000       0.000000000000000E+000  0.290216000000000             
  0.000000000000000E+000                                                        
  0.382700000000000        1.00000000000000       0.501008000000000             
  0.000000000000000E+000                                                        
  0.120900000000000       0.000000000000000E+000  0.343406000000000             
   1.00000000000000                                                             
    2    2                                                                      
   1.09700000000000        1.00000000000000       0.000000000000000E+000        
  0.318000000000000       0.000000000000000E+000   1.00000000000000             
    1    1                                                                      
  0.761000000000000        1.00000000000000                                     
          1.00000000    1    3    1    1    1                                   
H #2  -2.190344215575466   1.818574537711477  -0.367272658456073                
    5    3                                                                      
   33.8700000000000       0.000000000000000E+000  6.068000000000000E-003        
  0.000000000000000E+000                                                        
   5.09500000000000       0.000000000000000E+000  4.530800000000000E-002        
  0.000000000000000E+000                                                        
   1.15900000000000       0.000000000000000E+000  0.202822000000000             
  0.000000000000000E+000                                                        
  0.325800000000000        1.00000000000000       0.503903000000000             
  0.000000000000000E+000                                                        
  0.102700000000000       0.000000000000000E+000  0.383421000000000             
   1.00000000000000                                                             
    2    2                                                                      
   1.40700000000000        1.00000000000000       0.000000000000000E+000        
  0.388000000000000       0.000000000000000E+000   1.00000000000000             
    1    1                                                                      
   1.05700000000000        1.00000000000000                                     
          1.00000000    1    3    1    1    1                                   
H #3   0.000000000000000   0.000000000000000  10.215195857282797                
    6    4                                                                      
   33.8700000000000       0.000000000000000E+000  6.068000000000000E-003        
  0.000000000000000E+000  0.000000000000000E+000                                
   5.09500000000000       0.000000000000000E+000  4.530800000000000E-002        
  0.000000000000000E+000  0.000000000000000E+000                                
   1.15900000000000       0.000000000000000E+000  0.202822000000000             
  0.000000000000000E+000  0.000000000000000E+000                                
  0.325800000000000        1.00000000000000       0.503903000000000             
  0.000000000000000E+000  0.000000000000000E+000                                
  0.102700000000000       0.000000000000000E+000  0.383421000000000             
   1.00000000000000       0.000000000000000E+000                                
  2.526000000000000E-002  0.000000000000000E+000  0.000000000000000E+000        
  0.000000000000000E+000   1.00000000000000                                     
    3    3                                                                      
   1.40700000000000        1.00000000000000       0.000000000000000E+000        
  0.000000000000000E+000                                                        
  0.388000000000000       0.000000000000000E+000   1.00000000000000             
  0.000000000000000E+000                                                        
  0.102000000000000       0.000000000000000E+000  0.000000000000000E+000        
   1.00000000000000                                                             
    2    2                                                                      
   1.05700000000000        1.00000000000000       0.000000000000000E+000        
  0.247000000000000       0.000000000000000E+000   1.00000000000000             
FINISH                                                                          
 
********************************************************************************
 ONE- AND TWO-ELECTRON INTEGRALS OVER SYMMETRY-ADAPTED AOS ARE CALCULATED.

  SPHERICAL HARMONICS ARE USED.
  
  INTEGRALS LESS THAN  0.10E-13 ARE NEGLECTED.

  NUCLEAR REPULSION ENERGY :   35.0802728076 A.U.
  @MOLECU-I, ONE ELECTRON INTEGRALS (CPU/WALL):        0.04/       0.04 SECONDS.
  @TWOEL-I,     628467 INTEGRALS OF SYMMETRY TYPE  I I I I
  @TWOEL-I,    2629590 INTEGRALS OF SYMMETRY TYPE  I J I J
  @TWOEL-I,    1463504 INTEGRALS OF SYMMETRY TYPE  I I J J
  @TWOEL-I,    2263059 INTEGRALS OF SYMMETRY TYPE  I J K L
  @TWOEL-I, TOTAL NUMBER OF 2-E INTEGRALS    6984620.
  @MOLECU-I, TWO ELECTRON INTEGRALS (CPU/WALL):       40.06/       4.37 SECONDS.
 @CHECKOUT-I, Total execution time (CPU/WALL):       40.11/       4.42 seconds.

Running with 12 threads/proc

--executable xvmol finished with status     0 in        4.45 seconds (walltime).
 --invoking executable--
/home/tsommerfeld/zscale/bin/xvmol2ja
 @GETMEM-I,  Allocated   85830 MB of main memory.
 @CHECKOUT-I, Total execution time (CPU/WALL):        0.11/       0.02 seconds.
--executable xvmol2ja finished with status     0 in        0.04 seconds (walltime).
 --invoking executable--
/home/tsommerfeld/zscale/bin/xvscf
  There are  139 functions in the AO basis.

  There are 4 irreducible representations.

       Irrep        # of functions
         1                 45
         2                 39
         3                 29
         4                 26


  Parameters for SCF calculation: 
        SCF reference function:  RHF  
  Maximum number of iterations:  150
     Full symmetry point group: C2v 
     Computational point group: C2v 
        Initial density matrix: MOREAD                 
     SCF convergence tolerance: 10**(- 7)
  DIIS convergence acceleration:  ON
          Latest start for DIIS:   8
                     DIIS order:   6

  Memory information:     823082 words required.
  Fock matrices are constructed from AO integral file.
 @GETMEM-I,  Allocated       6 MB of main memory.
  Initialization and symmetry analysis required      0.002 seconds.

  @INITGES-I, Occupancies from core Hamiltonian:

          Alpha population by irrep:   4    3    1    1
           Beta population by irrep:   4    3    1    1


 total no. of electrons in initial guess :  0.000000000000000E+000
  --------------------------------------------------------------------
  Iteration         Total Energy            Largest Density Difference
  --------------------------------------------------------------------
       0            35.080272807570282              0.0000000000D+00
   current occupation vector 
     4  3  1  1
     4  3  1  1
       1           -51.767321101542208              0.8750055526D+01
   current occupation vector 
     4  3  1  1
     4  3  1  1
       2           -44.395421706292524              0.3076203823D+02
   current occupation vector 
     5  3  1  0
     5  3  1  0
       3           -68.110697320089443              0.3050428143D+02
   current occupation vector 
     4  3  1  1
     4  3  1  1
       4           -46.410658078330897              0.1260469088D+02
   current occupation vector 
     6  2  1  0
     6  2  1  0
       5           -68.787095943131334              0.1260469004D+02
   current occupation vector 
     4  3  1  1
     4  3  1  1
       6           -46.693984828174735              0.1259901549D+02
   current occupation vector 
     6  2  1  0
     6  2  1  0
       7           -68.881834616879900              0.1259901552D+02
   current occupation vector 
     4  3  1  1
     4  3  1  1
       8           -46.732042516494744              0.1259815966D+02
   current occupation vector 
     6  2  1  0
     6  2  1  0
       9           -73.782741624632479              0.1259817123D+02
   current occupation vector 
     4  3  1  1
     4  3  1  1
      10           -76.146543564742771              0.9606683643D+00
   current occupation vector 
     4  3  1  1
     4  3  1  1
      11           -78.486244525031921              0.1539159153D+01
   current occupation vector 
     5  2  1  1
     5  2  1  1
      12           -78.539735023028484              0.4178442613D+00
   current occupation vector 
     5  2  1  1
     5  2  1  1
      13           -78.545412233407703              0.8799878390D-01
   current occupation vector 
     5  2  1  1
     5  2  1  1
      14           -78.545701816442232              0.2920753279D-01
   current occupation vector 
     5  2  1  1
     5  2  1  1
      15           -78.545715940182248              0.7543611095D-02
   current occupation vector 
     5  2  1  1
     5  2  1  1
      16           -78.545716579906838              0.2087483057D-02
   current occupation vector 
     5  2  1  1
     5  2  1  1
      17           -78.545716587465719              0.1625208006D-03
   current occupation vector 
     5  2  1  1
     5  2  1  1
      18           -78.545716587667826              0.2325780100D-04
   current occupation vector 
     5  2  1  1
     5  2  1  1
      19           -78.545716587684794              0.2934662963D-05
   current occupation vector 
     5  2  1  1
     5  2  1  1
      20           -78.545716587686371              0.7153951158D-06
   current occupation vector 
     5  2  1  1
     5  2  1  1
      21           -78.545716587685845              0.1432782556D-06
   current occupation vector 
     5  2  1  1
     5  2  1  1

  SCF has converged.

 Density matrix saved to file den.dat
 total electron number:   18.0000000000000     
     E(SCF)=       -78.545716587686258              0.7886441708D-08


  Final occupancies:

     Alpha population by irrep:   5    2    1    1
      Beta population by irrep:   5    2    1    1


  Eigenvector printing suppressed.

 @PUTMOS-I, Writing converged MOs to NEWMOS. 
 @PUTMOS-I, Symmetry   1 Full Blocks 11 Partial Blocksize   1
 @PUTMOS-I, Symmetry   2 Full Blocks  9 Partial Blocksize   3
 @PUTMOS-I, Symmetry   3 Full Blocks  7 Partial Blocksize   1
 @PUTMOS-I, Symmetry   4 Full Blocks  6 Partial Blocksize   2
 @PUTFOCK-I, Writing converged Fock matrix to NEWFOCK. 
 @PUTFOCK-I, Symmetry   1 Full Blocks 11 Partial Blocksize   1
 @PUTFOCK-I, Symmetry   2 Full Blocks  9 Partial Blocksize   3
 @PUTFOCK-I, Symmetry   3 Full Blocks  7 Partial Blocksize   1
 @PUTFOCK-I, Symmetry   4 Full Blocks  6 Partial Blocksize   2


 
  ORBITAL EIGENVALUES (ALPHA)  (1H = 27.2113834 eV)

       MO #        E(hartree)               E(eV)           FULLSYM    COMPSYM
       ----   --------------------   --------------------   -------   ---------
    1     1         -11.1342421215        -302.9781312372      A1        A1 (1)
    2    46         -11.1324780360        -302.9301280289      B1        B1 (2)
    3     2          -0.9455374491         -25.7293820469      A1        A1 (1)
    4    47          -0.6882193539         -18.7274007024      B1        B1 (2)
    5    85          -0.5673981950         -15.4396898243      B2        B2 (3)
    6     3          -0.4745460047         -12.9130532754      A1        A1 (1)
    7   114          -0.4233295178         -11.5193818129      A2        A2 (4)
    8     4          -0.2833646503          -7.7107441409      A1        A1 (1)
    9     5          -0.0445160528          -1.2113433796      A1        A1 (1)
  +++++++++++++++++++++++++++++++++++++++++++++++++++++++++++++++++++++++++++++
   10     6           0.2335157368           6.3542862429      A1        A1 (1)
   11    48           0.2476989167           6.7402301908      B1        B1 (2)
   12     7           0.2600722833           7.0769266130      A1        A1 (1)
   13    86           0.2725439863           7.4162989040      B2        B2 (3)
   14    49           0.2799860899           7.6188088396      B1        B1 (2)
   15   115           0.3255791456           8.8594589570      A2        A2 (4)
   16    50           0.4438119188          12.0767362809      B1        B1 (2)
   17     8           0.4464775297          12.1492712408      A1        A1 (1)
   18    51           0.4501119952          12.2481700734      B1        B1 (2)
   19    87           0.4501892483          12.2502722386      B2        B2 (3)
   20     9           0.4513424010          12.2816511186      A1        A1 (1)
   21    10           0.5447571124          14.8235946464      A1        A1 (1)
   22    88           0.5635185203          15.3341185094      B2        B2 (3)
   23    11           0.5846258487          15.9084781149      A1        A1 (1)
   24    52           0.6563451958          17.8600607648      B1        B1 (2)
   25    53           0.6864543483          18.6793724591      B1        B1 (2)
   26    89           0.6868366063          18.6897742273      B2        B2 (3)
   27    12           0.7159436459          19.4818170414      A1        A1 (1)
   28    54           0.7300843020          19.8666038561      B1        B1 (2)
   29    90           0.7601441030          20.6845726249      B2        B2 (3)
   30   116           0.7838849962          21.3305951733      A2        A2 (4)
   31    13           0.7893519340          21.4793581129      A1        A1 (1)
   32    55           0.8761022337          23.8399537783      B1        B1 (2)
   33   117           0.9202667921          25.0417325096      A2        A2 (4)
   34    14           0.9898205841          26.9343874103      A1        A1 (1)
   35   118           0.9963413915          27.1118276003      A2        A2 (4)
   36    15           1.0775170457          29.3207294503      A1        A1 (1)
   37   119           1.1031063626          30.0170501632      E         A2 (4)
   38    16           1.1031068889          30.0170644852      E         A1 (1)
   39    91           1.1032471165          30.0208802712      B2        B2 (3)
   40    56           1.1032837494          30.0218771044      B1        B1 (2)
   41    17           1.1034665978          30.0268526631      A1        A1 (1)
   42   120           1.1118649879          30.2553844760      A2        A2 (4)
   43    92           1.1292791914          30.7292490415      B2        B2 (3)
   44    18           1.2741419009          34.6711637710      A1        A1 (1)
   45    57           1.2746860105          34.6859697472      B1        B1 (2)
   46    19           1.3183937582          35.8753180261      A1        A1 (1)
   47    93           1.3395674643          36.4514838599      B2        B2 (3)
   48    58           1.3397739627          36.4571029680      B1        B1 (2)
   49    20           1.3458880072          36.6234745777      A1        A1 (1)
   50    94           1.3465759130          36.6421934463      B2        B2 (3)
   51    59           1.4127070015          38.4417118505      B1        B1 (2)
   52    95           1.4362452470          39.0822200739      B2        B2 (3)
   53    60           1.4568150283          39.6419522773      B1        B1 (2)
   54    96           1.5541528538          42.2906491680      B2        B2 (3)
   55    61           1.5689336416          42.6928548496      B1        B1 (2)
   56    21           1.5997925972          43.5325697218      A1        A1 (1)
   57    62           1.6255727241          44.2340826392      B1        B1 (2)
   58   121           1.6875721057          45.9211715831      A2        A2 (4)
   59   122           1.7284937474          47.0347060640      A2        A2 (4)
   60    63           1.8917069595          51.4759633560      B1        B1 (2)
   61    22           1.9431655702          52.8762233402      A1        A1 (1)
   62   123           2.0616095198          56.0992470645      A2        A2 (4)
   63    23           2.3818589476          64.8136770276      A1        A1 (1)
   64    24           2.4615770743          66.9829175383      A1        A1 (1)
   65    25           2.6406803436          71.8565652658      A1        A1 (1)
   66    64           2.6575318238          72.3151173557      B1        B1 (2)
   67    97           2.7159343728          73.9043315073      B2        B2 (3)
   68    98           2.8012356403          76.2254970010      B2        B2 (3)
   69    65           2.8329986570          77.0898126279      B1        B1 (2)
   70    26           2.8542046468          77.6668569456      A1        A1 (1)
   71   124           2.9338172770          79.8332267509      A2        A2 (4)
   72    27           2.9822776272          81.1518999185      A1        A1 (1)
   73    99           3.0080932207          81.8543779318      B2        B2 (3)
   74   125           3.1566371920          85.8964648861      A2        A2 (4)
   75    28           3.1896658117          86.7952193198      A1        A1 (1)
   76   100           3.1997032831          87.0683528031      B2        B2 (3)
   77    29           3.2010911742          87.1061192387      A1        A1 (1)
   78   101           3.2130986572          87.4328594625      B2        B2 (3)
   79   126           3.2453558459          88.3106221920      A2        A2 (4)
   80    30           3.2713690591          89.0184777111      A1        A1 (1)
   81    66           3.3214102081          90.3801666015      B1        B1 (2)
   82    67           3.3578399882          91.3714713135      B1        B1 (2)
   83   102           3.4297728147          93.3288630363      B2        B2 (3)
   84    68           3.4945927975          95.0927044397      B1        B1 (2)
   85    69           3.5184460173          95.7417835481      B1        B1 (2)
   86   127           3.5190547900          95.7583490952      A2        A2 (4)
   87   128           3.5391878495          96.3061974966      A2        A2 (4)
   88    70           3.5459873305          96.4912207815      B1        B1 (2)
   89    31           3.6430872840          99.1334448451      A1        A1 (1)
   90    32           3.6689996607          99.8385564631      A1        A1 (1)
   91   103           3.7336006685         101.5964392541      B2        B2 (3)
   92   104           3.8141688001         103.7888095731      B2        B2 (3)
   93   129           3.9078706896         106.3385676127      A2        A2 (4)
   94    71           3.9684977770         107.9883145326      B1        B1 (2)
   95   130           4.0038244512         108.9496022071      A2        A2 (4)
   96    72           4.0603705231         110.4882990503      B1        B1 (2)
   97   131           4.0690265915         110.7238426448      A2        A2 (4)
   98    33           4.0990264364         111.5401799270      A1        A1 (1)
   99   105           4.1035408900         111.6630244546      B2        B2 (3)
  100    34           4.1494653797         112.9126933510      A1        A1 (1)
  101    35           4.2175461548         114.7652654252      E         A1 (1)
  102   132           4.2175462820         114.7652688870      E         A2 (4)
  103   106           4.2175859301         114.7663477676      B2        B2 (3)
  104    73           4.2176039052         114.7668368941      B1        B1 (2)
  105    36           4.2176532559         114.7681797938      A1        A1 (1)
  106    74           4.2762891341         116.3637431566      B1        B1 (2)
  107   133           4.2832678396         116.5536433885      A2        A2 (4)
  108    37           4.2848165375         116.5957856001      A1        A1 (1)
  109   107           4.2940748047         116.8477158585      B2        B2 (3)
  110    38           4.4211819708         120.3064776891      A1        A1 (1)
  111    75           4.4418312815         120.8683739999      B1        B1 (2)
  112   108           4.4456999266         120.9736451840      B2        B2 (3)
  113    76           4.4463153849         120.9903926556      B1        B1 (2)
  114    39           4.4478401087         121.0318825006      A1        A1 (1)
  115   109           4.5614103636         124.1222862488      B2        B2 (3)
  116    77           4.5974161517         125.1020535544      B1        B1 (2)
  117   134           4.6986341260         127.8563346576      A2        A2 (4)
  118    40           4.7339088977         128.8162099968      A1        A1 (1)
  119    78           4.8501891538         131.9803566276      B1        B1 (2)
  120    79           4.9063750641         133.5092529725      B1        B1 (2)
  121    41           5.0204862935         136.6143773857      A1        A1 (1)
  122    42           5.0659600931         137.8517823834      A1        A1 (1)
  123   135           5.1196940799         139.3139584988      A2        A2 (4)
  124   110           5.2190819754         142.0184406290      B2        B2 (3)
  125   111           5.3089985235         144.4651942934      B2        B2 (3)
  126    43           5.3915622931         146.7118686817      A1        A1 (1)
  127    80           5.3963122237         146.8411208659      B1        B1 (2)
  128   136           5.5190671689         150.1814527446      A2        A2 (4)
  129   137           5.5341842122         150.5928084057      A2        A2 (4)
  130    81           5.6298673074         153.1964777917      B1        B1 (2)
  131    44           5.6548036448         153.8750300309      A1        A1 (1)
  132   112           5.7095404109         155.3644931591      B2        B2 (3)
  133    82           6.0490569417         164.6032076496      B1        B1 (2)
  134   138           6.1846947993         168.2941013949      A2        A2 (4)
  135   113           6.3625577610         173.1339986392      B2        B2 (3)
  136    83           6.6019890959         179.6492564910      B1        B1 (2)
  137   139           6.9654448023         189.5393890678      A2        A2 (4)
  138    45          11.9951848175         326.4055730230      A1        A1 (1)
  139    84          14.8418027932         403.8659861543      B1        B1 (2)


  VSCF finished.

 @CHECKOUT-I, Total execution time (CPU/WALL):       18.36/       1.54 seconds.
--executable xvscf finished with status     0 in        1.56 seconds (walltime).
 --invoking executable--
/home/tsommerfeld/zscale/bin/xvtran
 @GETMEM-I,  Allocated   85830 MB of main memory.
  Full RHF integral transformation
  Transformation of IIII integrals :
  1 pass through the AO integral file was required.
      628467 AO integrals were read.
      997326 MO integrals were written to HF2.
  Transformation of IIJJ integrals :
  1 pass through the AO integral file was required.
     1463504 AO integrals were read.
     2386575 MO integrals were written to HF2.
  Transformation of IJIJ integrals :
  1 pass through the AO integral file was required.
     2629590 AO integrals were read.
     4517476 MO integrals were written to HF2.
  Transformation of IJKL integrals :
  1 pass through the AO integral file was required.
     2263059 AO integrals were read.
     3969810 MO integrals were written to HF2.
  Summary of active molecular orbitals: 
------------------------------------------------------------------------
 
  Index      Eigenvalue    Symmetry    Index      Eigenvalue    Symmetry
------------------------------------------------------------------------
     1       -11.1342421        1        71         3.5184460        2
     2        -0.9455374        1        72         3.5459873        2
     3        -0.4745460        1        73         3.9684978        2
     4        -0.2833647        1        74         4.0603705        2
     5        -0.0445161        1        75         4.2176039        2
     6       -11.1324780        2        76         4.2762891        2
     7        -0.6882194        2        77         4.4418313        2
     8        -0.5673982        3        78         4.4463154        2
     9        -0.4233295        4        79         4.5974162        2
    10         0.2335157        1        80         4.8501892        2
    11         0.2600723        1        81         4.9063751        2
    12         0.4464775        1        82         5.3963122        2
    13         0.4513424        1        83         5.6298673        2
    14         0.5447571        1        84         6.0490569        2
    15         0.5846258        1        85         6.6019891        2
    16         0.7159436        1        86        14.8418028        2
    17         0.7893519        1        87         0.2725440        3
    18         0.9898206        1        88         0.4501892        3
    19         1.0775170        1        89         0.5635185        3
    20         1.1031069        1        90         0.6868366        3
    21         1.1034666        1        91         0.7601441        3
    22         1.2741419        1        92         1.1032471        3
    23         1.3183938        1        93         1.1292792        3
    24         1.3458880        1        94         1.3395675        3
    25         1.5997926        1        95         1.3465759        3
    26         1.9431656        1        96         1.4362452        3
    27         2.3818589        1        97         1.5541529        3
    28         2.4615771        1        98         2.7159344        3
    29         2.6406803        1        99         2.8012356        3
    30         2.8542046        1       100         3.0080932        3
    31         2.9822776        1       101         3.1997033        3
    32         3.1896658        1       102         3.2130987        3
    33         3.2010912        1       103         3.4297728        3
    34         3.2713691        1       104         3.7336007        3
    35         3.6430873        1       105         3.8141688        3
    36         3.6689997        1       106         4.1035409        3
    37         4.0990264        1       107         4.2175859        3
    38         4.1494654        1       108         4.2940748        3
    39         4.2175462        1       109         4.4456999        3
    40         4.2176533        1       110         4.5614104        3
    41         4.2848165        1       111         5.2190820        3
    42         4.4211820        1       112         5.3089985        3
    43         4.4478401        1       113         5.7095404        3
    44         4.7339089        1       114         6.3625578        3
    45         5.0204863        1       115         0.3255791        4
    46         5.0659601        1       116         0.7838850        4
    47         5.3915623        1       117         0.9202668        4
    48         5.6548036        1       118         0.9963414        4
    49        11.9951848        1       119         1.1031064        4
    50         0.2476989        2       120         1.1118650        4
    51         0.2799861        2       121         1.6875721        4
    52         0.4438119        2       122         1.7284937        4
    53         0.4501120        2       123         2.0616095        4
    54         0.6563452        2       124         2.9338173        4
    55         0.6864543        2       125         3.1566372        4
    56         0.7300843        2       126         3.2453558        4
    57         0.8761022        2       127         3.5190548        4
    58         1.1032837        2       128         3.5391878        4
    59         1.2746860        2       129         3.9078707        4
    60         1.3397740        2       130         4.0038245        4
    61         1.4127070        2       131         4.0690266        4
    62         1.4568150        2       132         4.2175463        4
    63         1.5689336        2       133         4.2832678        4
    64         1.6255727        2       134         4.6986341        4
    65         1.8917070        2       135         5.1196941        4
    66         2.6575318        2       136         5.5190672        4
    67         2.8329987        2       137         5.5341842        4
    68         3.3214102        2       138         6.1846948        4
    69         3.3578400        2       139         6.9654448        4
    70         3.4945928        2
------------------------------------------------------------------------
  -11.1342421215249      -0.945537449115649      -0.474546004719989     
 -0.283364650285542      -4.451605277719627E-002  -11.1324780359714     
 -0.688219353903920      -0.567398194989111      -0.423329517782392     
  0.233515736760498       0.260072283315883       0.446477529725103     
  0.451342401011557       0.544757112436011       0.584625848714300     
  0.715943645900691       0.789351933973099       0.989820584069331     
   1.07751704569132        1.10310688890641        1.10346659784576     
   1.27414190088476        1.31839375818290        1.34588800721220     
   1.59979259716090        1.94316557019151        2.38185894759027     
   2.46157707433080        2.64068034357255        2.85420464678032     
   2.98227762718326        3.18966581169208        3.20109117417051     
   3.27136905913839        3.64308728402061        3.66899966074890     
   4.09902643637646        4.14946537966195        4.21754615478990     
   4.21765325587264        4.28481653748129        4.42118197081643     
   4.44784010873254        4.73390889773110        5.02048629345806     
   5.06596009313624        5.39156229306896        5.65480364482118     
   11.9951848175070       0.247698916725478       0.279986089925659     
  0.443811918834197       0.450111995167591       0.656345195767899     
  0.686454348334884       0.730084302001578       0.876102233679815     
   1.10328374941955        1.27468601053118        1.33977396268477     
   1.41270700152841        1.45681502827683        1.56893364155684     
   1.62557272406773        1.89170695952355        2.65753182382235     
   2.83299865702274        3.32141020810715        3.35783998815475     
   3.49459279750191        3.51844601726788        3.54598733048999     
   3.96849777702057        4.06037052310437        4.21760390521497     
   4.27628913407792        4.44183128153439        4.44631538489166     
   4.59741615174294        4.85018915383807        4.90637506406489     
   5.39631222372692        5.62986730736063        6.04905694172126     
   6.60198909589289        14.8418027932498       0.272543986279250     
  0.450189248320568       0.563518520319474       0.686836606303145     
  0.760144102960566        1.10324711646885        1.12927919135299     
   1.33956746425057        1.34657591301784        1.43624524704828     
   1.55415285383993        2.71593437279184        2.80123564026586     
   3.00809322071358        3.19970328311437        3.21309865717850     
   3.42977281472041        3.73360066853897        3.81416880014543     
   4.10354088997350        4.21758593014323        4.29407480468162     
   4.44569992659835        4.56141036360388        5.21908197541177     
   5.30899852351469        5.70954041091095        6.36255776099854     
  0.325579145566009       0.783884996205928       0.920266792082062     
  0.996341391459757        1.10310636258199        1.11186498794460     
   1.68757210569234        1.72849374736424        2.06160951980578     
   2.93381727703199        3.15663719199605        3.24535584589135     
   3.51905478996019        3.53918784947050        3.90787068961348     
   4.00382445117167        4.06902659145239        4.21754628200815     
   4.28326783960811        4.69863412595204        5.11969407989909     
   5.51906716894658        5.53418421224816        6.18469479926982     
   6.96544480233231     
 @CHECKOUT-I, Total execution time (CPU/WALL):       17.63/       2.35 seconds.
--executable xvtran finished with status     0 in        2.37 seconds (walltime).
 --invoking executable--
/home/tsommerfeld/zscale/bin/xintprc
 @GETMEM-I,  Allocated   85830 MB of main memory.
  @GMOIAA-I, Processing MO integrals for spin case AA.
  @GMOIAA-I, Generation of integral list completed.
                      TYPE                NUMBER
                      ----               --------
                      PPPP               9084376
                      PPPH               2501601
                      PPHH                173538
                      PHPH                 97627
                      PHHH                 13713
                      HHHH                   332

                     TOTAL              11871187

  @FORMT2-I, Second-order MP correlation energies:
            ------------------------------------------------
            E(SCF)                  =    -78.545716587686 a.u.
            E2(AA)                  =     -0.037994639016 a.u.
            E2(AB)                  =     -0.319452406999 a.u.
            E2(TOT)                 =     -0.395441685031 a.u.
            Total MP2 energy        =    -78.941158272717 a.u.
            ------------------------------------------------
   Largest T2 amplitudes for spin case AB:
       _       _                 _       _                 _       _
   i   j   a   b             i   j   a   b             i   j   a   b
-----------------------------------------------------------------------------
[  4   4  50  50]-0.08232 [  5   5  17  17]-0.04654 [  5   5  10  10]-0.04569
[  5   5  88  88]-0.04095 [  5   5  53  53]-0.04088 [  5   5  11  10] 0.04041
[  5   5  10  11] 0.04041 [  5   5  11  11]-0.03635 [  4   4  54  50]-0.03551
[  4   4  50  54]-0.03551 [  5   5  12  12]-0.03524 [  5   5  17  10]-0.03106
[  5   5  10  17]-0.03106 [  4   4  14  14]-0.02940 [  5   5  17  11] 0.02907
-----------------------------------------------------------------------------
   Norm of T2AB vector (   345906 symmetry allowed elements):  0.3322746983.
-----------------------------------------------------------------------------
 @CHECKOUT-I, Total execution time (CPU/WALL):        4.98/       2.74 seconds.
--executable xintprc finished with status     0 in        2.76 seconds (walltime).
  calling xvcc 
 --invoking executable--
/home/tsommerfeld/zscale/bin/xvcc
 @GETMEM-I,  Allocated   85830 MB of main memory.
   CCSD(T) energy will be calculated.
   The total correlation energy is -0.395441685031 a.u.
   The total correlation energy is -0.415279731371 a.u.
  Convergence information after     1 iterations: 
  Largest element of residual vector :  0.15727604E-01.
  Largest element of DIIS residual   :  0.15727604E-01.
   The total correlation energy is -0.426447666485 a.u.
  Convergence information after     2 iterations: 
  Largest element of residual vector : -0.10878624E-01.
  Largest element of DIIS residual   : -0.10627777E-01.
   The total correlation energy is -0.429344837493 a.u.
  Convergence information after     3 iterations: 
  Largest element of residual vector :  0.47517423E-02.
  Largest element of DIIS residual   :  0.48256670E-02.
   The total correlation energy is -0.430966590380 a.u.
  Convergence information after     4 iterations: 
  Largest element of residual vector :  0.27922776E-02.
  Largest element of DIIS residual   : -0.15529490E-02.
   The total correlation energy is -0.431139661636 a.u.
  Convergence information after     5 iterations: 
  Largest element of residual vector :  0.10050144E-02.
  Largest element of DIIS residual   :  0.51161680E-03.
   The total correlation energy is -0.431145538892 a.u.
  Convergence information after     6 iterations: 
  Largest element of residual vector : -0.33305190E-03.
  Largest element of DIIS residual   :  0.26207975E-03.
   The total correlation energy is -0.431139675406 a.u.
  Convergence information after     7 iterations: 
  Largest element of residual vector :  0.16605400E-03.
  Largest element of DIIS residual   :  0.90919257E-04.
   The total correlation energy is -0.431132095344 a.u.
  Convergence information after     8 iterations: 
  Largest element of residual vector : -0.55634764E-04.
  Largest element of DIIS residual   : -0.32976447E-04.
   The total correlation energy is -0.431131708365 a.u.
  Convergence information after     9 iterations: 
  Largest element of residual vector :  0.29388684E-04.
  Largest element of DIIS residual   : -0.15155731E-04.
   The total correlation energy is -0.431132314190 a.u.
  Convergence information after    10 iterations: 
  Largest element of residual vector : -0.95400575E-05.
  Largest element of DIIS residual   : -0.70001376E-05.
   The total correlation energy is -0.431133172180 a.u.
  Convergence information after    11 iterations: 
  Largest element of residual vector :  0.55953980E-05.
  Largest element of DIIS residual   :  0.52967862E-05.
   The total correlation energy is -0.431133709581 a.u.
  Convergence information after    12 iterations: 
  Largest element of residual vector : -0.25244288E-05.
  Largest element of DIIS residual   : -0.27060937E-05.
   The total correlation energy is -0.431134056980 a.u.
  Convergence information after    13 iterations: 
  Largest element of residual vector :  0.18762789E-05.
  Largest element of DIIS residual   :  0.10529658E-05.
   The total correlation energy is -0.431134178117 a.u.
  Convergence information after    14 iterations: 
  Largest element of residual vector : -0.72044601E-06.
  Largest element of DIIS residual   :  0.57014122E-06.
   The total correlation energy is -0.431134216441 a.u.
  Convergence information after    15 iterations: 
  Largest element of residual vector :  0.44668219E-06.
  Largest element of DIIS residual   : -0.28339232E-06.
   The total correlation energy is -0.431134209334 a.u.
  Convergence information after    16 iterations: 
  Largest element of residual vector : -0.17605589E-06.
  Largest element of DIIS residual   :  0.11017620E-06.
   The total correlation energy is -0.431134205424 a.u.
  Convergence information after    17 iterations: 
  Largest element of residual vector :  0.72232932E-07.
  Largest element of DIIS residual   :  0.58051154E-07.
  Amplitude equations converged in    17iterations.
   The total correlation energy is -0.431134204445 a.u.
   The CC iterations have converged.

   Largest T1 amplitudes for spin case AA:
   i       a                 i       a                 i       a    
-----------------------------------------------------------------------------
[  5      10    ] 0.02441 [  4      14    ] 0.02171 [  5      17    ]-0.01529
[  4      18    ]-0.01495 [  5      11    ]-0.01465 [  4      22    ] 0.00974
[  4      28    ]-0.00942 [  4      15    ]-0.00871 [  8      89    ]-0.00794
[  8      90    ] 0.00618 [  3      13    ] 0.00515 [  5      31    ]-0.00489
[  9     121    ]-0.00449 [  4      12    ] 0.00443 [  8      97    ]-0.00434
-----------------------------------------------------------------------------
   Norm of T1AA vector (      327 symmetry allowed elements):  0.0497706290.
-----------------------------------------------------------------------------
   Largest T2 amplitudes for spin case AB:
       _       _                 _       _                 _       _
   i   j   a   b             i   j   a   b             i   j   a   b
-----------------------------------------------------------------------------
[  4   4  50  50]-0.11563 [  5   5  10  10]-0.08335 [  5   5  11  10] 0.07392
[  5   5  10  11] 0.07392 [  5   5  11  11]-0.06588 [  5   5  17  17]-0.06258
[  5   5  17  10]-0.06257 [  5   5  10  17]-0.06257 [  5   5  17  11] 0.05630
[  5   5  11  17] 0.05630 [  5   5  88  88]-0.05424 [  5   5  53  53]-0.05413
[  4   4  54  50]-0.04932 [  4   4  50  54]-0.04932 [  5   5  12  12]-0.04652
-----------------------------------------------------------------------------
   Norm of T2AB vector (   345906 symmetry allowed elements):  0.4176300409.
-----------------------------------------------------------------------------
       Summary of iterative solution of CC equations 
      -----------------------------------------------------------
                       Correlation           Total
       Iteration         Energy              Energy
      -----------------------------------------------------------
            0        -0.395441685031     -78.941158272717  DIIS 
            1        -0.415279731371     -78.960996319058  DIIS 
            2        -0.426447666485     -78.972164254171  DIIS 
            3        -0.429344837493     -78.975061425179  DIIS 
            4        -0.430966590380     -78.976683178066  DIIS 
            5        -0.431139661636     -78.976856249323  DIIS 
            6        -0.431145538892     -78.976862126578  DIIS 
            7        -0.431139675406     -78.976856263092  DIIS 
            8        -0.431132095344     -78.976848683031  DIIS 
            9        -0.431131708365     -78.976848296051  DIIS 
           10        -0.431132314190     -78.976848901876  DIIS 
           11        -0.431133172180     -78.976849759867  DIIS 
           12        -0.431133709581     -78.976850297267  DIIS 
           13        -0.431134056980     -78.976850644666  DIIS 
           14        -0.431134178117     -78.976850765804  DIIS 
           15        -0.431134216441     -78.976850804128  DIIS 
           16        -0.431134209334     -78.976850797021  DIIS 
           17        -0.431134204445     -78.976850792131  DIIS 
      -----------------------------------------------------------
      A miracle has come to pass. The CC iterations have converged.
        E(CCSD)           =     -78.976850792131
        E(CCSD + T(CCSD)) =     -78.992727902531
        E(CCSD(T))        =     -78.992304218053
 @CHECKOUT-I, Total execution time (CPU/WALL):      201.02/      16.77 seconds.
--executable xvcc finished with status     0 in       16.79 seconds (walltime).
  The final electronic energy is       -78.992304218053405 a.u. 
  This computation required                           28.16 seconds (walltime).
