CFour on node02
 --invoking executable--
/home/tsommerfeld/zscale/bin/xjoda


   *************************************************************************
         <<<     CCCCCC     CCCCCC   |||     CCCCCC     CCCCCC   >>>
       <<<      CCC        CCC       |||    CCC        CCC         >>>
      <<<      CCC        CCC        |||   CCC        CCC            >>>
    <<<        CCC        CCC        |||   CCC        CCC              >>>
      <<<      CCC        CCC        |||   CCC        CCC            >>>
       <<<      CCC        CCC       |||    CCC        CCC         >>>
         <<<     CCCCCC     CCCCCC   |||     CCCCCC     CCCCCC   >>>
   *************************************************************************

     ****************************************************************
     * CFOUR Coupled-Cluster techniques for Computational Chemistry *
     ****************************************************************
 

   Department of Chemistry                Institut fuer Physikalische Chemie
   University of Florida                  Universitaet Mainz
   Gainesville, FL 32611, USA             D-55099 Mainz, Germany

   Department of Chemistry                Department of Chemistry
   Johns Hopkins University               Southern Methodist University
   Baltimore, MD 21218, USA               Dallas, TX 75275, USA

   Institute of Nanotechnology            Department of Physical Chemistry
   Karlsruhe Inst. of Technology          Eotvos Lorand University
   D-76021 Karlsruhe, Germany             H-1053 Budapest, Hungary

 
                       Version 2.1
 
                     node02                                            
                     Fri Apr  1 10:07:44 CST 2022                      
                     integer*8 version is running
 
********************************************************************************
*                          Input from ZMAT file                                *
********************************************************************************
h_ethylene                                                                      
C       0.000000      0.0   -0.664500                                           
C       0.000000      0.0    0.664500                                           
H       0.962348      0.0   -1.159080                                           
H       0.962348      0.0    1.159080                                           
H      -0.962348      0.0   -1.159080                                           
H      -0.962348      0.0    1.159080                                           
H      0.000000      2.0      0.000000                                          
                                                                                
*CFOUR(CALC=CCSD(T)                                                             
#EXCITE=EOMEE                                                                   
#ESTATE_SYM=0/3/0/0                                                             
CC_PROG=VCC                                                                     
CHARGE=-1                                                                       
COORDINATES=CARTESIAN                                                           
BASIS=SPECIAL                                                                   
REFERENCE=RHF                                                                   
MEM_SIZE=90,MEM_UNIT=GB)                                                        
                                                                                
C:cc-pVTZ                                                                       
C:cc-pVTZ                                                                       
H:cc-pVTZ                                                                       
H:cc-pVTZ                                                                       
H:cc-pVTZ                                                                       
H:cc-pVTZ                                                                       
H:aug-cc-pVTZ                                                                   
                                                                                
********************************************************************************
  @GTFLGS-W, Keyword #EXCITE not known and is ignored.
  @GTFLGS-W, Keyword #ESTATE_SYM not known and is ignored.
    -------------------------------------------------------------------
                    CFOUR Control Parameters 
    -------------------------------------------------------------------
        External           Internal           Value            Units
          Name               Name
    -------------------------------------------------------------------
       ABCDTYPE             IABCDT         STANDARD    [  0]    ***   
       ANHARMONIC           IANHAR         OFF         [  0]    ***   
       ANH_ALGORIT          IANALG         STANDARD    [  0]    ***   
       ANH_DERIVAT          IANDER         SECOND      [  1]    ***   
       ANH_MODE             ANHMOD         VIBRATION   [  0]    ***   
       ANH_STEPSIZ          ICUBST             50000          x 10-6  
       ANH_SYMMETR          IANHSM         ABELIAN     [  0]    ***   
       AO_LADDERS           IAOLAD         SINGLEPASS  [  1]    ***   
       AV_SCF               IAVSCF         OFF         [  0]    ***   
       BASIS                IBASIS         SPECIAL     [  0]    ***   
       BOTHVECTORS          BOTHVC         OFF         [  0]    ***   
       BOX_POTENT           IPIAB          OFF         [  0]    ***   
       BREIT                IBREIT         OFF         [  0]    ***   
       BRUCK_CONV           IBRTOL          10D-  4             ***   
       BRUECKNER            IBRKNR         OFF         [  0]    ***   
       BUFFERSIZE           IBUFFS              4096            ***   
       CACHE_RECS           ICHREC             10               ***   
       CALCLEVEL            ICLLVL         CCSD(T)     [ 22]    ***   
       CCORBOPT             ICCORB         OFF         [  0]  x 0.01  
       CC_CONV              ICCCNV          10D-  7             ***   
       CC_EXPORDER          ICCEOR              5               ***   
       CC_EXTRAPOL          ICCEXT         DIIS        [  1]    ***   
       CC_GUESS             ICCGES         MP2         [  0]    ***   
       CC_MAXCYC            ICCCYC            100              cycles 
       CC_PROGRAM           ICCPRO         VCC         [  0]    ***   
       CHARGE               ICHRGE             -1               ***   
       CHOLESKY             ICHOLE         OFF         [  0]    ***   
       CIS_CONV             ICISTL              5               ***   
       COMM_SIZE            IPSIZE            ***               ***   
       CONSTANT             ICONST         OLD         [  1]    ***   
       CONTINUUM            ICONTU         NONE        [  0]    ***   
       CONTRACTION          ICNTYP         GENERAL     [  1]    ***   
       COORDINATES          ICOORD         CARTESIAN   [  1]    ***   
       CPHF_CONVER          ICPHFT          10D- 16             ***   
       CPHF_MAXCYC          ICPHFC             64              cycles 
       CUBIC                ICUBIC         OFF         [  0]    ***   
       CURVILINEAR          ICURVY         OFF         [  0]    ***   
       DBOC                 IDBOC          OFF         [  0]    ***   
       DCT                  IDCT           OFF         [  0]    ***   
       DERIV_LEV            IDRLVL         ZERO        [  0]    ***   
       DEVMEM_SIZE          IDVMEM         *********           MByte  
       DIAG_MRCC            IEOMST          10D-  0             ***   
       DIFF_TYPE            IDIFTY         RELAXED     [  0]    ***   
       DIRECT               IDIRCT         OFF         [  0]    ***   
       DROPMO               IDRPMO      NONE         
       ECP                  IECP           OFF         [  0]    ***   
       EIGENVECTOR          IVEC                1               ***   
       EL_ANHARM            IELANH         OFF         [  0]    ***   
       EOMFOLLOW            IEOMSR         ENERGY      [  0]    ***   
       EOMIP                IEOMIP         OFF         [  0]    ***   
       EOMLEVEL             HBARFM         SAME        [  0]    ***   
       EOM_MRCC             IMRCCE         NEW         [  1]    ***   
       EOM_NONIT            EOMNON         OFF         [  0]    ***   
       EOM_NSING            IEOMSI          10D-  0             ***   
       EOM_NSTATES          IMRCCD         DAVIDSON    [  0]    ***   
       EOM_NTRIP            IEOMTR          10D-  0             ***   
       EOM_ORDER            IEXORD         ENERGY      [  0]    ***   
       EOM_PROPSTA          IEOMST              0               ***   
       ESTATE_CONV          IEXTOL          10D-  5             ***   
       ESTATE_DIAG          IEXDIG         ITERATIVE   [  0]    ***   
       ESTATE_LOCK          IESLOC         ON          [  1]    ***   
       ESTATE_MAXC          IEXMXC             40               ***   
       ESTATE_PROP          IEXPRP         OFF         [  0]    ***   
       EVAL_HESS            IRECAL              0            # of cyc.
       EXCITATION           IEXCIT              0               ***   
       EXCITE               IEXCIT         NONE        [  0]    ***   
       EXTERN_POT           IEXPOT         OFF         [  0]    ***   
       FCGRADNEW            IFCGNW         OFF         [  0]    ***   
       FC_FIELD             IFINFC              0             x 10-6  
       FD_CALTYPE           IFDCAL         GRADONLY    [  0]    ***   
       FD_PROJECT           IFDPRJ         OFF         [  1]    ***   
       FD_STEPSIZE          IDISFD              0            10-4 bohr
       FD_USEGROUP          IFDGRP         FULL        [  0]    ***   
       FILE_RECSIZ          IFLREC              4096           words  
       FINITE_PERT          IFIPER              0             x 10-6  
       FIXGEOM              IFIXGM         OFF         [  0]    ***   
       FOCK                 IFOCK          AO          [  1]    ***   
       FREQ_ALGORI          IVIALG         STANDARD    [  0]    ***   
       FROZEN_CORE          IFROCO         OFF         [  0]    ***   
       GAMMA_ABCD           IGABCD         STORE       [  0]    ***   
       GAMMA_ABCI           IGABCI         STORE       [  0]    ***   
       GENBAS_1             IGNBS1              0               ***   
       GENBAS_2             IGNBS2              0               ***   
       GENBAS_3             IGNBS3              0               ***   
       GENBAS_4             IGNBS4              0               ***   
       GEO_CONV             ICONTL              5              H/bohr 
       GEO_MAXCYC           IOPTCY             50               ***   
       GEO_MAXSTEP          IMXSTP            300            millibohr
       GEO_METHOD           INR            SINGLE_POINT[  5]    ***   
       GIAO                 IGIAO          OFF         [  1]    ***   
       GIMIC                IGIMIC         OFF         [  0]    ***   
       GRID                 IGRID          OFF         [  0]    ***   
       GRID_ALGO            IGALGO         SERIAL      [  0]    ***   
       GUESS                IGUESS         MOREAD      [  0]    ***   
       HBAR                 IHBAR          OFF         [  0]    ***   
       HESS_TYPE            IHESTP         SCF         [  0]    ***   
       HF2_FILE             IHF2Fl         USE         [  1]    ***   
       HFSTABILITY          ISTABL         OFF         [  0]    ***   
       INCORE               INCORE         OFF         [  0]    ***   
       INPUT_MRCC           IMRCC          ON          [  1]    ***   
       INTEGRALS            INTTYP         VMOL        [  1]    ***   
       JODA_PRINT           IJPRNT              0               ***   
       KEYWORD_OUT          IDMPKW         NO          [  0]    ***   
       LINDEP_TOL           ILINDP              8               ***   
       LINEQ_CONV           IZTACN          10D-  7           cycles  
       LINEQ_EXPOR          ILMAXD              5               ***   
       LINEQ_MAXCY          ILMAXC            100               ***   
       LINEQ_TYPE           ILTYPE         DIIS        [  1]    ***   
       LOCK_ORBOCC          ILOCOC         OFF         [  0]    ***   
       MEMORY_SIZE          IMEMSZ         *********           words  
       MEM_UNIT             IMEMU          GB          [  3]    ***   
       MRCC                 IMRCCC         OFF         [  0]    ***   
       MULTIPLICTY          IMULTP              1               ***   
       NACOUPLING           IVCOUP         OFF         [  0]    ***   
       NEGEVAL              IDIE           ABORT       [  0]    ***   
       NEWNORM              INEWNO         OFF         [  0]    ***   
       NON-HF               INONHF         OFF         [  0]    ***   
       NTOP_TAMP            ITOPT2             15               ***   
       NUC_MODEL            INUCMO         POINT       [  0]    ***   
       OCCUPATION           IOCCU   ESTIMATED BY SCF 
       OPEN-SHELL           IOPEN          SPIN-ORBITAL[  0]    ***   
       OPTVIB               IOPTVB         OFF         [  0]    ***   
       ORBITALS             IORBTP         STANDARD    [  0]    ***   
       PARALLEL             IPARAL         ON          [  1]    ***   
       PARA_INT             IPINTS         ON          [  1]    ***   
       PARA_PRINT           IPPRIN              0               ***   
       PERT_ORB             IPTORB         STANDARD    [  0]    ***   
       POINTS               IGRDFD              0               ***   
       PRINT                IPRNT               0               ***   
       PROPS                IPROPS         OFF         [  0]    ***   
       PROP_INTEGR          IINTYP         INTERNAL    [  0]    ***   
       PSI                  IPSI           OFF         [  0]    ***   
       QC_ALG               IQCALG         FLM         [  0]    ***   
       QC_LINALG            IQCLIN         TRIDIAG     [  2]    ***   
       QC_MAXCYC            IQCMAX          10D-100           cycles  
       QC_MAXSCFCY          IQCMSC          10D- 15           cycles  
       QC_RTRUST            IQCRTR          10D-  0           x 10-3  
       QC_SKIPSCF           IQCSKI         OFF         [  0]    ***   
       QC_START             IQCSTA          10D-  1             ***   
       QRHFGUESS            IQGUES         OFF         [  0]    ***   
       QUARTIC              IQUART         OFF         [  0]    ***   
       RAMAN_INT            IRAMIN         OFF         [  0]    ***   
       RAMAN_ORB            IRAMRE         UNRELAXED   [  0]    ***   
       RDO                  IRDOFM         OFF         [  0]    ***   
       REDUCE_REPR          REDREP         Ir          [  0]    ***   
       REFERENCE            IREFNC         RHF         [  0]    ***   
       RELATIVIST           IRELAT         OFF         [  0]    ***   
       RELAX_DENS           IRDENS         OFF         [  0]    ***   
       RESET_FLAGS          IRESET         OFF         [  0]    ***   
       RESTART_CC           ICCRES         OFF         [  0]    ***   
       ROT_EVEC             ROTVEC              0               ***   
       SAVE_INTS            ISVINT         OFF         [  0]    ***   
       SCALE_ON             ISTCRT              0               ***   
       SCF_CONV             ISCFCV          10D-  7             ***   
       SCF_DAMPING          IDAMP               0             x 10-3  
       SCF_EXPORDE          IRPPOR              6               ***   
       SCF_EXPSTAR          IRPPLS              8               ***   
       SCF_EXTRAPO          IRPP           ON          [  1]    ***   
       SCF_MAXCYC           ISCFCY            150              cycles 
       SCF_NOSTOP           ISCFST         OFF         [  0]    ***   
       SCF_PRINT            ISCFPR              0               ***   
       SCF_PROG             ISCFPR         SCF         [  0]    ***   
       SD_FIELD             IFINSD              0             x 10-6  
       SOPERT               IPERSO         OFF         [  0]    ***   
       SPHERICAL            IDFGHI         ON          [  1]    ***   
       SPINORBIT            ISOCAL         OFF         [  0]    ***   
       SPINROTATIO          ISRCON         OFF         [  0]    ***   
       SPIN_FLIP            ISPFLP         OFF         [  0]    ***   
       SPIN_ORBIT           ISPORB         OFF         [  0]    ***   
       SPIN_SCAL            ISCSMP         OFF         [  0]    ***   
       STEEPSCALE           ISTPSC              1000          x 10-3  
       SUBGROUP             ISUBGP         DEFAULT     [  0]    ***   
       SUBGRPAXIS           ISBXYZ         X           [  0]    ***   
       SYMMETRY             ISYM           ON          [  0]    ***   
       SYM_CHECK            ISYMCK         OVERRIDE    [  1]    ***   
       T3_EXTRAPOL          IT3EXT         OFF         [  0]    ***   
       T4_EXTRAPOL          IT4EXP         OFF         [  0]    ***   
       TAMP_SUM             IEVERY              5               ***   
       TESTSUITE            ITESTS         OFF         [  0]    ***   
       THERMOCH             ITHERM         OFF         [  0]    ***   
       TOL_CHOLESK          ITOLCH          10D-  4             ***   
       TRANGRAD             IRESRM         OFF         [  0]    ***   
       TRANS_INV            ITRAIN         USE         [  0]    ***   
       TREAT_PERT           ITREAT         SIMULTANEOUS[  0]    ***   
       TRIP_ALGORI          ITRALG         NORMAL      [  0]    ***   
       UIJ_THRESHO          IUIJTH              1               ***   
       UNITS                IUNITS         ANGSTROM    [  0]    ***   
       UNOS                 IUNOS          OFF         [  0]    ***   
       UPDATE_HESS          IHUPDT         ON          [  1]    ***   
       VIBPHASE             ISETPH         STANDARD    [  0]    ***   
       VIBRATION            IVIB           NO          [  0]    ***   
       VIB_ALGORIT          IGEALG         STANDARD    [  0]    ***   
       VNATORB              IVNORB         OFF         [  0]    ***   
       VTRAN                IVTRAN         FULL/PARTIAL[  0]    ***   
       XFIELD               IXEFLD              0             x 10-6  
       XFORM_TOL            IXFTOL          10D- 11             ***   
       YFIELD               IYEFLD              0             x 10-6  
       ZFIELD               IZEFLD              0             x 10-6  
       ZSCALE_EXP           IZEXPS         OFF         [  0]    ***   
    -------------------------------------------------------------------
  @GETXYZ-I,     7 atoms read from ZMAT.
   Rotational constants (in cm-1): 
          0.8469148671             0.8536890782             2.2108853446
   Rotational constants (in MHz): 
      25389.8725295190         25592.9582983935         66280.6844667613
********************************************************************************
   The full molecular point group is C2v .
   The largest Abelian subgroup of the full molecular point group is C2v .
   The computational point group is C2v .
********************************************************************************


 ----------------------------------------------------------------
         Coordinates used in calculation (QCOMP) 
 ----------------------------------------------------------------
 Z-matrix   Atomic            Coordinates (in bohr)
  Symbol    Number           X              Y              Z
 ----------------------------------------------------------------
     C         6         0.00000000    -1.25572327     0.13116881
     C         6         0.00000000     1.25572327     0.13116881
     H         1         1.81857454    -2.19034422     0.13116881
     H         1         1.81857454     2.19034422     0.13116881
     H         1        -1.81857454    -2.19034422     0.13116881
     H         1        -1.81857454     2.19034422     0.13116881
     H         1         0.00000000     0.00000000    -3.64828423
 ----------------------------------------------------------------
 
   Interatomic distance matrix (Angstroms) 
 
                 C             C             H             H             H    
                [ 1]        [ 2]        [ 3]        [ 4]        [ 5]
  C    [ 1]     0.00000
  C    [ 2]     1.32900     0.00000
  H    [ 3]     1.08200     2.06193     0.00000
  H    [ 4]     2.06193     1.08200     2.31816     0.00000
  H    [ 5]     1.08200     2.06193     1.92470     3.01303     0.00000
  H    [ 6]     2.06193     1.08200     3.01303     1.92470     2.31816
  H    [ 7]     2.10750     2.10750     2.50391     2.50391     2.50391
 
                 H             H    
                [ 6]        [ 7]
  H    [ 6]     0.00000
  H    [ 7]     2.50391     0.00000
 rotcon2
   Rotational constants (in cm-1): 
          0.8469148671             2.2108853446             0.8536890782
   Rotational constants (in MHz): 
      25389.8725295190         66280.6844667613         25592.9582983935
  ECPDATA file not present.   Using default ECPDATA. 
  @GTFLGS-W, Keyword #EXCITE not known and is ignored.
  @GTFLGS-W, Keyword #ESTATE_SYM not known and is ignored.
  There are  139 basis functions.
 @GEOPT-W, Archive file not created for single-point calculation.
 @CHECKOUT-I, Total execution time (CPU/WALL):        0.12/       0.13 seconds.
--executable xjoda finished with status     0 in        0.15 seconds (walltime).
 --invoking executable--
/home/tsommerfeld/zscale/bin/xvmol
 SERIAL VERSION OF MOLECULE STARTED
********************************************************************************
                    INPUT FROM MOL FILE
********************************************************************************
INTGRL        1    0    1    0    0    0    0    0    0                         
         *** CFOUR Program System (Release V0.1) ***                            
h_ethylene                                                                      
    3    2 X  Y       0.10E-08              0    0                              
   9999.00      3.00                                                            
          6.00000000    1    4    1    1    1    1                              
C #1   0.000000000000000  -1.255723272983657   0.131168806591455                
   10    4                                                                      
   8236.00000000000       5.310000000000000E-004  0.000000000000000E+000        
 -1.130000000000000E-004  0.000000000000000E+000                                
   1235.00000000000       4.108000000000000E-003  0.000000000000000E+000        
 -8.780000000000000E-004  0.000000000000000E+000                                
   280.800000000000       2.108700000000000E-002  0.000000000000000E+000        
 -4.540000000000000E-003  0.000000000000000E+000                                
   79.2700000000000       8.185300000000000E-002  0.000000000000000E+000        
 -1.813300000000000E-002  0.000000000000000E+000                                
   25.5900000000000       0.234817000000000       0.000000000000000E+000        
 -5.576000000000000E-002  0.000000000000000E+000                                
   8.99700000000000       0.434401000000000       0.000000000000000E+000        
 -0.126895000000000       0.000000000000000E+000                                
   3.31900000000000       0.346129000000000       0.000000000000000E+000        
 -0.170352000000000       0.000000000000000E+000                                
  0.905900000000000       3.937800000000000E-002   1.00000000000000             
  0.140382000000000       0.000000000000000E+000                                
  0.364300000000000      -8.983000000000000E-003  0.000000000000000E+000        
  0.598684000000000       0.000000000000000E+000                                
  0.128500000000000       2.385000000000000E-003  0.000000000000000E+000        
  0.395389000000000        1.00000000000000                                     
    5    3                                                                      
   18.7100000000000       0.000000000000000E+000  1.403100000000000E-002        
  0.000000000000000E+000                                                        
   4.13300000000000       0.000000000000000E+000  8.686600000000000E-002        
  0.000000000000000E+000                                                        
   1.20000000000000       0.000000000000000E+000  0.290216000000000             
  0.000000000000000E+000                                                        
  0.382700000000000        1.00000000000000       0.501008000000000             
  0.000000000000000E+000                                                        
  0.120900000000000       0.000000000000000E+000  0.343406000000000             
   1.00000000000000                                                             
    2    2                                                                      
   1.09700000000000        1.00000000000000       0.000000000000000E+000        
  0.318000000000000       0.000000000000000E+000   1.00000000000000             
    1    1                                                                      
  0.761000000000000        1.00000000000000                                     
          1.00000000    1    3    1    1    1                                   
H #2   1.818574537711477  -2.190344215575466   0.131168806591455                
    5    3                                                                      
   33.8700000000000       0.000000000000000E+000  6.068000000000000E-003        
  0.000000000000000E+000                                                        
   5.09500000000000       0.000000000000000E+000  4.530800000000000E-002        
  0.000000000000000E+000                                                        
   1.15900000000000       0.000000000000000E+000  0.202822000000000             
  0.000000000000000E+000                                                        
  0.325800000000000        1.00000000000000       0.503903000000000             
  0.000000000000000E+000                                                        
  0.102700000000000       0.000000000000000E+000  0.383421000000000             
   1.00000000000000                                                             
    2    2                                                                      
   1.40700000000000        1.00000000000000       0.000000000000000E+000        
  0.388000000000000       0.000000000000000E+000   1.00000000000000             
    1    1                                                                      
   1.05700000000000        1.00000000000000                                     
          1.00000000    1    3    1    1    1                                   
H #3   0.000000000000000   0.000000000000000  -3.648284234743857                
    6    4                                                                      
   33.8700000000000       0.000000000000000E+000  6.068000000000000E-003        
  0.000000000000000E+000  0.000000000000000E+000                                
   5.09500000000000       0.000000000000000E+000  4.530800000000000E-002        
  0.000000000000000E+000  0.000000000000000E+000                                
   1.15900000000000       0.000000000000000E+000  0.202822000000000             
  0.000000000000000E+000  0.000000000000000E+000                                
  0.325800000000000        1.00000000000000       0.503903000000000             
  0.000000000000000E+000  0.000000000000000E+000                                
  0.102700000000000       0.000000000000000E+000  0.383421000000000             
   1.00000000000000       0.000000000000000E+000                                
  2.526000000000000E-002  0.000000000000000E+000  0.000000000000000E+000        
  0.000000000000000E+000   1.00000000000000                                     
    3    3                                                                      
   1.40700000000000        1.00000000000000       0.000000000000000E+000        
  0.000000000000000E+000                                                        
  0.388000000000000       0.000000000000000E+000   1.00000000000000             
  0.000000000000000E+000                                                        
  0.102000000000000       0.000000000000000E+000  0.000000000000000E+000        
   1.00000000000000                                                             
    2    2                                                                      
   1.05700000000000        1.00000000000000       0.000000000000000E+000        
  0.247000000000000       0.000000000000000E+000   1.00000000000000             
FINISH                                                                          
 
********************************************************************************
 ONE- AND TWO-ELECTRON INTEGRALS OVER SYMMETRY-ADAPTED AOS ARE CALCULATED.

  SPHERICAL HARMONICS ARE USED.
  
  INTEGRALS LESS THAN  0.10E-13 ARE NEGLECTED.

  NUCLEAR REPULSION ENERGY :   37.4476824155 A.U.
  @MOLECU-I, ONE ELECTRON INTEGRALS (CPU/WALL):        0.04/       0.04 SECONDS.
  @TWOEL-I,     779532 INTEGRALS OF SYMMETRY TYPE  I I I I
  @TWOEL-I,    3454828 INTEGRALS OF SYMMETRY TYPE  I J I J
  @TWOEL-I,    1823293 INTEGRALS OF SYMMETRY TYPE  I I J J
  @TWOEL-I,    2991764 INTEGRALS OF SYMMETRY TYPE  I J K L
  @TWOEL-I, TOTAL NUMBER OF 2-E INTEGRALS    9049417.
  @MOLECU-I, TWO ELECTRON INTEGRALS (CPU/WALL):       42.32/       4.62 SECONDS.
 @CHECKOUT-I, Total execution time (CPU/WALL):       42.37/       4.67 seconds.

Running with 12 threads/proc

--executable xvmol finished with status     0 in        4.69 seconds (walltime).
 --invoking executable--
/home/tsommerfeld/zscale/bin/xvmol2ja
 @GETMEM-I,  Allocated   85830 MB of main memory.
 @CHECKOUT-I, Total execution time (CPU/WALL):        0.10/       0.02 seconds.
--executable xvmol2ja finished with status     0 in        0.04 seconds (walltime).
 --invoking executable--
/home/tsommerfeld/zscale/bin/xvscf
  There are  139 functions in the AO basis.

  There are 4 irreducible representations.

       Irrep        # of functions
         1                 45
         2                 29
         3                 39
         4                 26


  Parameters for SCF calculation: 
        SCF reference function:  RHF  
  Maximum number of iterations:  150
     Full symmetry point group: C2v 
     Computational point group: C2v 
        Initial density matrix: MOREAD                 
     SCF convergence tolerance: 10**(- 7)
  DIIS convergence acceleration:  ON
          Latest start for DIIS:   8
                     DIIS order:   6

  Memory information:     823082 words required.
  Fock matrices are constructed from AO integral file.
 @GETMEM-I,  Allocated       6 MB of main memory.
  Initialization and symmetry analysis required      0.002 seconds.

  @INITGES-I, Occupancies from core Hamiltonian:

          Alpha population by irrep:   4    1    3    1
           Beta population by irrep:   4    1    3    1


 total no. of electrons in initial guess :  0.000000000000000E+000
  --------------------------------------------------------------------
  Iteration         Total Energy            Largest Density Difference
  --------------------------------------------------------------------
       0            37.447682415530068              0.0000000000D+00
   current occupation vector 
     4  1  3  1
     4  1  3  1
       1           -52.227103216881915              0.8767375824D+01
   current occupation vector 
     4  1  3  1
     4  1  3  1
       2           -60.593611532213231              0.5434872921D+02
   current occupation vector 
     4  1  3  1
     4  1  3  1
       3           -68.862628440625102              0.5404129654D+02
   current occupation vector 
     4  1  3  1
     4  1  3  1
       4           -64.874019363945152              0.3146894065D+02
   current occupation vector 
     4  1  3  1
     4  1  3  1
       5           -70.485670486880181              0.3149659643D+02
   current occupation vector 
     4  1  3  1
     4  1  3  1
       6           -66.468747081822244              0.2935043229D+02
   current occupation vector 
     4  1  3  1
     4  1  3  1
       7           -71.093486118066608              0.2939552795D+02
   current occupation vector 
     4  1  3  1
     4  1  3  1
       8           -67.122555217354929              0.2901216467D+02
   current occupation vector 
     4  1  3  1
     4  1  3  1
       9           -77.288351696516514              0.2912564641D+02
   current occupation vector 
     4  1  3  1
     4  1  3  1
      10           -78.427886371287684              0.1312863966D+01
   current occupation vector 
     5  1  2  1
     5  1  2  1
      11           -78.478467961892079              0.4607324622D+00
   current occupation vector 
     5  1  2  1
     5  1  2  1
      12           -78.483867150121128              0.5488258811D-01
   current occupation vector 
     5  1  2  1
     5  1  2  1
      13           -78.485184195565537              0.3161518624D-01
   current occupation vector 
     5  1  2  1
     5  1  2  1
      14           -78.485292742530618              0.1683306369D-01
   current occupation vector 
     5  1  2  1
     5  1  2  1
      15           -78.485300585919319              0.6490709039D-02
   current occupation vector 
     5  1  2  1
     5  1  2  1
      16           -78.485301282691637              0.2034947791D-02
   current occupation vector 
     5  1  2  1
     5  1  2  1
      17           -78.485301318906977              0.3281051304D-03
   current occupation vector 
     5  1  2  1
     5  1  2  1
      18           -78.485301321043721              0.1013390130D-03
   current occupation vector 
     5  1  2  1
     5  1  2  1
      19           -78.485301321104629              0.2429885873D-04
   current occupation vector 
     5  1  2  1
     5  1  2  1
      20           -78.485301321107414              0.6729970403D-05
   current occupation vector 
     5  1  2  1
     5  1  2  1
      21           -78.485301321108622              0.6420304534D-06
   current occupation vector 
     5  1  2  1
     5  1  2  1
      22           -78.485301321108480              0.3707666800D-06
   current occupation vector 
     5  1  2  1
     5  1  2  1

  SCF has converged.

 Density matrix saved to file den.dat
 total electron number:   18.0000000000002     
     E(SCF)=       -78.485301321108679              0.2515718478D-07


  Final occupancies:

     Alpha population by irrep:   5    1    2    1
      Beta population by irrep:   5    1    2    1


  Eigenvector printing suppressed.

 @PUTMOS-I, Writing converged MOs to NEWMOS. 
 @PUTMOS-I, Symmetry   1 Full Blocks 11 Partial Blocksize   1
 @PUTMOS-I, Symmetry   2 Full Blocks  7 Partial Blocksize   1
 @PUTMOS-I, Symmetry   3 Full Blocks  9 Partial Blocksize   3
 @PUTMOS-I, Symmetry   4 Full Blocks  6 Partial Blocksize   2
 @PUTFOCK-I, Writing converged Fock matrix to NEWFOCK. 
 @PUTFOCK-I, Symmetry   1 Full Blocks 11 Partial Blocksize   1
 @PUTFOCK-I, Symmetry   2 Full Blocks  7 Partial Blocksize   1
 @PUTFOCK-I, Symmetry   3 Full Blocks  9 Partial Blocksize   3
 @PUTFOCK-I, Symmetry   4 Full Blocks  6 Partial Blocksize   2


 
  ORBITAL EIGENVALUES (ALPHA)  (1H = 27.2113834 eV)

       MO #        E(hartree)               E(eV)           FULLSYM    COMPSYM
       ----   --------------------   --------------------   -------   ---------
    1     1         -11.0604238670        -300.9694344103      A1        A1 (1)
    2    75         -11.0586631087        -300.9215217425      B2        B2 (3)
    3     2          -0.8732940947         -23.7635404306      A1        A1 (1)
    4    76          -0.6171063969         -16.7923187641      B2        B2 (3)
    5    46          -0.4950039797         -13.4697430774      B1        B1 (2)
    6     3          -0.4029751675         -10.9655117826      A1        A1 (1)
    7   114          -0.3523324188          -9.5874525321      A2        A2 (4)
    8     4          -0.2363985596          -6.4327318396      A1        A1 (1)
    9     5          -0.0038952425          -0.1059949378      A1        A1 (1)
  +++++++++++++++++++++++++++++++++++++++++++++++++++++++++++++++++++++++++++++
   10     6           0.2369231666           6.4470071230      A1        A1 (1)
   11    77           0.3132875513           8.5249876723      B2        B2 (3)
   12    47           0.3226923495           8.7809052424      B1        B1 (2)
   13    78           0.3253328138           8.8527559276      B2        B2 (3)
   14     7           0.3258169980           8.8659312520      A1        A1 (1)
   15   115           0.3744825554          10.1901883916      A2        A2 (4)
   16    48           0.4511949144          12.2776378039      B1        B1 (2)
   17    79           0.4811036597          13.0914961382      B2        B2 (3)
   18     8           0.4832054358          13.1486883755      A1        A1 (1)
   19    80           0.5209755996          14.1764667826      B2        B2 (3)
   20     9           0.5319399176          14.4748210430      A1        A1 (1)
   21    10           0.6177946341          16.8110466497      A1        A1 (1)
   22    49           0.6305364540          17.1577691978      B1        B1 (2)
   23    81           0.7009601624          19.0740957277      B2        B2 (3)
   24    50           0.7326906340          19.9375257549      B1        B1 (2)
   25    11           0.7687191462          20.9179114139      A1        A1 (1)
   26    82           0.7853730001          21.3710858173      B2        B2 (3)
   27    12           0.7916015196          21.5405724505      A1        A1 (1)
   28   116           0.8431010561          22.9419460818      A2        A2 (4)
   29    51           0.8600942195          23.4043535662      B1        B1 (2)
   30    83           0.8802175528          23.9519373034      B2        B2 (3)
   31   117           0.9260942599          25.2003059694      A2        A2 (4)
   32    13           0.9331317623          25.3918061467      A1        A1 (1)
   33    84           0.9390285902          25.5522669918      B2        B2 (3)
   34   118           1.0474157394          28.5016312628      A2        A2 (4)
   35    14           1.0582062298          28.7952554340      A1        A1 (1)
   36    15           1.1453776015          31.1673090531      A1        A1 (1)
   37    16           1.1568869263          31.4804937021      A1        A1 (1)
   38   119           1.1723890618          31.9023282553      A2        A2 (4)
   39    52           1.1903055235          32.3898599633      B1        B1 (2)
   40    85           1.2677411287          34.4969899051      B2        B2 (3)
   41    53           1.2940505159          35.2129047269      B1        B1 (2)
   42   120           1.3225424969          35.9882109447      A2        A2 (4)
   43    17           1.3467516016          36.6469741759      A1        A1 (1)
   44    54           1.3816872203          37.5976206903      B1        B1 (2)
   45    86           1.4146982135          38.4958954826      B2        B2 (3)
   46    18           1.4318289656          38.9620469455      A1        A1 (1)
   47    87           1.4829977964          40.3544216195      B2        B2 (3)
   48    55           1.4957595357          40.7016861994      B1        B1 (2)
   49    88           1.4989141704          40.7875281732      B2        B2 (3)
   50    19           1.5377473500          41.8442327126      A1        A1 (1)
   51    89           1.5463087520          42.0772003054      B2        B2 (3)
   52    56           1.5793745565          42.9769665891      B1        B1 (2)
   53    20           1.6344014642          44.4743248707      A1        A1 (1)
   54    57           1.6353643826          44.5005272135      B1        B1 (2)
   55    90           1.6741699797          45.5564811941      B2        B2 (3)
   56   121           1.7572114180          47.8161536100      A2        A2 (4)
   57    21           1.7896841169          48.6997806690      A1        A1 (1)
   58   122           1.8137941411          49.3558477830      A2        A2 (4)
   59    91           1.8285098628          49.7562829283      B2        B2 (3)
   60    92           2.0007552277          54.4433175897      B2        B2 (3)
   61    22           2.0313113401          55.2747916795      A1        A1 (1)
   62   123           2.1365840551          58.1394078893      A2        A2 (4)
   63    23           2.6364074882          71.7402949589      A1        A1 (1)
   64    24           2.7325300852          74.3559238009      A1        A1 (1)
   65    25           2.8172507041          76.6612890436      A1        A1 (1)
   66    58           2.8296194542          76.9978598443      B1        B1 (2)
   67    93           2.8538027508          77.6559207999      B2        B2 (3)
   68    59           2.9051395865          79.0528671200      B1        B1 (2)
   69    26           2.9744098929          80.9378079836      A1        A1 (1)
   70    94           3.0285991873          82.4123736504      B2        B2 (3)
   71   124           3.0304717532          82.4633287583      A2        A2 (4)
   72    27           3.1147552343          84.7567988770      A1        A1 (1)
   73    60           3.1289857237          85.1440301808      B1        B1 (2)
   74   125           3.2370804112          88.0854361660      A2        A2 (4)
   75    61           3.2870610823          89.4454793691      B1        B1 (2)
   76    28           3.2887618175          89.4917587269      A1        A1 (1)
   77    29           3.3269658307          90.5313427791      A1        A1 (1)
   78   126           3.3549568923          91.2930182878      A2        A2 (4)
   79    95           3.4141189425          92.9028995183      B2        B2 (3)
   80    96           3.4517416841          93.9266663638      B2        B2 (3)
   81    62           3.4697163007          94.4157805467      B1        B1 (2)
   82    63           3.5190094470          95.7571152518      B1        B1 (2)
   83    30           3.5625599073          96.9421835221      A1        A1 (1)
   84    97           3.5818679330          97.4675816136      B2        B2 (3)
   85   127           3.6057965608          98.1187126790      A2        A2 (4)
   86    98           3.6064115898          98.1354484671      B2        B2 (3)
   87   128           3.6504545709          99.3339189123      A2        A2 (4)
   88    99           3.6547911395          99.4519229435      B2        B2 (3)
   89    31           3.7512338883         102.0762635586      A1        A1 (1)
   90    64           3.8077164830         103.6132330973      B1        B1 (2)
   91    32           3.8124960828         103.7432926189      A1        A1 (1)
   92    65           3.8902368766         105.8587271657      B1        B1 (2)
   93   129           3.9845869930         108.4261243574      A2        A2 (4)
   94   100           4.0043725190         108.9645158903      B2        B2 (3)
   95   130           4.0897046253         111.2865205526      A2        A2 (4)
   96   131           4.1080639898         111.7861042590      A2        A2 (4)
   97    66           4.1450221147         112.7917859649      B1        B1 (2)
   98   101           4.1531494954         113.0129432377      B2        B2 (3)
   99    33           4.1816148060         113.7875237165      A1        A1 (1)
  100    34           4.2181987064         114.7830222563      A1        A1 (1)
  101    67           4.2290887546         115.0793555341      B1        B1 (2)
  102   132           4.2681291654         116.1416991191      A2        A2 (4)
  103    35           4.2735678282         116.2896926578      A1        A1 (1)
  104   102           4.3321334908         117.8833453571      B2        B2 (3)
  105   133           4.3605210426         118.6558099130      A2        A2 (4)
  106    36           4.4152674220         120.1455346328      A1        A1 (1)
  107    37           4.4518444656         121.1408465914      A1        A1 (1)
  108   103           4.4612337747         121.3963426816      B2        B2 (3)
  109    68           4.4792367751         121.8862292258      B1        B1 (2)
  110   104           4.5409849422         123.5664822766      B2        B2 (3)
  111    69           4.5565951510         123.9912576521      B1        B1 (2)
  112    38           4.6330487478         126.0716657866      A1        A1 (1)
  113   105           4.6492277394         126.5119185304      B2        B2 (3)
  114    70           4.6661958996         126.9736456442      B1        B1 (2)
  115   106           4.7016505903         127.9384168259      B2        B2 (3)
  116   134           4.7870809423         130.2630948876      A2        A2 (4)
  117    39           4.8091175888         130.8627425239      A1        A1 (1)
  118   107           4.9494500775         134.6813836790      B2        B2 (3)
  119    40           5.0406725471         137.1636732740      A1        A1 (1)
  120   108           5.0457175000         137.3009534211      B2        B2 (3)
  121    41           5.1046081722         138.9034500796      A1        A1 (1)
  122    42           5.1706444366         140.7003881885      A1        A1 (1)
  123   135           5.1933997094         141.3195906427      A2        A2 (4)
  124    71           5.3000086581         144.2205676189      B1        B1 (2)
  125    72           5.4205771773         147.5014038199      B1        B1 (2)
  126   109           5.4773011631         149.0449419451      B2        B2 (3)
  127    43           5.5644704866         151.4169398289      A1        A1 (1)
  128   136           5.5928631515         152.1895435195      A2        A2 (4)
  129   137           5.6060733805         152.5490121242      A2        A2 (4)
  130   110           5.7092335352         155.3561426472      B2        B2 (3)
  131    73           5.8357940759         158.8000300432      B1        B1 (2)
  132    44           5.8486255093         159.1491910954      A1        A1 (1)
  133   111           6.1821714949         168.2254387914      B2        B2 (3)
  134   138           6.2843161506         171.0049361809      A2        A2 (4)
  135    74           6.4378861557         175.1837884680      B1        B1 (2)
  136   112           6.7057189834         182.4718902303      B2        B2 (3)
  137   139           7.0418149772         191.6175271777      A2        A2 (4)
  138    45          12.3596488553         336.3231436903      A1        A1 (1)
  139   113          15.0275877730         408.9214524682      B2        B2 (3)


  VSCF finished.

 @CHECKOUT-I, Total execution time (CPU/WALL):       25.22/       2.12 seconds.
--executable xvscf finished with status     0 in        2.14 seconds (walltime).
 --invoking executable--
/home/tsommerfeld/zscale/bin/xvtran
 @GETMEM-I,  Allocated   85830 MB of main memory.
  Full RHF integral transformation
  Transformation of IIII integrals :
  1 pass through the AO integral file was required.
      779532 AO integrals were read.
      997326 MO integrals were written to HF2.
  Transformation of IIJJ integrals :
  1 pass through the AO integral file was required.
     1823293 AO integrals were read.
     2386575 MO integrals were written to HF2.
  Transformation of IJIJ integrals :
  1 pass through the AO integral file was required.
     3454828 AO integrals were read.
     4517476 MO integrals were written to HF2.
  Transformation of IJKL integrals :
  1 pass through the AO integral file was required.
     2991764 AO integrals were read.
     3969810 MO integrals were written to HF2.
  Summary of active molecular orbitals: 
------------------------------------------------------------------------
 
  Index      Eigenvalue    Symmetry    Index      Eigenvalue    Symmetry
------------------------------------------------------------------------
     1       -11.0604239        1        71         4.4792368        2
     2        -0.8732941        1        72         4.5565952        2
     3        -0.4029752        1        73         4.6661959        2
     4        -0.2363986        1        74         5.3000087        2
     5        -0.0038952        1        75         5.4205772        2
     6        -0.4950040        2        76         5.8357941        2
     7       -11.0586631        3        77         6.4378862        2
     8        -0.6171064        3        78         0.3132876        3
     9        -0.3523324        4        79         0.3253328        3
    10         0.2369232        1        80         0.4811037        3
    11         0.3258170        1        81         0.5209756        3
    12         0.4832054        1        82         0.7009602        3
    13         0.5319399        1        83         0.7853730        3
    14         0.6177946        1        84         0.8802176        3
    15         0.7687191        1        85         0.9390286        3
    16         0.7916015        1        86         1.2677411        3
    17         0.9331318        1        87         1.4146982        3
    18         1.0582062        1        88         1.4829978        3
    19         1.1453776        1        89         1.4989142        3
    20         1.1568869        1        90         1.5463088        3
    21         1.3467516        1        91         1.6741700        3
    22         1.4318290        1        92         1.8285099        3
    23         1.5377473        1        93         2.0007552        3
    24         1.6344015        1        94         2.8538028        3
    25         1.7896841        1        95         3.0285992        3
    26         2.0313113        1        96         3.4141189        3
    27         2.6364075        1        97         3.4517417        3
    28         2.7325301        1        98         3.5818679        3
    29         2.8172507        1        99         3.6064116        3
    30         2.9744099        1       100         3.6547911        3
    31         3.1147552        1       101         4.0043725        3
    32         3.2887618        1       102         4.1531495        3
    33         3.3269658        1       103         4.3321335        3
    34         3.5625599        1       104         4.4612338        3
    35         3.7512339        1       105         4.5409849        3
    36         3.8124961        1       106         4.6492277        3
    37         4.1816148        1       107         4.7016506        3
    38         4.2181987        1       108         4.9494501        3
    39         4.2735678        1       109         5.0457175        3
    40         4.4152674        1       110         5.4773012        3
    41         4.4518445        1       111         5.7092335        3
    42         4.6330487        1       112         6.1821715        3
    43         4.8091176        1       113         6.7057190        3
    44         5.0406725        1       114        15.0275878        3
    45         5.1046082        1       115         0.3744826        4
    46         5.1706444        1       116         0.8431011        4
    47         5.5644705        1       117         0.9260943        4
    48         5.8486255        1       118         1.0474157        4
    49        12.3596489        1       119         1.1723891        4
    50         0.3226923        2       120         1.3225425        4
    51         0.4511949        2       121         1.7572114        4
    52         0.6305365        2       122         1.8137941        4
    53         0.7326906        2       123         2.1365841        4
    54         0.8600942        2       124         3.0304718        4
    55         1.1903055        2       125         3.2370804        4
    56         1.2940505        2       126         3.3549569        4
    57         1.3816872        2       127         3.6057966        4
    58         1.4957595        2       128         3.6504546        4
    59         1.5793746        2       129         3.9845870        4
    60         1.6353644        2       130         4.0897046        4
    61         2.8296195        2       131         4.1080640        4
    62         2.9051396        2       132         4.2681292        4
    63         3.1289857        2       133         4.3605210        4
    64         3.2870611        2       134         4.7870809        4
    65         3.4697163        2       135         5.1933997        4
    66         3.5190094        2       136         5.5928632        4
    67         3.8077165        2       137         5.6060734        4
    68         3.8902369        2       138         6.2843162        4
    69         4.1450221        2       139         7.0418150        4
    70         4.2290888        2
------------------------------------------------------------------------
  -11.0604238669588      -0.873294094655456      -0.402975167467306     
 -0.236398559567960      -3.895242523821722E-003 -0.495003979747216     
  -11.0586631087089      -0.617106396881904      -0.352332418795908     
  0.236923166610463       0.325816998041791       0.483205435834462     
  0.531939917579359       0.617794634053062       0.768719146188892     
  0.791601519623171       0.933131762301857        1.05820622975001     
   1.14537760153495        1.15688692630399        1.34675160160848     
   1.43182896557575        1.53774734997836        1.63440146415619     
   1.78968411686785        2.03131134007196        2.63640748815830     
   2.73253008521630        2.81725070411506        2.97440989286832     
   3.11475523427523        3.28876181748763        3.32696583074361     
   3.56255990726651        3.75123388833785        3.81249608275700     
   4.18161480597469        4.21819870636385        4.27356782815569     
   4.41526742197085        4.45184446562750        4.63304874777419     
   4.80911758877651        5.04067254713566        5.10460817216571     
   5.17064443656759        5.56447048660104        5.84862550925750     
   12.3596488552765       0.322692349494834       0.451194914401463     
  0.630536454010283       0.732690633981790       0.860094219474379     
   1.19030552350770        1.29405051589279        1.38168722029409     
   1.49575953567241        1.57937455649844        1.63536438259661     
   2.82961945419913        2.90513958654548        3.12898572370346     
   3.28706108228034        3.46971630066876        3.51900944704623     
   3.80771648299619        3.89023687659058        4.14502211471108     
   4.22908875460173        4.47923677507141        4.55659515098915     
   4.66619589962329        5.30000865810155        5.42057717726798     
   5.83579407591678        6.43788615569062       0.313287551279753     
  0.325332813751221       0.481103659663514       0.520975599595677     
  0.700960162418021       0.785373000084701       0.880217552755541     
  0.939028590212337        1.26774112870348        1.41469821348997     
   1.48299779641213        1.49891417035298        1.54630875199810     
   1.67416997968923        1.82850986283472        2.00075522766929     
   2.85380275079505        3.02859918729565        3.41411894252619     
   3.45174168409823        3.58186793302073        3.60641158975732     
   3.65479113948859        4.00437251897846        4.15314949543277     
   4.33213349076119        4.46123377474383        4.54098494222931     
   4.64922773938888        4.70165059031373        4.94945007753452     
   5.04571750001696        5.47730116305391        5.70923353522648     
   6.18217149486758        6.70571898341449        15.0275877729975     
  0.374482555401247       0.843101056076468       0.926094259851548     
   1.04741573935378        1.17238906182405        1.32254249685514     
   1.75721141799771        1.81379414113025        2.13658405508634     
   3.03047175316888        3.23708041120824        3.35495689233349     
   3.60579656082597        3.65045457087410        3.98458699300922     
   4.08970462532990        4.10806398983053        4.26812916535123     
   4.36052104256525        4.78708094229514        5.19339970942744     
   5.59286315151002        5.60607338045870        6.28431615060554     
   7.04181497724719     
 @CHECKOUT-I, Total execution time (CPU/WALL):       17.57/       2.63 seconds.
--executable xvtran finished with status     0 in        2.65 seconds (walltime).
 --invoking executable--
/home/tsommerfeld/zscale/bin/xintprc
 @GETMEM-I,  Allocated   85830 MB of main memory.
  @GMOIAA-I, Processing MO integrals for spin case AA.
  @GMOIAA-I, Generation of integral list completed.
                      TYPE                NUMBER
                      ----               --------
                      PPPP               9084376
                      PPPH               2501601
                      PPHH                173538
                      PHPH                 97627
                      PHHH                 13713
                      HHHH                   332

                     TOTAL              11871187

  @FORMT2-I, Second-order MP correlation energies:
            ------------------------------------------------
            E(SCF)                  =    -78.485301321109 a.u.
            E2(AA)                  =     -0.041310295739 a.u.
            E2(AB)                  =     -0.329602705347 a.u.
            E2(TOT)                 =     -0.412223296824 a.u.
            Total MP2 energy        =    -78.897524617933 a.u.
            ------------------------------------------------
   Largest T2 amplitudes for spin case AB:
       _       _                 _       _                 _       _
   i   j   a   b             i   j   a   b             i   j   a   b
-----------------------------------------------------------------------------
[  5   5  10  10]-0.09517 [  4   4  78  78]-0.05451 [  5   5  15  10]-0.03229
[  5   5  10  15]-0.03229 [  5   5  51  51]-0.03050 [  5   5  15  15]-0.02956
[  5   4  78  78]-0.02619 [  4   5  78  78]-0.02619 [  4   4  82  78]-0.02526
[  4   4  78  82]-0.02526 [  5   4  10  10] 0.02525 [  4   5  10  10] 0.02525
[  4   4  79  78] 0.02497 [  4   4  78  79] 0.02497 [  4   3  78  85]-0.02174
-----------------------------------------------------------------------------
   Norm of T2AB vector (   345906 symmetry allowed elements):  0.3465317697.
-----------------------------------------------------------------------------
 @CHECKOUT-I, Total execution time (CPU/WALL):        5.14/       2.89 seconds.
--executable xintprc finished with status     0 in        2.92 seconds (walltime).
  calling xvcc 
 --invoking executable--
/home/tsommerfeld/zscale/bin/xvcc
 @GETMEM-I,  Allocated   85830 MB of main memory.
   CCSD(T) energy will be calculated.
   The total correlation energy is -0.412223296824 a.u.
   The total correlation energy is -0.428877007577 a.u.
  Convergence information after     1 iterations: 
  Largest element of residual vector : -0.29551058E-01.
  Largest element of DIIS residual   : -0.29551058E-01.
   The total correlation energy is -0.440643158504 a.u.
  Convergence information after     2 iterations: 
  Largest element of residual vector : -0.17557265E-01.
  Largest element of DIIS residual   : -0.14850018E-01.
   The total correlation energy is -0.443223429484 a.u.
  Convergence information after     3 iterations: 
  Largest element of residual vector : -0.94946167E-02.
  Largest element of DIIS residual   : -0.53824294E-02.
   The total correlation energy is -0.445329569812 a.u.
  Convergence information after     4 iterations: 
  Largest element of residual vector : -0.43102260E-02.
  Largest element of DIIS residual   : -0.32170806E-02.
   The total correlation energy is -0.445514320411 a.u.
  Convergence information after     5 iterations: 
  Largest element of residual vector : -0.15764430E-02.
  Largest element of DIIS residual   : -0.77741844E-03.
   The total correlation energy is -0.445523357555 a.u.
  Convergence information after     6 iterations: 
  Largest element of residual vector : -0.77958219E-03.
  Largest element of DIIS residual   : -0.46255971E-03.
   The total correlation energy is -0.445510486435 a.u.
  Convergence information after     7 iterations: 
  Largest element of residual vector : -0.22192247E-03.
  Largest element of DIIS residual   :  0.10470035E-03.
   The total correlation energy is -0.445500954584 a.u.
  Convergence information after     8 iterations: 
  Largest element of residual vector :  0.76084599E-04.
  Largest element of DIIS residual   :  0.64627347E-04.
   The total correlation energy is -0.445505243258 a.u.
  Convergence information after     9 iterations: 
  Largest element of residual vector :  0.36852089E-04.
  Largest element of DIIS residual   :  0.27327483E-04.
   The total correlation energy is -0.445505150651 a.u.
  Convergence information after    10 iterations: 
  Largest element of residual vector :  0.21604569E-04.
  Largest element of DIIS residual   :  0.14032235E-04.
   The total correlation energy is -0.445506619373 a.u.
  Convergence information after    11 iterations: 
  Largest element of residual vector :  0.85437793E-05.
  Largest element of DIIS residual   : -0.48351740E-05.
   The total correlation energy is -0.445506905872 a.u.
  Convergence information after    12 iterations: 
  Largest element of residual vector :  0.35104964E-05.
  Largest element of DIIS residual   : -0.12867534E-05.
   The total correlation energy is -0.445507025225 a.u.
  Convergence information after    13 iterations: 
  Largest element of residual vector : -0.18346723E-05.
  Largest element of DIIS residual   : -0.46323938E-06.
   The total correlation energy is -0.445507028869 a.u.
  Convergence information after    14 iterations: 
  Largest element of residual vector : -0.61873398E-06.
  Largest element of DIIS residual   :  0.18170176E-06.
   The total correlation energy is -0.445507013825 a.u.
  Convergence information after    15 iterations: 
  Largest element of residual vector : -0.16511787E-06.
  Largest element of DIIS residual   :  0.12910474E-06.
   The total correlation energy is -0.445507013101 a.u.
  Convergence information after    16 iterations: 
  Largest element of residual vector :  0.76412955E-07.
  Largest element of DIIS residual   :  0.47818771E-07.
  Amplitude equations converged in    16iterations.
   The total correlation energy is -0.445507011580 a.u.
   The CC iterations have converged.

   Largest T1 amplitudes for spin case AA:
   i       a                 i       a                 i       a    
-----------------------------------------------------------------------------
[  5      10    ]-0.02754 [  4      10    ] 0.02474 [  5      14    ]-0.02064
[  4      14    ]-0.01609 [  5      15    ] 0.01597 [  4      18    ] 0.01004
[  4      12    ] 0.00900 [  4      21    ]-0.00871 [  6      52    ]-0.00817
[  5      11    ] 0.00816 [  4      27    ]-0.00766 [  6      53    ] 0.00699
[  4      11    ]-0.00679 [  5      16    ]-0.00649 [  4      17    ]-0.00559
-----------------------------------------------------------------------------
   Norm of T1AA vector (      327 symmetry allowed elements):  0.0591722371.
-----------------------------------------------------------------------------
   Largest T2 amplitudes for spin case AB:
       _       _                 _       _                 _       _
   i   j   a   b             i   j   a   b             i   j   a   b
-----------------------------------------------------------------------------
[  5   5  10  10]-0.17631 [  4   4  78  78]-0.07347 [  5   5  15  10]-0.06728
[  5   5  10  15]-0.06728 [  5   4  10  10] 0.04307 [  4   5  10  10] 0.04307
[  5   4  78  78]-0.03980 [  4   5  78  78]-0.03980 [  5   5  51  51]-0.03936
[  5   5  15  15]-0.03732 [  4   4  82  78]-0.03446 [  4   4  78  82]-0.03446
[  4   4  79  78] 0.03400 [  4   4  78  79] 0.03400 [  5   5  78  78]-0.03128
-----------------------------------------------------------------------------
   Norm of T2AB vector (   345906 symmetry allowed elements):  0.4377638216.
-----------------------------------------------------------------------------
       Summary of iterative solution of CC equations 
      -----------------------------------------------------------
                       Correlation           Total
       Iteration         Energy              Energy
      -----------------------------------------------------------
            0        -0.412223296824     -78.897524617933  DIIS 
            1        -0.428877007577     -78.914178328686  DIIS 
            2        -0.440643158504     -78.925944479613  DIIS 
            3        -0.443223429484     -78.928524750592  DIIS 
            4        -0.445329569812     -78.930630890921  DIIS 
            5        -0.445514320411     -78.930815641520  DIIS 
            6        -0.445523357555     -78.930824678663  DIIS 
            7        -0.445510486435     -78.930811807544  DIIS 
            8        -0.445500954584     -78.930802275693  DIIS 
            9        -0.445505243258     -78.930806564366  DIIS 
           10        -0.445505150651     -78.930806471760  DIIS 
           11        -0.445506619373     -78.930807940482  DIIS 
           12        -0.445506905872     -78.930808226981  DIIS 
           13        -0.445507025225     -78.930808346333  DIIS 
           14        -0.445507028869     -78.930808349978  DIIS 
           15        -0.445507013825     -78.930808334934  DIIS 
           16        -0.445507011580     -78.930808332689  DIIS 
      -----------------------------------------------------------
      A miracle has come to pass. The CC iterations have converged.
        E(CCSD)           =     -78.930808332689
        E(CCSD + T(CCSD)) =     -78.949713745569
        E(CCSD(T))        =     -78.949189309058
 @CHECKOUT-I, Total execution time (CPU/WALL):      199.06/      16.60 seconds.
--executable xvcc finished with status     0 in       16.62 seconds (walltime).
  The final electronic energy is       -78.949189309057857 a.u. 
  This computation required                           29.24 seconds (walltime).
