/src/tsommerfeld/qchem/exe/qcprog.exe .cap.inp.14356.qcin.1 /src/jdavis/qchem.scratch/qchem14356/

                  Welcome to Q-Chem
     A Quantum Leap Into The Future Of Chemistry


 Q-Chem 5.4 (devel), Q-Chem, Inc., Pleasanton, CA (2021)

 E. Epifanovsky,  A. T. B. Gilbert,  Xintian Feng,  Joonho Lee,  Yuezhi Mao,  
 N. Mardirossian,  P. Pokhilko,  A. White,  M. Wormit,  M. P. Coons,  
 A. L. Dempwolff,  Zhengting Gan,  D. Hait,  P. R. Horn,  L. D. Jacobson,  
 I. Kaliman,  J. Kussmann,  A. W. Lange,  Ka Un Lao,  D. S. Levine,  Jie Liu,  
 S. C. McKenzie,  A. F. Morrison,  K. Nanda,  F. Plasser,  D. R. Rehn,  
 M. L. Vidal,  Zhi-Qiang You,  Ying Zhu,  B. Alam,  B. Albrecht,  
 A. Aldossary,  E. Alguire,  J. H. Andersen,  D. Barton,  K. Begam,  A. Behn,  
 Y. A. Bernard,  E. J. Berquist,  H. Burton,  A. Carreras,  K. Carter-Fenk,  
 R. Chakraborty,  A. D. Chien,  K. D. Closser,  V. Cofer-Shabica,  
 S. Dasgupta,  Jia Deng,  M. de Wergifosse,  M. Diedenhofen,  Hainam Do,  
 S. Ehlert,  Po-Tung Fang,  S. Fatehi,  Qingguo Feng,  T. Friedhoff,  
 J. Gayvert,  Qinghui Ge,  G. Gidofalvi,  M. Goldey,  J. Gomes,  
 C. Gonzalez-Espinoza,  S. Gulania,  A. Gunina,  M. W. D. Hanson-Heine,  
 P. H. P. Harbach,  A. W. Hauser,  M. F. Herbst,  M. Hernandez Vera,  
 M. Hodecker,  Z. C. Holden,  S. Houck,  Xunkun Huang,  Kerwin Hui,  
 B. C. Huynh,  M. Ivanov,  Hyunjun Ji,  Hanjie Jiang,  B. Kaduk,  S. Kaehler,  
 K. Khistyaev,  Jaehoon Kim,  P. Klunzinger,  Z. Koczor-Benda,  
 Joong Hoon Koh,  D. Kosenkov,  L. Koulias,  T. Kowalczyk,  C. M. Krauter,  
 K. Kue,  A. Kunitsa,  T. Kus,  A. Landau,  K. V. Lawler,  D. Lefrancois,  
 S. Lehtola,  Rain Li,  Yi-Pei Li,  Jiashu Liang,  M. Liebenthal,  
 Hung-Hsuan Lin,  You-Sheng Lin,  Fenglai Liu,  Kuan-Yu Liu,  
 M. Loipersberger,  A. Luenser,  A. Manjanath,  P. Manohar,  E. Mansoor,  
 S. F. Manzer,  Shan-Ping Mao,  A. V. Marenich,  T. Markovich,  S. Mason,  
 S. A. Maurer,  P. F. McLaughlin,  M. F. S. J. Menger,  J.-M. Mewes,  
 S. A. Mewes,  P. Morgante,  J. W. Mullinax,  K. J. Oosterbaan,  G. Paran,  
 Alexander C. Paul,  Suranjan K. Paul,  F. Pavosevic,  Zheng Pei,  S. Prager,  
 E. I. Proynov,  E. Ramos,  B. Rana,  A. E. Rask,  A. Rettig,  R. M. Richard,  
 F. Rob,  E. Rossomme,  T. Scheele,  M. Scheurer,  M. Schneider,  
 N. Sergueev,  S. M. Sharada,  W. Skomorowski,  D. W. Small,  C. J. Stein,  
 Yu-Chuan Su,  E. J. Sundstrom,  Zhen Tao,  J. Thirman,  T. Tsuchimochi,  
 N. M. Tubman,  S. P. Veccham,  O. Vydrov,  J. Wenzel,  J. Witte,  A. Yamada,  
 Kun Yao,  S. Yeganeh,  S. R. Yost,  A. Zech,  Igor Ying Zhang,  Xing Zhang,  
 Yu Zhang,  D. Zuev,  A. Aspuru-Guzik,  A. T. Bell,  N. A. Besley,  
 K. B. Bravaya,  B. R. Brooks,  D. Casanova,  Jeng-Da Chai,  S. Coriani,  
 C. J. Cramer,  A. E. DePrince, III,  R. A. DiStasio Jr.,  A. Dreuw,  
 B. D. Dunietz,  T. R. Furlani,  W. A. Goddard III,  S. Grimme,  
 S. Hammes-Schiffer,  T. Head-Gordon,  W. J. Hehre,  Chao-Ping Hsu,  
 T.-C. Jagau,  Yousung Jung,  A. Klamt,  Jing Kong,  D. S. Lambrecht,  
 WanZhen Liang,  N. J. Mayhall,  C. W. McCurdy,  J. B. Neaton,  
 C. Ochsenfeld,  J. A. Parkhill,  R. Peverati,  V. A. Rassolov,  Yihan Shao,  
 L. V. Slipchenko,  T. Stauch,  R. P. Steele,  J. E. Subotnik,  
 A. J. W. Thom,  A. Tkatchenko,  D. G. Truhlar,  T. Van Voorhis,  
 T. A. Wesolowski,  K. B. Whaley,  H. L. Woodcock III,  P. M. Zimmerman,  
 S. Faraji,  P. M. W. Gill,  M. Head-Gordon,  J. M. Herbert,  A. I. Krylov

 Additional authors for Version 5.4.1: 
 S. Kotaru,  Shaozhi Li,  Xiangyuan Li,  F. Matz,  A. Molle,  Haisheng Ren,  
 Yingli Su,  Hung-Yi Tsai,  C. Utku,  Fang Wang

 Contributors to earlier versions of Q-Chem not listed above: 
 R. D. Adamson,  B. Austin,  R. Baer,  J. Baker,  G. J. O. Beran,  
 K. Brandhorst,  S. T. Brown,  E. F. C. Byrd,  A. K. Chakraborty,  
 G. K. L. Chan,  Chun-Min Chang,  Yunqing Chen,  C.-L. Cheng,  
 Siu Hung Chien,  D. M. Chipman,  D. L. Crittenden,  H. Dachsel,  
 R. J. Doerksen,  A. D. Dutoi,  R. G. Edgar,  J. Fosso-Tande,  
 L. Fusti-Molnar,  D. Ghosh,  A. Ghysels,  A. Golubeva-Zadorozhnaya,  
 J. Gonthier,  M. S. Gordon,  S. R. Gwaltney,  G. Hawkins,  J. E. Herr,  
 A. Heyden,  S. Hirata,  E. G. Hohenstein,  G. Kedziora,  F. J. Keil,  
 C. Kelley,  Jihan Kim,  R. A. King,  R. Z. Khaliullin,  P. P. Korambath,  
 W. Kurlancheek,  A. Laurent,  A. M. Lee,  M. S. Lee,  S. V. Levchenko,  
 Ching Yeh Lin,  D. Liotard,  E. Livshits,  R. C. Lochan,  I. Lotan,  
 L. A. Martinez-Martinez,  P. E. Maslen,  N. Nair,  D. P. O'Neill,  
 D. Neuhauser,  E. Neuscamman,  C. M. Oana,  R. Olivares-Amaya,  R. Olson,  
 T. M. Perrine,  B. Peters,  P. A. Pieniazek,  A. Prociuk,  Y. M. Rhee,  
 J. Ritchie,  M. A. Rohrdanz,  E. Rosta,  N. J. Russ,  H. F. Schaefer III,  
 M. W. Schmidt,  N. E. Schultz,  S. Sharma,  N. Shenvi,  C. D. Sherrill,  
 A. C. Simmonett,  A. Sodt,  T. Stein,  D. Stuck,  K. S. Thanthiriwatte,  
 V. Vanovschi,  L. Vogt,  Tao Wang,  A. Warshel,  M. A. Watson,  
 C. F. Williams,  Q. Wu,  X. Xu,  Jun Yang,  W. Zhang,  Yan Zhao

 Please cite Q-Chem as follows:
 Y. Shao et al., Mol. Phys. 113, 184-215 (2015)
 DOI: 10.1080/00268976.2014.952696

 Q-Chem 5.4.1 for Intel X86 EM64T Linux

 Parts of Q-Chem use Armadillo 9.900.5 (Nocturnal Misbehaviour).
 http://arma.sourceforge.net/

 Q-Chem begins on Mon Mar 28 02:57:48 2022  

 Host: node01
0

     Scratch files written to /src/jdavis/qchem.scratch/qchem14356//
 Processing $rem in /src/tsommerfeld/qchem/config/preferences:
 Processing $rem in /home/jdavis/.qchemrc:

 Checking the input file for inconsistencies... 	...done.

--------------------------------------------------------------
User input:
--------------------------------------------------------------
$comment
	H_Ethylene CAP-ADC(2) 3z
	Basis: C: aDZ+4p1d, H: DZ
$end

$molecule
-1 1
C         0.0000000000    0.0000000000    0.8417902907
C         0.0000000000    0.0000000000   -0.4872097093
H         0.9623488518    0.0000000000    1.3363703127
H         0.9623489048    0.0000000000   -0.9817896873
H        -0.9623488518    0.0000000000    1.3363703127
H        -0.9623489048    0.0000000000   -0.9817896873
H         0.0000000000    0.0000000000   -10.4872097093
$end

$rem
	basis gen
	method adc(3)
        EE_STATES [0,0,0,30]
	scf_convergence 8
	thresh 14
	adc_cap 1
	cap_type 2
	cap_x 1500
	cap_x_end 5000
	cap_x_step 500
	xc_grid 000250000974
	adc_print 3
	adc_davidson_conv 5
	adc_nguess_singles 100
	adc_nguess_doubles 50
	adc_davidson_maxsubspace 400
	adc_davidson_maxiter 40
	adc_davidson_thresh 14
	mem_total 95000
	threads 12
$end

$basis
C     1
S   9   1.00
      6.665000D+03           6.920000D-04
      1.000000D+03           5.329000D-03
      2.280000D+02           2.707700D-02
      6.471000D+01           1.017180D-01
      2.106000D+01           2.747400D-01
      7.495000D+00           4.485640D-01
      2.797000D+00           2.850740D-01
      5.215000D-01           1.520400D-02
      1.596000D-01          -3.191000D-03
S   9   1.00
      6.665000D+03          -1.460000D-04
      1.000000D+03          -1.154000D-03
      2.280000D+02          -5.725000D-03
      6.471000D+01          -2.331200D-02
      2.106000D+01          -6.395500D-02
      7.495000D+00          -1.499810D-01
      2.797000D+00          -1.272620D-01
      5.215000D-01           5.445290D-01
      1.596000D-01           5.804960D-01
S   1   1.00
      1.596000D-01           1.000000D+00
S   1   1.00
      0.0469000              1.0000000
P   4   1.00
      9.439000D+00           3.810900D-02
      2.002000D+00           2.094800D-01
      5.456000D-01           5.085570D-01
      1.517000D-01           4.688420D-01
P   1   1.00
      1.517000D-01           1.000000D+00
P   1   1.00
      0.0404100              1.0000000
P    1  1.00
     0.0269400   1.0
P    1  1.00
     0.0179600   1.0
P    1  1.00
     0.0119733   1.0
P    1  1.00
     0.0079822   1.0
D   1   1.00
      5.500000D-01           1.0000000
D   1   1.00
      0.1510000              1.0000000
D    1  1.00
     0.0755000   1.0
****
C     2
S   9   1.00
      6.665000D+03           6.920000D-04
      1.000000D+03           5.329000D-03
      2.280000D+02           2.707700D-02
      6.471000D+01           1.017180D-01
      2.106000D+01           2.747400D-01
      7.495000D+00           4.485640D-01
      2.797000D+00           2.850740D-01
      5.215000D-01           1.520400D-02
      1.596000D-01          -3.191000D-03
S   9   1.00
      6.665000D+03          -1.460000D-04
      1.000000D+03          -1.154000D-03
      2.280000D+02          -5.725000D-03
      6.471000D+01          -2.331200D-02
      2.106000D+01          -6.395500D-02
      7.495000D+00          -1.499810D-01
      2.797000D+00          -1.272620D-01
      5.215000D-01           5.445290D-01
      1.596000D-01           5.804960D-01
S   1   1.00
      1.596000D-01           1.000000D+00
S   1   1.00
      0.0469000              1.0000000
P   4   1.00
      9.439000D+00           3.810900D-02
      2.002000D+00           2.094800D-01
      5.456000D-01           5.085570D-01
      1.517000D-01           4.688420D-01
P   1   1.00
      1.517000D-01           1.000000D+00
P   1   1.00
      0.0404100              1.0000000
P    1  1.00
     0.0269400   1.0
P    1  1.00
     0.0179600   1.0
P    1  1.00
     0.0119733   1.0
P    1  1.00
     0.0079822   1.0
D   1   1.00
      5.500000D-01           1.0000000
D   1   1.00
      0.1510000              1.0000000
D    1  1.00
     0.0755000   1.0
****
H     3
S   4   1.00
      1.301000D+01           1.968500D-02
      1.962000D+00           1.379770D-01
      4.446000D-01           4.781480D-01
      1.220000D-01           5.012400D-01
S   1   1.00
      1.220000D-01           1.000000D+00
P   1   1.00
      7.270000D-01           1.0000000
****
H     4
S   4   1.00
      1.301000D+01           1.968500D-02
      1.962000D+00           1.379770D-01
      4.446000D-01           4.781480D-01
      1.220000D-01           5.012400D-01
S   1   1.00
      1.220000D-01           1.000000D+00
P   1   1.00
      7.270000D-01           1.0000000
****
H     5
S   4   1.00
      1.301000D+01           1.968500D-02
      1.962000D+00           1.379770D-01
      4.446000D-01           4.781480D-01
      1.220000D-01           5.012400D-01
S   1   1.00
      1.220000D-01           1.000000D+00
P   1   1.00
      7.270000D-01           1.0000000
****
H     6
S   4   1.00
      1.301000D+01           1.968500D-02
      1.962000D+00           1.379770D-01
      4.446000D-01           4.781480D-01
      1.220000D-01           5.012400D-01
S   1   1.00
      1.220000D-01           1.000000D+00
P   1   1.00
      7.270000D-01           1.0000000
****
H     7
S    4   1.00
      1.301000D+01           1.968500D-02
      1.962000D+00           1.379770D-01
      4.446000D-01           4.781480D-01
      1.220000D-01           5.012400D-01
S    1   1.00
      1.220000D-01           1.000000D+00
S    1   1.00
      0.0297400              1.0000000
P    1   1.00
      7.270000D-01           1.0000000
P    1   1.00
      0.1410000              1.0000000
****
$end
--------------------------------------------------------------
 ----------------------------------------------------------------
             Standard Nuclear Orientation (Angstroms)
    I     Atom           X                Y                Z
 ----------------------------------------------------------------
    1      C       0.0000000000     0.0000000000     1.2918235242
    2      C       0.0000000000     0.0000000000    -0.0371764758
    3      H       0.9623488518     0.0000000000     1.7864035462
    4      H       0.9623489048     0.0000000000    -0.5317564538
    5      H      -0.9623488518     0.0000000000     1.7864035462
    6      H      -0.9623489048     0.0000000000    -0.5317564538
    7      H       0.0000000000     0.0000000000   -10.0371764758
 ----------------------------------------------------------------
 Molecular Point Group                 C2v   NOp =  4
 Largest Abelian Subgroup              C2v   NOp =  4
 Nuclear Repulsion Energy =          34.38697142 hartrees
 There are        9 alpha and        9 beta electrons
 Requested basis set is non-standard
 There are 43 shells and 105 basis functions
 Total memory of 95000 MB is distributed as follows: 
   MEM_STATIC is set to 192 MB
   QALLOC/CCMAN JOB total memory use is  94808 MB
 Warning: actual memory use might exceed 95000 MB

 Total QAlloc Memory Limit  95000 MB
 Mega-Array Size       188 MB
 MEM_STATIC part       192 MB

                       Distance Matrix (Angstroms)
             C (  1)   C (  2)   H (  3)   H (  4)   H (  5)   H (  6)
   C (  2)  1.329000
   H (  3)  1.082000  2.061931
   H (  4)  2.061931  1.082000  2.318160
   H (  5)  1.082000  2.061931  1.924698  3.013026
   H (  6)  2.061931  1.082000  3.013026  1.924698  2.318160
   H (  7) 11.329000 10.000000 11.862679  9.554011 11.862679  9.554011

 
 A cutoff of  1.0D-14 yielded    885 shell pairs
 There are      5411 function pairs (      6071 Cartesian)
 Smallest overlap matrix eigenvalue = 7.59E-06

 Scale SEOQF with 1.000000e-01/1.000000e-01/1.000000e-02

 Standard Electronic Orientation quadrupole field applied
 Nucleus-field energy     =    -0.0000000011 hartrees
 ================ Generating on-the-fly SAD Guess ================
Attempting to make child job directory: /src/jdavis/qchem.scratch/qchem14356//Frg1/
Attempting to make child job directory: /src/jdavis/qchem.scratch/qchem14356//Frg2/
Creating input file /src/jdavis/qchem.scratch/qchem14356/Frg1.input
using default PutDataFrgm: nothing
calling putenv with: QCSCRATCH=/src/jdavis/qchem.scratch/qchem14356/ 
Spawning Job For Fragment 0
Done Job For Fragment 0
calling putenv with: QCSCRATCH=/src/jdavis/qchem.scratch 
calling putenv with: QCTHREADS=1 
Creating input file /src/jdavis/qchem.scratch/qchem14356/Frg2.input
using default PutDataFrgm: nothing
calling putenv with: QCSCRATCH=/src/jdavis/qchem.scratch/qchem14356/ 
Spawning Job For Fragment 1
Done Job For Fragment 1
calling putenv with: QCSCRATCH=/src/jdavis/qchem.scratch 
calling putenv with: QCTHREADS=1 
 Time for running child jobs:  CPU 2.15 s  wall 54.89 s
 ============= Method Specific SAD Guess Constructed =============
 Guess from on-the-fly superposition of atomic densities
 Warning: Energy on first SCF cycle will be non-variational
 A restricted Hartree-Fock SCF calculation will be
 performed using Pulay DIIS extrapolation
 SCF converges when DIIS error is below 1.0E-08
 using 12 threads for integral computing
 -------------------------------------------------------
 OpenMP Integral computing Module                
 Release: version 1.0, May 2013, Q-Chem Inc. Pittsburgh 
 -------------------------------------------------------
 ---------------------------------------
  Cycle       Energy         DIIS Error
 ---------------------------------------
    1     -78.7995384072      4.71E-02
    2     -78.4505185366      4.15E-03
    3     -78.4974467897      9.99E-04
    4     -78.5018559160      3.63E-04
    5     -78.5023484084      5.87E-05
    6     -78.5023798423      2.06E-05
    7     -78.5023854563      7.19E-06
    8     -78.5023863398      2.32E-06
    9     -78.5023864783      8.59E-07
   10     -78.5023864951      2.51E-07
   11     -78.5023864967      3.68E-08
   12     -78.5023864968      8.09E-09 Convergence criterion met
 ---------------------------------------
 SCF time:  CPU 18.26 s  wall 1.53 s
 SCF   energy in the final basis set = -78.50238650
 Total energy in the final basis set = -78.50238650
================================================================================
|                                                                              |
|                                 A D C  M A N                                 |
|                                                                              |
 ------------------------------------------------------------------------------ 
|                                                                              |
| Components:                                                                  |
|                                                                              |
| - libvmm - 1.3-trunk                                                         |
|   Authors:                                                                   |
|   Evgeny Epifanovsky, Ilya Kaliman                                           |
|                                                                              |
| - libtensor - 2.5-trunk                                                      |
|   Authors:                                                                   |
|   Evgeny Epifanovsky, Michael Wormit, Dmitry Zuev, Sam Manzer,               |
|   Ilya Kaliman                                                               |
|                                                                              |
| - libwfa - 1.1-trunk                                                         |
|   Authors:                                                                   |
|   Felix Plasser, Stefanie Mewes (Baeppler), Benjamin Thomitzni,              |
|   Michael Wormit, Feng Chen, Anna I. Krylov, Pavel Pokhilko                  |
|                                                                              |
| - libadc - 1.1-trunk                                                         |
|   Authors:                                                                   |
|   Michael Wormit, Adrian L. Dempwolff, Philipp H. P. Harbach,                |
|   Caroline Krauter, Dirk Rehn, Matthias Schneider, Jan Wenzel                |
|                                                                              |
| - adcman - 2.6-trunk                                                         |
|   Authors:                                                                   |
|   Michael Wormit, Adrian L. Dempwolff, Philipp H. P. Harbach,                |
|   Caroline Krauter, Daniel Lefrancois, Jan-Michael Mewes, Dirk Rehn,         |
|   Matthias Schneider, Jan Wenzel, Andreas Dreuw                              |
|                                                                              |
| Authors of earlier versions of ADCMAN:                                       |
| Andreas Dreuw, Jan Hendrik Starcke, Dirk Rehn, Michael Wormit                |
|                                                                              |
================================================================================

  Import QC data ...  CPU 0.00 s  wall 0.00 s
 
 Alpha MOs, Restricted
 -- Occupied --                  
-11.185 -11.183  -0.990  -0.730  -0.609  -0.515  -0.463  -0.325
  1 A1    2 A1    3 A1    4 A1    1 B1    5 A1    2 B1    1 B2                 
 -0.027
  6 A1                                                                         
 -- Virtual --                   
  0.047   0.048   0.054   0.070   0.071   0.071   0.079   0.080
  3 B1    2 B2    7 A1    4 B1    3 B2    8 A1    5 B1    4 B2                 
  0.100   0.101   0.103   0.111   0.124   0.128   0.131   0.146
  6 B1    5 B2    9 A1   10 A1   11 A1    7 B1    6 B2    7 B2                 
  0.149   0.149   0.171   0.189   0.209   0.210   0.224   0.229
 12 A1    8 B1   13 A1    8 B2    9 B1   14 A1    9 B2   15 A1                 
  0.230   0.237   0.251   0.256   0.261   0.306   0.312   0.334
 10 B1   16 A1   17 A1    1 A2   10 B2   18 A1   11 B1    2 A2                 
  0.343   0.359   0.363   0.374   0.381   0.397   0.411   0.434
 11 B2   19 A1   12 B1   13 B1   20 A1   12 B2   13 B2   21 A1                 
  0.439   0.471   0.507   0.508   0.541   0.562   0.593   0.618
 22 A1   14 B1   23 A1   15 B1   24 A1   14 B2   25 A1   16 B1                 
  0.619   0.644   0.703   0.714   0.758   0.765   0.786   0.894
  3 A2   17 B1   26 A1   27 A1   15 B2    4 A2   28 A1   18 B1                 
  0.966   0.979   0.989   1.092   1.111   1.126   1.145   1.185
 29 A1   16 B2   30 A1   19 B1   17 B2   31 A1   20 B1   18 B2                 
  1.250   1.285   1.330   1.567   1.592   1.635   1.699   1.705
 32 A1   21 B1   33 A1   34 A1   22 B1   35 A1   19 B2    5 A2                 
  1.849   1.856   1.873   1.874   1.875   1.877   1.947   1.998
  6 A2   36 A1   23 B1   20 B2   37 A1   24 B1   21 B2   22 B2                 
  1.999   2.012   2.079   2.092   2.291   2.328   2.419   2.526
 38 A1   25 B1    7 A2   39 A1   26 B1   40 A1   23 B2    8 A2                 
  2.602   2.686   2.713   2.771   2.929   2.950   3.504   3.709
 41 A1   27 B1   42 A1   43 A1   28 B1   44 A1   29 B1   45 A1                 
 
 Beta MOs, Restricted
 -- Occupied --                  
-11.185 -11.183  -0.990  -0.730  -0.609  -0.515  -0.463  -0.325
  1 A1    2 A1    3 A1    4 A1    1 B1    5 A1    2 B1    1 B2                 
 -0.027
  6 A1                                                                         
 -- Virtual --                   
  0.047   0.048   0.054   0.070   0.071   0.071   0.079   0.080
  3 B1    2 B2    7 A1    4 B1    3 B2    8 A1    5 B1    4 B2                 
  0.100   0.101   0.103   0.111   0.124   0.128   0.131   0.146
  6 B1    5 B2    9 A1   10 A1   11 A1    7 B1    6 B2    7 B2                 
  0.149   0.149   0.171   0.189   0.209   0.210   0.224   0.229
 12 A1    8 B1   13 A1    8 B2    9 B1   14 A1    9 B2   15 A1                 
  0.230   0.237   0.251   0.256   0.261   0.306   0.312   0.334
 10 B1   16 A1   17 A1    1 A2   10 B2   18 A1   11 B1    2 A2                 
  0.343   0.359   0.363   0.374   0.381   0.397   0.411   0.434
 11 B2   19 A1   12 B1   13 B1   20 A1   12 B2   13 B2   21 A1                 
  0.439   0.471   0.507   0.508   0.541   0.562   0.593   0.618
 22 A1   14 B1   23 A1   15 B1   24 A1   14 B2   25 A1   16 B1                 
  0.619   0.644   0.703   0.714   0.758   0.765   0.786   0.894
  3 A2   17 B1   26 A1   27 A1   15 B2    4 A2   28 A1   18 B1                 
  0.966   0.979   0.989   1.092   1.111   1.126   1.145   1.185
 29 A1   16 B2   30 A1   19 B1   17 B2   31 A1   20 B1   18 B2                 
  1.250   1.285   1.330   1.567   1.592   1.635   1.699   1.705
 32 A1   21 B1   33 A1   34 A1   22 B1   35 A1   19 B2    5 A2                 
  1.849   1.856   1.873   1.874   1.875   1.877   1.947   1.998
  6 A2   36 A1   23 B1   20 B2   37 A1   24 B1   21 B2   22 B2                 
  1.999   2.012   2.079   2.092   2.291   2.328   2.419   2.526
 38 A1   25 B1    7 A2   39 A1   26 B1   40 A1   23 B2    8 A2                 
  2.602   2.686   2.713   2.771   2.929   2.950   3.504   3.709
 41 A1   27 B1   42 A1   43 A1   28 B1   44 A1   29 B1   45 A1                 
  Import AO data ...  CPU 0.01 s  wall 0.01 s
  Using point group: C2v
  Irreducible representations in point group: A1 A2 B1 B2
  Molecular orbitals: 
  Occupied MOs:
  Block   0:   1 ( A1) A   2 ( A1) A   3 ( A1) A   4 ( A1) A   5 ( A1) A
                  -11.18      -11.18       -0.99     -0.7299     -0.5152
               6 ( A1) A
                -0.02667
  Block   1:   1 ( B1) A   2 ( B1) A
                 -0.6086     -0.4632
  Block   2:   1 ( B2) A
                 -0.3252
  Block   3:   1 ( A1) B   2 ( A1) B   3 ( A1) B   4 ( A1) B   5 ( A1) B
                  -11.18      -11.18       -0.99     -0.7299     -0.5152
               6 ( A1) B
                -0.02667
  Block   4:   1 ( B1) B   2 ( B1) B
                 -0.6086     -0.4632
  Block   5:   1 ( B2) B
                 -0.3252
  Virtual MOs:
  Block   0:   7 ( A1) A   8 ( A1) A   9 ( A1) A  10 ( A1) A  11 ( A1) A
                 0.05391     0.07139       0.103      0.1108       0.124
              12 ( A1) A  13 ( A1) A  14 ( A1) A  15 ( A1) A  16 ( A1) A
                  0.1488      0.1714      0.2102       0.229      0.2365
              17 ( A1) A  18 ( A1) A  19 ( A1) A  20 ( A1) A
                  0.2515      0.3058      0.3587      0.3807
  Block   1:  21 ( A1) A  22 ( A1) A  23 ( A1) A  24 ( A1) A  25 ( A1) A
                  0.4345      0.4388      0.5069      0.5411      0.5927
              26 ( A1) A  27 ( A1) A  28 ( A1) A  29 ( A1) A  30 ( A1) A
                  0.7035      0.7139      0.7862      0.9655      0.9886
              31 ( A1) A  32 ( A1) A
                   1.126        1.25
  Block   2:  33 ( A1) A  34 ( A1) A  35 ( A1) A  36 ( A1) A  37 ( A1) A
                    1.33       1.567       1.635       1.856       1.875
              38 ( A1) A  39 ( A1) A  40 ( A1) A  41 ( A1) A  42 ( A1) A
                   1.999       2.092       2.328       2.602       2.713
              43 ( A1) A  44 ( A1) A  45 ( A1) A
                   2.771        2.95       3.709
  Block   3:   1 ( A2) A   2 ( A2) A   3 ( A2) A   4 ( A2) A   5 ( A2) A
                  0.2563      0.3341      0.6188      0.7647       1.705
               6 ( A2) A   7 ( A2) A   8 ( A2) A
                   1.849       2.079       2.526
  Block   4:   3 ( B1) A   4 ( B1) A   5 ( B1) A   6 ( B1) A   7 ( B1) A
                 0.04749     0.07014     0.07854      0.1001      0.1277
               8 ( B1) A   9 ( B1) A  10 ( B1) A  11 ( B1) A  12 ( B1) A
                  0.1491      0.2089      0.2298      0.3115      0.3628
              13 ( B1) A  14 ( B1) A  15 ( B1) A  16 ( B1) A
                  0.3741      0.4712      0.5077      0.6184
  Block   5:  17 ( B1) A  18 ( B1) A  19 ( B1) A  20 ( B1) A  21 ( B1) A
                   0.644       0.894       1.092       1.145       1.285
              22 ( B1) A  23 ( B1) A  24 ( B1) A  25 ( B1) A  26 ( B1) A
                   1.592       1.873       1.877       2.012       2.291
              27 ( B1) A  28 ( B1) A  29 ( B1) A
                   2.686       2.929       3.504
  Block   6:   2 ( B2) A   3 ( B2) A   4 ( B2) A   5 ( B2) A   6 ( B2) A
                 0.04802     0.07068     0.08038      0.1011      0.1308
               7 ( B2) A   8 ( B2) A   9 ( B2) A  10 ( B2) A  11 ( B2) A
                  0.1464       0.189      0.2243      0.2609      0.3429
              12 ( B2) A  13 ( B2) A
                  0.3967      0.4106
  Block   7:  14 ( B2) A  15 ( B2) A  16 ( B2) A  17 ( B2) A  18 ( B2) A
                  0.5624      0.7579      0.9787       1.111       1.185
              19 ( B2) A  20 ( B2) A  21 ( B2) A  22 ( B2) A  23 ( B2) A
                   1.699       1.874       1.947       1.998       2.419
  Block   8:   7 ( A1) B   8 ( A1) B   9 ( A1) B  10 ( A1) B  11 ( A1) B
                 0.05391     0.07139       0.103      0.1108       0.124
              12 ( A1) B  13 ( A1) B  14 ( A1) B  15 ( A1) B  16 ( A1) B
                  0.1488      0.1714      0.2102       0.229      0.2365
              17 ( A1) B  18 ( A1) B  19 ( A1) B  20 ( A1) B
                  0.2515      0.3058      0.3587      0.3807
  Block   9:  21 ( A1) B  22 ( A1) B  23 ( A1) B  24 ( A1) B  25 ( A1) B
                  0.4345      0.4388      0.5069      0.5411      0.5927
              26 ( A1) B  27 ( A1) B  28 ( A1) B  29 ( A1) B  30 ( A1) B
                  0.7035      0.7139      0.7862      0.9655      0.9886
              31 ( A1) B  32 ( A1) B
                   1.126        1.25
  Block  10:  33 ( A1) B  34 ( A1) B  35 ( A1) B  36 ( A1) B  37 ( A1) B
                    1.33       1.567       1.635       1.856       1.875
              38 ( A1) B  39 ( A1) B  40 ( A1) B  41 ( A1) B  42 ( A1) B
                   1.999       2.092       2.328       2.602       2.713
              43 ( A1) B  44 ( A1) B  45 ( A1) B
                   2.771        2.95       3.709
  Block  11:   1 ( A2) B   2 ( A2) B   3 ( A2) B   4 ( A2) B   5 ( A2) B
                  0.2563      0.3341      0.6188      0.7647       1.705
               6 ( A2) B   7 ( A2) B   8 ( A2) B
                   1.849       2.079       2.526
  Block  12:   3 ( B1) B   4 ( B1) B   5 ( B1) B   6 ( B1) B   7 ( B1) B
                 0.04749     0.07014     0.07854      0.1001      0.1277
               8 ( B1) B   9 ( B1) B  10 ( B1) B  11 ( B1) B  12 ( B1) B
                  0.1491      0.2089      0.2298      0.3115      0.3628
              13 ( B1) B  14 ( B1) B  15 ( B1) B  16 ( B1) B
                  0.3741      0.4712      0.5077      0.6184
  Block  13:  17 ( B1) B  18 ( B1) B  19 ( B1) B  20 ( B1) B  21 ( B1) B
                   0.644       0.894       1.092       1.145       1.285
              22 ( B1) B  23 ( B1) B  24 ( B1) B  25 ( B1) B  26 ( B1) B
                   1.592       1.873       1.877       2.012       2.291
              27 ( B1) B  28 ( B1) B  29 ( B1) B
                   2.686       2.929       3.504
  Block  14:   2 ( B2) B   3 ( B2) B   4 ( B2) B   5 ( B2) B   6 ( B2) B
                 0.04802     0.07068     0.08038      0.1011      0.1308
               7 ( B2) B   8 ( B2) B   9 ( B2) B  10 ( B2) B  11 ( B2) B
                  0.1464       0.189      0.2243      0.2609      0.3429
              12 ( B2) B  13 ( B2) B
                  0.3967      0.4106
  Block  15:  14 ( B2) B  15 ( B2) B  16 ( B2) B  17 ( B2) B  18 ( B2) B
                  0.5624      0.7579      0.9787       1.111       1.185
              19 ( B2) B  20 ( B2) B  21 ( B2) B  22 ( B2) B  23 ( B2) B
                   1.699       1.874       1.947       1.998       2.419
  Import MO data ...  CPU 0.06 s  wall 0.01 s
  Import HF data ...  CPU 0.73 s  wall 0.16 s
  Import 2e integrals ...  CPU 11.92 s  wall 0.99 s
  Import CAP matrix ...  CPU 46.09 s  wall 3.84 s

--------------------------------------------------------------------------------
                                   HF Summary                                   
--------------------------------------------------------------------------------
  Energy:                                                  -78.5023864968 a.u.
  Dip. moment [a.u.]:                  [  -0.000000,   -0.000000,   16.755415]
  Total dipole [Debye]:                                              42.588026
  <r^2> [a.u.]:                        [  39.086875,   28.968849,  758.635687]
  Total <r^2> [a.u.]:                                               826.691411
--------------------------------------------------------------------------------
  HF properties ...  CPU 0.41 s  wall 0.03 s
  MP(1) calculation ...  CPU 2.30 s  wall 0.32 s
  N^6 prerequesite intermediates ...  CPU 2.83 s  wall 0.36 s

--------------------------------------------------------------------------------
                                 MP(2) Summary                                  
--------------------------------------------------------------------------------
  MP energy contribution:                                   -0.3126880300 a.u.
  Total energy:                                            -78.8150745268 a.u.
  Dip. moment [a.u.]:                  [  -0.000000,    0.000000,   14.425412]
  Total dipole [Debye]:                                              36.665747
  <r^2> [a.u.]:                        [  52.765008,   42.457591,  726.138513]
  Total <r^2> [a.u.]:                                               821.361112
--------------------------------------------------------------------------------
  MP(2) calculation ...  CPU 1.13 s  wall 0.46 s

--------------------------------------------------------------------------------
                                 MP(3) Summary                                  
--------------------------------------------------------------------------------
  MP energy contribution:                                   -0.0265613033 a.u.
  Total energy:                                            -78.8416358301 a.u.
--------------------------------------------------------------------------------
  MP(3) calculation ...  CPU 0.01 s  wall 0.00 s
  Start ADC(3,2) ...  CPU 0.06 s  wall 0.01 s
  ADC(3) intermediates ...  CPU 5.86 s  wall 0.77 s
  Starting Davidson for singlet states of irrep B2 ... 
--------------------------------------------------------------------------------
   It NVec Conv  Avg. Norm  Max. Norm  Conv. states           Remark
--------------------------------------------------------------------------------
       150    0  3.958e-02  4.316e-01  0.0381 n n n n n n n n Guess.
    1  180    0  2.121e-02  2.618e-01  0.0162 n n n n n n n n 
    2  210    0  1.763e-02  2.092e-01  0.0161 n n n n n n n n 
    3  240    0  1.459e-02  1.741e-01  0.0161 n n n n n n n n 
    4  270    0  1.310e-02  1.500e-01  0.0161 n n n n n n n n 
    5  300    2  7.211e-03  7.590e-02  0.0161 y y n n n n n n 
    6  330    4  3.759e-03  5.225e-02  0.0161 y y y y n n n n 
    7  360    5  2.368e-03  4.760e-02  0.0161 y y y y n y n n 
    8  390    7  1.343e-03  1.972e-02  0.0161 y y y y y y y n 
    9  400    8  1.329e-03  1.893e-02  0.0161 y y y y y y y y 
   10   60    8  5.510e-04  7.518e-03  0.0161 y y y y y y y y Subspace collapsed.
   11   90    8  5.434e-04  1.000e-02  0.0161 y y y y y y y y 
   12  120    9  5.988e-04  1.356e-02  0.0161 y y y y y y y y 
   13  150   12  6.292e-04  1.529e-02  0.0161 y y y y y y y y 
   14  180   15  5.376e-04  1.014e-02  0.0161 y y y y y y y y 
   15  210   16  4.508e-04  9.596e-03  0.0161 y y y y y y y y 
   16  240   17  3.119e-04  6.669e-03  0.0161 y y y y y y y y 
   17  270   19  1.985e-04  3.821e-03  0.0161 y y y y y y y y 
   18  300   21  1.253e-04  2.632e-03  0.0161 y y y y y y y y 
   19  330   21  6.672e-05  1.511e-03  0.0161 y y y y y y y y 
   20  360   23  3.414e-05  7.829e-04  0.0161 y y y y y y y y 
   21  388   24  1.649e-05  3.808e-04  0.0161 y y y y y y y y 
   22  400   25  1.552e-05  3.604e-04  0.0161 y y y y y y y y 
   23   56   27  6.587e-06  1.512e-04  0.0161 y y y y y y y y Subspace collapsed.
   24   80   27  4.710e-06  1.079e-04  0.0161 y y y y y y y y 
   25  104   27  3.390e-06  7.799e-05  0.0161 y y y y y y y y 
   26  128   27  2.200e-06  5.111e-05  0.0161 y y y y y y y y 
   27  152   27  1.382e-06  3.123e-05  0.0161 y y y y y y y y 
   28  174   27  1.001e-06  2.289e-05  0.0161 y y y y y y y y 
   29  196   28  8.033e-07  1.810e-05  0.0161 y y y y y y y y 
   30  218   28  7.111e-07  1.613e-05  0.0161 y y y y y y y y 
   31  239   29  5.554e-07  1.199e-05  0.0161 y y y y y y y y 
   32  259   30  3.994e-07  8.029e-06  0.0161 y y y y y y y y Converged.
--------------------------------------------------------------------------------
  Davidson Summary: 
 ------------------------------------------------------------
  State  0: excitation energy =   0.0161 a.u.   (converged)
  State  1: excitation energy =   0.0219 a.u.   (converged)
  State  2: excitation energy =   0.0426 a.u.   (converged)
  State  3: excitation energy =   0.0502 a.u.   (converged)
  State  4: excitation energy =   0.0861 a.u.   (converged)
  State  5: excitation energy =   0.0900 a.u.   (converged)
  State  6: excitation energy =   0.1219 a.u.   (converged)
  State  7: excitation energy =   0.1735 a.u.   (converged)
  State  8: excitation energy =   0.1756 a.u.   (converged)
  State  9: excitation energy =   0.1807 a.u.   (converged)
  State 10: excitation energy =   0.1957 a.u.   (converged)
  State 11: excitation energy =   0.2054 a.u.   (converged)
  State 12: excitation energy =   0.2107 a.u.   (converged)
  State 13: excitation energy =   0.2539 a.u.   (converged)
  State 14: excitation energy =   0.2555 a.u.   (converged)
  State 15: excitation energy =   0.2577 a.u.   (converged)
  State 16: excitation energy =   0.2693 a.u.   (converged)
  State 17: excitation energy =   0.2820 a.u.   (converged)
  State 18: excitation energy =   0.2853 a.u.   (converged)
  State 19: excitation energy =   0.2884 a.u.   (converged)
  State 20: excitation energy =   0.2914 a.u.   (converged)
  State 21: excitation energy =   0.3046 a.u.   (converged)
  State 22: excitation energy =   0.3068 a.u.   (converged)
  State 23: excitation energy =   0.3117 a.u.   (converged)
  State 24: excitation energy =   0.3126 a.u.   (converged)
  State 25: excitation energy =   0.3135 a.u.   (converged)
  State 26: excitation energy =   0.3147 a.u.   (converged)
  State 27: excitation energy =   0.3214 a.u.   (converged)
  State 28: excitation energy =   0.3224 a.u.   (converged)
  State 29: excitation energy =   0.3227 a.u.   (converged)
 ------------------------------------------------------------

  Singlet states of irrep B2 ...  CPU 8612.49 s  wall 1380.60 s
  TDMs ...  CPU 13.75 s  wall 3.08 s
  SDMs ...  CPU 27.01 s  wall 5.65 s
  Transition properties ...  CPU 1.09 s  wall 0.22 s
  Properties ...  CPU 7.27 s  wall 1.50 s
  ISR TDMs ...  CPU 500.97 s  wall 108.63 s
  ISR transition properties ...  CPU 37.76 s  wall 6.71 s
  Sum-over-states TPA ...  CPU 0.02 s  wall 0.02 s

--------------------------------------------------------------------------------
                             Excited State Summary
--------------------------------------------------------------------------------
--------------------------------------------------------------------------------

  Excited state  1 (singlet, B2)                                   [converged]
  ----------------------------------------------------------------------------
  Term symbol:  1 (1) B2                                    R^2 =  1.90796e-15

  Total energy:                                            -78.8255035141 a.u.
  Excitation energy:                                               0.438983 eV

  Osc. strength:                                                      0.007727
  Trans. dip. moment [a.u.]:           [  -0.000000,   -0.847619,    0.000000]
  <i|r^2|0> [a.u.]:                    [  -0.000000,    0.000000,    0.000000]
  Two-photon absorption cross-section (SoS) [a.u.]:             138042419.113241
  Two-photon absorption matrix (SoS) [a.u.]:
                                       |   -0.000000   -0.000000   -0.000000 |
                                       |   -0.000000   -0.000000 4153.950215 |
                                       |   -0.000000 4153.950215   -0.000000 |

  Dip. moment [a.u.]:                  [  -0.000000,    0.000000,   -0.831441]
  Total dipole [Debye]:                                               2.113313
  <r^2> [a.u.]:                        [  92.453051,  206.862350,  476.499835]
  Total <r^2> [a.u.]:                                               775.815236

  V1^2 = 0.8292, V2^2 = 0.1708

  Important amplitudes:
      occ i      occ j       vir a       vir b          v   
    ---------------------------------------------------------
     6 (A1) A               2 (B2) A                 -0.4964
     6 (A1) A               3 (B2) A                 -0.4018
     6 (A1) A   6 (A1) B    9 (A1) A    2 (B2) B      0.0842
     6 (A1) A               5 (B2) A                 -0.0784
     6 (A1) A   6 (A1) B    9 (A1) A    3 (B2) B      0.0683
     6 (A1) A   6 (A1) B   30 (A1) A    2 (B2) B     -0.0495
     6 (A1) A   6 (A1) B    8 (A1) A    2 (B2) B      0.0403
     6 (A1) A   6 (A1) B   30 (A1) A    3 (B2) B     -0.0400
     6 (A1) A   6 (A1) B    8 (A1) A    3 (B2) B      0.0330
     6 (A1) A               4 (B2) A                  0.0208
     6 (A1) A   6 (A1) B   13 (A1) A    2 (B2) B     -0.0206
     6 (A1) A   6 (A1) B   10 (A1) A    2 (B2) B     -0.0194
     6 (A1) A   6 (A1) B   13 (A1) A    3 (B2) B     -0.0166
     6 (A1) A   6 (A1) B    7 (A1) A    2 (B2) B      0.0164
     6 (A1) A   6 (A1) B   10 (A1) A    3 (B2) B     -0.0158
     6 (A1) A   6 (A1) B    7 (A1) A    3 (B2) B      0.0133
     6 (A1) A   6 (A1) B    9 (A1) A    5 (B2) B      0.0132
     6 (A1) A   6 (A1) B   11 (A1) A    2 (B2) B     -0.0128
     6 (A1) A   6 (A1) B   12 (A1) A    2 (B2) B     -0.0112
     6 (A1) A   6 (A1) B   11 (A1) A    3 (B2) B     -0.0103
     6 (A1) A   6 (A1) B   12 (A1) A    3 (B2) B     -0.0091
     6 (A1) A               7 (B2) A                  0.0079
     6 (A1) A   6 (A1) B   30 (A1) A    5 (B2) B     -0.0078
     6 (A1) A   6 (A1) B   14 (A1) A    2 (B2) B      0.0068
     6 (A1) A   6 (A1) B    8 (A1) A    5 (B2) B      0.0065
     6 (A1) A   6 (A1) B   16 (A1) A    2 (B2) B      0.0057
     6 (A1) A   6 (A1) B   14 (A1) A    3 (B2) B      0.0055
     6 (A1) A   6 (A1) B   16 (A1) A    3 (B2) B      0.0046
     6 (A1) A               9 (B2) A                 -0.0040
     6 (A1) A   6 (A1) B   17 (A1) A    2 (B2) B     -0.0038
     6 (A1) A   6 (A1) B    9 (A1) A    4 (B2) B     -0.0038
     6 (A1) A   6 (A1) B   13 (A1) A    5 (B2) B     -0.0032
     6 (A1) A   6 (A1) B   20 (A1) A    2 (B2) B      0.0032
     6 (A1) A   6 (A1) B   10 (A1) A    5 (B2) B     -0.0031
     6 (A1) A   6 (A1) B   17 (A1) A    3 (B2) B     -0.0030
     6 (A1) A   6 (A1) B   15 (A1) A    2 (B2) B     -0.0030
     6 (A1) A               6 (B2) A                 -0.0029
     6 (A1) A   6 (A1) B    7 (A1) A    5 (B2) B      0.0027
     6 (A1) A   6 (A1) B   20 (A1) A    3 (B2) B      0.0026
     6 (A1) A   6 (A1) B   19 (A1) A    2 (B2) B     -0.0025
    ---------------------------------------------------------
  ----------------------------------------------------------------------------


  Excited state  2 (singlet, B2)                                   [converged]
  ----------------------------------------------------------------------------
  Term symbol:  2 (1) B2                                    R^2 =  2.35241e-15

  Total energy:                                            -78.8197525653 a.u.
  Excitation energy:                                               0.595474 eV

  Osc. strength:                                                      0.300054
  Trans. dip. moment [a.u.]:           [  -0.000000,    4.535126,    0.000000]
  <i|r^2|0> [a.u.]:                    [  -0.000000,    0.000000,    0.000000]
  Two-photon absorption cross-section (SoS) [a.u.]:             609789660.732457
  Two-photon absorption matrix (SoS) [a.u.]:
                                       |    -0.000000     0.000000     0.000000 
                                         |
                                       |     0.000000    -0.000000 -8730.618970 
                                         |
                                       |     0.000000 -8730.618970    -0.000000 
                                         |

  Dip. moment [a.u.]:                  [  -0.000000,   -0.000000,   -3.993260]
  Total dipole [Debye]:                                              10.149857
  <r^2> [a.u.]:                        [  85.749125,  186.767355,  586.199376]
  Total <r^2> [a.u.]:                                               858.715856

  V1^2 = 0.8291, V2^2 = 0.1709

  Important amplitudes:
      occ i      occ j       vir a       vir b          v   
    ---------------------------------------------------------
     6 (A1) A               3 (B2) A                 -0.4792
     6 (A1) A               2 (B2) A                  0.4021
     6 (A1) A               4 (B2) A                  0.1441
     6 (A1) A   6 (A1) B    9 (A1) A    3 (B2) B      0.0815
     6 (A1) A   6 (A1) B    9 (A1) A    2 (B2) B     -0.0682
     6 (A1) A               5 (B2) A                 -0.0487
     6 (A1) A   6 (A1) B   30 (A1) A    3 (B2) B     -0.0477
     6 (A1) A   6 (A1) B   30 (A1) A    2 (B2) B      0.0401
     6 (A1) A   6 (A1) B    8 (A1) A    3 (B2) B      0.0394
     6 (A1) A   6 (A1) B    8 (A1) A    2 (B2) B     -0.0325
     6 (A1) A   6 (A1) B    9 (A1) A    4 (B2) B     -0.0244
     6 (A1) A   6 (A1) B   13 (A1) A    3 (B2) B     -0.0198
     6 (A1) A   6 (A1) B   10 (A1) A    3 (B2) B     -0.0188
     6 (A1) A   6 (A1) B   13 (A1) A    2 (B2) B      0.0167
     6 (A1) A   6 (A1) B    7 (A1) A    3 (B2) B      0.0157
     6 (A1) A   6 (A1) B   10 (A1) A    2 (B2) B      0.0157
     6 (A1) A   6 (A1) B   30 (A1) A    4 (B2) B      0.0144
     6 (A1) A   6 (A1) B    7 (A1) A    2 (B2) B     -0.0130
     6 (A1) A   6 (A1) B   11 (A1) A    3 (B2) B     -0.0124
     6 (A1) A   6 (A1) B    8 (A1) A    4 (B2) B     -0.0116
     6 (A1) A   6 (A1) B   12 (A1) A    3 (B2) B     -0.0108
     6 (A1) A   6 (A1) B   11 (A1) A    2 (B2) B      0.0104
     6 (A1) A   6 (A1) B   12 (A1) A    2 (B2) B      0.0091
     6 (A1) A   6 (A1) B    9 (A1) A    5 (B2) B      0.0083
     6 (A1) A               7 (B2) A                  0.0073
     6 (A1) A               8 (B2) A                 -0.0066
     6 (A1) A   6 (A1) B   14 (A1) A    3 (B2) B      0.0065
     6 (A1) A   6 (A1) B   13 (A1) A    4 (B2) B      0.0059
     6 (A1) A   6 (A1) B   10 (A1) A    4 (B2) B      0.0057
     6 (A1) A   6 (A1) B   14 (A1) A    2 (B2) B     -0.0055
     6 (A1) A   6 (A1) B   16 (A1) A    3 (B2) B      0.0054
     6 (A1) A   6 (A1) B   30 (A1) A    5 (B2) B     -0.0048
     6 (A1) A   6 (A1) B    7 (A1) A    4 (B2) B     -0.0047
     6 (A1) A   6 (A1) B   16 (A1) A    2 (B2) B     -0.0046
     6 (A1) A   6 (A1) B    8 (A1) A    5 (B2) B      0.0039
     6 (A1) A   6 (A1) B   11 (A1) A    4 (B2) B      0.0037
     6 (A1) A   6 (A1) B   17 (A1) A    3 (B2) B     -0.0036
     6 (A1) A   6 (A1) B   12 (A1) A    4 (B2) B      0.0033
     6 (A1) A   6 (A1) B   20 (A1) A    3 (B2) B      0.0031
     6 (A1) A   6 (A1) B   17 (A1) A    2 (B2) B      0.0031
    ---------------------------------------------------------
  ----------------------------------------------------------------------------


  Excited state  3 (singlet, B2)                                   [converged]
  ----------------------------------------------------------------------------
  Term symbol:  3 (1) B2                                    R^2 =  3.86271e-15

  Total energy:                                            -78.7990438210 a.u.
  Excitation energy:                                               1.158988 eV

  Osc. strength:                                                      0.065848
  Trans. dip. moment [a.u.]:           [  -0.000000,   -1.522837,    0.000000]
  <i|r^2|0> [a.u.]:                    [  -0.000000,   -0.000000,    0.000000]
  Two-photon absorption cross-section (SoS) [a.u.]:             5033231870.817163
  Two-photon absorption matrix (SoS) [a.u.]:
                                       |      0.000000     -0.000000      0.000000 
                                         |
                                       |     -0.000000     -0.000000 -25082.942089 
                                         |
                                       |      0.000000 -25082.942089     -0.000002 
                                         |

  Dip. moment [a.u.]:                  [  -0.000000,    0.000000,   -1.480302]
  Total dipole [Debye]:                                               3.762552
  <r^2> [a.u.]:                        [  80.063489,  169.600465,  464.120930]
  Total <r^2> [a.u.]:                                               713.784884

  V1^2 = 0.8289, V2^2 = 0.1711

  Important amplitudes:
      occ i      occ j       vir a       vir b          v   
    ---------------------------------------------------------
     6 (A1) A               4 (B2) A                 -0.5367
     6 (A1) A               5 (B2) A                 -0.3371
     6 (A1) A   6 (A1) B    9 (A1) A    4 (B2) B      0.0907
     6 (A1) A               2 (B2) A                  0.0797
     6 (A1) A               3 (B2) A                 -0.0611
     6 (A1) A   6 (A1) B    9 (A1) A    5 (B2) B      0.0571
     6 (A1) A   6 (A1) B   30 (A1) A    4 (B2) B     -0.0534
     6 (A1) A               7 (B2) A                 -0.0444
     6 (A1) A   6 (A1) B    8 (A1) A    4 (B2) B      0.0435
     6 (A1) A   6 (A1) B   30 (A1) A    5 (B2) B     -0.0335
     6 (A1) A   6 (A1) B    8 (A1) A    5 (B2) B      0.0277
     6 (A1) A   6 (A1) B   13 (A1) A    4 (B2) B     -0.0222
     6 (A1) A   6 (A1) B   10 (A1) A    4 (B2) B     -0.0211
     6 (A1) A               6 (B2) A                 -0.0209
     6 (A1) A   6 (A1) B    7 (A1) A    4 (B2) B      0.0179
     6 (A1) A               8 (B2) A                  0.0146
     6 (A1) A   6 (A1) B   13 (A1) A    5 (B2) B     -0.0139
     6 (A1) A   6 (A1) B   11 (A1) A    4 (B2) B     -0.0138
     6 (A1) A   6 (A1) B    9 (A1) A    2 (B2) B     -0.0137
     6 (A1) A   6 (A1) B   10 (A1) A    5 (B2) B     -0.0132
     6 (A1) A   6 (A1) B   12 (A1) A    4 (B2) B     -0.0122
     6 (A1) A   6 (A1) B    7 (A1) A    5 (B2) B      0.0113
     6 (A1) A   6 (A1) B    9 (A1) A    3 (B2) B      0.0102
     6 (A1) A   6 (A1) B   11 (A1) A    5 (B2) B     -0.0086
     6 (A1) A   6 (A1) B   30 (A1) A    2 (B2) B      0.0080
     6 (A1) A   6 (A1) B   12 (A1) A    5 (B2) B     -0.0076
     6 (A1) A   6 (A1) B   14 (A1) A    4 (B2) B      0.0073
     6 (A1) A   6 (A1) B    9 (A1) A    7 (B2) B      0.0072
     6 (A1) A   6 (A1) B    8 (A1) A    2 (B2) B     -0.0067
     6 (A1) A   6 (A1) B   16 (A1) A    4 (B2) B      0.0062
     6 (A1) A   6 (A1) B   30 (A1) A    3 (B2) B     -0.0060
     6 (A1) A               9 (B2) A                 -0.0053
     6 (A1) A   6 (A1) B    8 (A1) A    3 (B2) B      0.0048
     6 (A1) A              13 (B2) A                  0.0047
     6 (A1) A   6 (A1) B   14 (A1) A    5 (B2) B      0.0046
     6 (A1) A   6 (A1) B   30 (A1) A    7 (B2) B     -0.0043
     6 (A1) A              11 (B2) A                 -0.0041
     6 (A1) A   6 (A1) B   17 (A1) A    4 (B2) B     -0.0040
     6 (A1) A   6 (A1) B   16 (A1) A    5 (B2) B      0.0038
     6 (A1) A   6 (A1) B    8 (A1) A    7 (B2) B      0.0036
    ---------------------------------------------------------
  ----------------------------------------------------------------------------


  Excited state  4 (singlet, B2)                                   [converged]
  ----------------------------------------------------------------------------
  Term symbol:  4 (1) B2                                    R^2 =  3.42282e-15

  Total energy:                                            -78.7913915477 a.u.
  Excitation energy:                                               1.367216 eV

  Osc. strength:                                                      0.019134
  Trans. dip. moment [a.u.]:           [   0.000000,   -0.755802,   -0.000000]
  <i|r^2|0> [a.u.]:                    [  -0.000000,   -0.000000,    0.000000]
  Two-photon absorption cross-section (SoS) [a.u.]:              734509.484407
  Two-photon absorption matrix (SoS) [a.u.]:
                                       |    0.000000    0.000000   -0.000000 |
                                       |    0.000000    0.000001 -303.007732 |
                                       |   -0.000000 -303.007732   -0.000000 |

  Dip. moment [a.u.]:                  [  -0.000000,    0.000000,   -3.239909]
  Total dipole [Debye]:                                               8.235028
  <r^2> [a.u.]:                        [  68.530372,  134.958809,  533.574579]
  Total <r^2> [a.u.]:                                               737.063760

  V1^2 = 0.8282, V2^2 = 0.1718

  Important amplitudes:
      occ i      occ j       vir a       vir b          v   
    ---------------------------------------------------------
     6 (A1) A               5 (B2) A                 -0.5343
     6 (A1) A               4 (B2) A                  0.3161
     6 (A1) A               3 (B2) A                  0.1374
     6 (A1) A               6 (B2) A                  0.0917
     6 (A1) A   6 (A1) B    9 (A1) A    5 (B2) B      0.0907
     6 (A1) A   6 (A1) B    9 (A1) A    4 (B2) B     -0.0535
     6 (A1) A   6 (A1) B   30 (A1) A    5 (B2) B     -0.0531
     6 (A1) A   6 (A1) B    8 (A1) A    5 (B2) B      0.0437
     6 (A1) A   6 (A1) B   30 (A1) A    4 (B2) B      0.0314
     6 (A1) A   6 (A1) B    8 (A1) A    4 (B2) B     -0.0252
     6 (A1) A               7 (B2) A                 -0.0249
     6 (A1) A   6 (A1) B    9 (A1) A    3 (B2) B     -0.0233
     6 (A1) A   6 (A1) B   13 (A1) A    5 (B2) B     -0.0221
     6 (A1) A   6 (A1) B   10 (A1) A    5 (B2) B     -0.0209
     6 (A1) A               8 (B2) A                 -0.0195
     6 (A1) A   6 (A1) B    7 (A1) A    5 (B2) B      0.0177
     6 (A1) A   6 (A1) B    9 (A1) A    6 (B2) B     -0.0151
     6 (A1) A               2 (B2) A                 -0.0144
     6 (A1) A   6 (A1) B   11 (A1) A    5 (B2) B     -0.0138
     6 (A1) A   6 (A1) B   30 (A1) A    3 (B2) B      0.0137
     6 (A1) A   6 (A1) B   13 (A1) A    4 (B2) B      0.0131
     6 (A1) A   6 (A1) B   10 (A1) A    4 (B2) B      0.0125
     6 (A1) A              10 (B2) A                  0.0122
     6 (A1) A   6 (A1) B   12 (A1) A    5 (B2) B     -0.0121
     6 (A1) A   6 (A1) B    8 (A1) A    3 (B2) B     -0.0112
     6 (A1) A   6 (A1) B    7 (A1) A    4 (B2) B     -0.0103
     6 (A1) A   6 (A1) B   30 (A1) A    6 (B2) B      0.0089
     6 (A1) A   6 (A1) B   11 (A1) A    4 (B2) B      0.0081
     6 (A1) A   6 (A1) B   14 (A1) A    5 (B2) B      0.0073
     6 (A1) A   6 (A1) B    8 (A1) A    6 (B2) B     -0.0072
     6 (A1) A   6 (A1) B   12 (A1) A    4 (B2) B      0.0072
     6 (A1) A   6 (A1) B   16 (A1) A    5 (B2) B      0.0061
     6 (A1) A              11 (B2) A                 -0.0058
     6 (A1) A   6 (A1) B   13 (A1) A    3 (B2) B      0.0057
     6 (A1) A   6 (A1) B   10 (A1) A    3 (B2) B      0.0053
     6 (A1) A   6 (A1) B    7 (A1) A    3 (B2) B     -0.0045
     6 (A1) A   6 (A1) B   14 (A1) A    4 (B2) B     -0.0043
     6 (A1) A   6 (A1) B   17 (A1) A    5 (B2) B     -0.0041
     6 (A1) A   6 (A1) B   13 (A1) A    6 (B2) B      0.0037
     6 (A1) A   6 (A1) B   16 (A1) A    4 (B2) B     -0.0037
    ---------------------------------------------------------
  ----------------------------------------------------------------------------


  Excited state  5 (singlet, B2)                                   [converged]
  ----------------------------------------------------------------------------
  Term symbol:  5 (1) B2                                    R^2 =  4.45689e-15

  Total energy:                                            -78.7555017593 a.u.
  Excitation energy:                                               2.343827 eV

  Osc. strength:                                                      0.000000
  Trans. dip. moment [a.u.]:           [   0.000000,    0.001217,   -0.000000]
  <i|r^2|0> [a.u.]:                    [  -0.000000,   -0.000000,   -0.000000]
  Two-photon absorption cross-section (SoS) [a.u.]:             28508606.245179
  Two-photon absorption matrix (SoS) [a.u.]:
                                       |    0.000000   -0.000000   -0.000000 |
                                       |   -0.000000    0.000000 1887.743569 |
                                       |   -0.000000 1887.743569   -0.000000 |

  Dip. moment [a.u.]:                  [  -0.000000,    0.000000,   -1.370173]
  Total dipole [Debye]:                                               3.482632
  <r^2> [a.u.]:                        [  51.198303,   81.444278,  473.206372]
  Total <r^2> [a.u.]:                                               605.848953

  V1^2 = 0.8188, V2^2 = 0.1812

  Important amplitudes:
      occ i      occ j       vir a       vir b          v   
    ---------------------------------------------------------
     6 (A1) A               7 (B2) A                  0.5435
     6 (A1) A               6 (B2) A                 -0.2635
     6 (A1) A               8 (B2) A                  0.1886
     6 (A1) A   6 (A1) B    9 (A1) A    7 (B2) B     -0.0902
     6 (A1) A               5 (B2) A                 -0.0693
     6 (A1) A   6 (A1) B   30 (A1) A    7 (B2) B      0.0531
     6 (A1) A              10 (B2) A                 -0.0521
     6 (A1) A   6 (A1) B    8 (A1) A    7 (B2) B     -0.0435
     6 (A1) A   6 (A1) B    9 (A1) A    6 (B2) B      0.0434
     6 (A1) A   6 (A1) B    9 (A1) A    8 (B2) B     -0.0278
     6 (A1) A   6 (A1) B   30 (A1) A    6 (B2) B     -0.0257
     6 (A1) A   6 (A1) B   13 (A1) A    7 (B2) B      0.0220
     6 (A1) A   6 (A1) B   10 (A1) A    7 (B2) B      0.0209
     6 (A1) A   6 (A1) B    8 (A1) A    6 (B2) B      0.0206
     6 (A1) A              12 (B2) A                 -0.0203
     6 (A1) A               3 (B2) A                  0.0199
     6 (A1) A   6 (A1) B    7 (A1) A    7 (B2) B     -0.0177
     6 (A1) A   6 (A1) B   30 (A1) A    8 (B2) B      0.0168
     6 (A1) A               9 (B2) A                  0.0167
     6 (A1) A              11 (B2) A                  0.0138
     6 (A1) A   6 (A1) B   11 (A1) A    7 (B2) B      0.0137
     6 (A1) A   6 (A1) B    8 (A1) A    8 (B2) B     -0.0134
     6 (A1) A   6 (A1) B    9 (A1) A    5 (B2) B      0.0125
     6 (A1) A   6 (A1) B   12 (A1) A    7 (B2) B      0.0121
     6 (A1) A               4 (B2) A                  0.0118
     6 (A1) A   6 (A1) B   13 (A1) A    6 (B2) B     -0.0107
     6 (A1) A   6 (A1) B   10 (A1) A    6 (B2) B     -0.0101
     6 (A1) A   1 (B2) B    8 (B2) A    9 (B2) B     -0.0084
     6 (A1) A   6 (A1) B    7 (A1) A    6 (B2) B      0.0084
     6 (A1) A              14 (B2) A                 -0.0083
     6 (A1) A   1 (B2) A    8 (B2) A    9 (B2) A     -0.0074
     6 (A1) A   1 (B2) B    8 (B2) A    6 (B2) B     -0.0074
     6 (A1) A   6 (A1) B   14 (A1) A    7 (B2) B     -0.0073
     6 (A1) A   1 (B2) A    6 (B2) A    8 (B2) A      0.0073
     6 (A1) A   6 (A1) B   30 (A1) A    5 (B2) B     -0.0072
     6 (A1) A   6 (A1) B   13 (A1) A    8 (B2) B      0.0069
     6 (A1) A   6 (A1) B   11 (A1) A    6 (B2) B     -0.0066
     6 (A1) A   6 (A1) B   10 (A1) A    8 (B2) B      0.0065
     6 (A1) A   1 (B2) B   10 (B2) A    9 (B2) B      0.0065
     6 (A1) A   6 (A1) B    9 (A1) A   10 (B2) B      0.0061
    ---------------------------------------------------------
  ----------------------------------------------------------------------------


  Excited state  6 (singlet, B2)                                   [converged]
  ----------------------------------------------------------------------------
  Term symbol:  6 (1) B2                                    R^2 =  2.54526e-15

  Total energy:                                            -78.7516148930 a.u.
  Excitation energy:                                               2.449594 eV

  Osc. strength:                                                      0.017958
  Trans. dip. moment [a.u.]:           [   0.000000,    0.547021,    0.000000]
  <i|r^2|0> [a.u.]:                    [   0.000000,   -0.000000,    0.000000]
  Two-photon absorption cross-section (SoS) [a.u.]:               11885.597493
  Two-photon absorption matrix (SoS) [a.u.]:
                                       |    0.000000   -0.000000   -0.000000 |
                                       |   -0.000000    0.000000  -38.544775 |
                                       |   -0.000000  -38.544775   -0.000000 |

  Dip. moment [a.u.]:                  [  -0.000000,    0.000000,   -3.400710]
  Total dipole [Debye]:                                               8.643744
  <r^2> [a.u.]:                        [  69.136080,  136.627379,  457.449168]
  Total <r^2> [a.u.]:                                               663.212627

  V1^2 = 0.8278, V2^2 = 0.1722

  Important amplitudes:
      occ i      occ j       vir a       vir b          v   
    ---------------------------------------------------------
     6 (A1) A               6 (B2) A                 -0.5605
     6 (A1) A               7 (B2) A                 -0.2974
     6 (A1) A   6 (A1) B    9 (A1) A    6 (B2) B      0.0941
     6 (A1) A               4 (B2) A                  0.0707
     6 (A1) A   6 (A1) B   30 (A1) A    6 (B2) B     -0.0554
     6 (A1) A   6 (A1) B    9 (A1) A    7 (B2) B      0.0503
     6 (A1) A               8 (B2) A                  0.0463
     6 (A1) A   6 (A1) B    8 (A1) A    6 (B2) B      0.0451
     6 (A1) A               5 (B2) A                 -0.0390
     6 (A1) A               9 (B2) A                 -0.0379
     6 (A1) A   6 (A1) B   30 (A1) A    7 (B2) B     -0.0295
     6 (A1) A              10 (B2) A                 -0.0276
     6 (A1) A   6 (A1) B    8 (A1) A    7 (B2) B      0.0244
     6 (A1) A   6 (A1) B   13 (A1) A    6 (B2) B     -0.0231
     6 (A1) A   6 (A1) B   10 (A1) A    6 (B2) B     -0.0219
     6 (A1) A   6 (A1) B    7 (A1) A    6 (B2) B      0.0184
     6 (A1) A               3 (B2) A                  0.0157
     6 (A1) A   6 (A1) B   11 (A1) A    6 (B2) B     -0.0143
     6 (A1) A   6 (A1) B    9 (A1) A    4 (B2) B     -0.0126
     6 (A1) A   6 (A1) B   12 (A1) A    6 (B2) B     -0.0126
     6 (A1) A   6 (A1) B   13 (A1) A    7 (B2) B     -0.0123
     6 (A1) A   6 (A1) B   10 (A1) A    7 (B2) B     -0.0117
     6 (A1) A   6 (A1) B    7 (A1) A    7 (B2) B      0.0099
     6 (A1) A              13 (B2) A                  0.0088
     6 (A1) A   6 (A1) B   11 (A1) A    7 (B2) B     -0.0076
     6 (A1) A   6 (A1) B   14 (A1) A    6 (B2) B      0.0076
     6 (A1) A   6 (A1) B   30 (A1) A    4 (B2) B      0.0073
     6 (A1) A   6 (A1) B    9 (A1) A    8 (B2) B     -0.0071
     6 (A1) A   6 (A1) B   12 (A1) A    7 (B2) B     -0.0068
     6 (A1) A   6 (A1) B   16 (A1) A    6 (B2) B      0.0064
     6 (A1) A   6 (A1) B    9 (A1) A    5 (B2) B      0.0063
     6 (A1) A              11 (B2) A                 -0.0061
     6 (A1) A   6 (A1) B    8 (A1) A    4 (B2) B     -0.0060
     6 (A1) A   6 (A1) B    9 (A1) A    9 (B2) B      0.0055
     6 (A1) A   1 (B2) B   10 (B2) A    8 (B2) B     -0.0045
     6 (A1) A               2 (B2) A                 -0.0044
     6 (A1) A   6 (A1) B   30 (A1) A    8 (B2) B      0.0043
     6 (A1) A   6 (A1) B    9 (A1) A   10 (B2) B      0.0042
     6 (A1) A   6 (A1) B   17 (A1) A    6 (B2) B     -0.0042
     6 (A1) A   6 (A1) B   14 (A1) A    7 (B2) B      0.0041
    ---------------------------------------------------------
  ----------------------------------------------------------------------------


  Excited state  7 (singlet, B2)                                   [converged]
  ----------------------------------------------------------------------------
  Term symbol:  7 (1) B2                                    R^2 =  3.87471e-15

  Total energy:                                            -78.7197568056 a.u.
  Excitation energy:                                               3.316497 eV

  Osc. strength:                                                      0.001430
  Trans. dip. moment [a.u.]:           [   0.000000,    0.132669,   -0.000000]
  <i|r^2|0> [a.u.]:                    [   0.000000,    0.000000,   -0.000000]
  Two-photon absorption cross-section (SoS) [a.u.]:              161279.768789
  Two-photon absorption matrix (SoS) [a.u.]:
                                       |    0.000000    0.000000   -0.000000 |
                                       |    0.000000    0.000000 -141.985813 |
                                       |   -0.000000 -141.985813    0.000000 |

  Dip. moment [a.u.]:                  [  -0.000000,    0.000000,   -2.427999]
  Total dipole [Debye]:                                               6.171359
  <r^2> [a.u.]:                        [  50.933033,   79.749861,  474.503428]
  Total <r^2> [a.u.]:                                               605.186322

  V1^2 = 0.8095, V2^2 = 0.1905

  Important amplitudes:
      occ i      occ j       vir a       vir b          v   
    ---------------------------------------------------------
     6 (A1) A               8 (B2) A                 -0.5760
     6 (A1) A               7 (B2) A                  0.1619
     6 (A1) A               6 (B2) A                 -0.1348
     6 (A1) A              10 (B2) A                  0.1210
     6 (A1) A               9 (B2) A                 -0.1096
     6 (A1) A   6 (A1) B    9 (A1) A    8 (B2) B      0.0923
     6 (A1) A   6 (A1) B   30 (A1) A    8 (B2) B     -0.0548
     6 (A1) A   6 (A1) B    8 (A1) A    8 (B2) B      0.0443
     6 (A1) A              12 (B2) A                  0.0328
     6 (A1) A   6 (A1) B    9 (A1) A    7 (B2) B     -0.0300
     6 (A1) A   6 (A1) B    9 (A1) A    6 (B2) B      0.0243
     6 (A1) A   6 (A1) B   13 (A1) A    8 (B2) B     -0.0226
     6 (A1) A   6 (A1) B   10 (A1) A    8 (B2) B     -0.0214
     6 (A1) A              14 (B2) A                  0.0184
     6 (A1) A   6 (A1) B    7 (A1) A    8 (B2) B      0.0180
     6 (A1) A   6 (A1) B    9 (A1) A    9 (B2) B      0.0175
     6 (A1) A   6 (A1) B   30 (A1) A    7 (B2) B      0.0172
     6 (A1) A   6 (A1) B    9 (A1) A   10 (B2) B     -0.0163
     6 (A1) A               4 (B2) A                 -0.0160
     6 (A1) A   6 (A1) B    8 (A1) A    7 (B2) B     -0.0145
     6 (A1) A   6 (A1) B   30 (A1) A    6 (B2) B     -0.0141
     6 (A1) A   6 (A1) B   11 (A1) A    8 (B2) B     -0.0140
     6 (A1) A   6 (A1) B   12 (A1) A    8 (B2) B     -0.0123
     6 (A1) A   1 (B2) B    8 (B2) A    9 (B2) B      0.0120
     6 (A1) A   6 (A1) B    8 (A1) A    6 (B2) B      0.0115
     6 (A1) A   1 (B2) B    8 (B2) A    6 (B2) B      0.0114
     6 (A1) A               5 (B2) A                 -0.0110
     6 (A1) A   1 (B2) B    8 (B2) A    4 (B2) B      0.0104
     6 (A1) A   6 (A1) B   30 (A1) A    9 (B2) B     -0.0104
     6 (A1) A   6 (A1) B   30 (A1) A   10 (B2) B      0.0100
     6 (A1) A   1 (B2) B    8 (B2) A    7 (B2) B      0.0094
     6 (A1) A   1 (B2) B   10 (B2) A    9 (B2) B     -0.0093
     6 (A1) A              18 (B2) A                  0.0092
     6 (A1) A   1 (B2) B   10 (B2) A    6 (B2) B     -0.0089
     6 (A1) A   1 (B2) A    8 (B2) A    9 (B2) A      0.0086
     6 (A1) A   6 (A1) B    8 (A1) A    9 (B2) B      0.0086
     6 (A1) A   1 (B2) B    8 (B2) A    5 (B2) B      0.0082
     6 (A1) A   1 (B2) B    8 (B2) A   13 (B2) B     -0.0082
     6 (A1) A   6 (A1) B    8 (A1) A   10 (B2) B     -0.0078
     6 (A1) A   1 (B2) B   10 (B2) A    4 (B2) B     -0.0077
    ---------------------------------------------------------
  ----------------------------------------------------------------------------


  Excited state  8 (singlet, B2)                                   [converged]
  ----------------------------------------------------------------------------
  Term symbol:  8 (1) B2                                    R^2 =  3.30367e-15

  Total energy:                                            -78.6681373852 a.u.
  Excitation energy:                                               4.721133 eV

  Osc. strength:                                                      0.000026
  Trans. dip. moment [a.u.]:           [  -0.000000,   -0.014936,   -0.000000]
  <i|r^2|0> [a.u.]:                    [   0.000000,    0.000000,    0.000000]
  Two-photon absorption cross-section (SoS) [a.u.]:              111078.485691
  Two-photon absorption matrix (SoS) [a.u.]:
                                       |    0.000000   -0.000000   -0.000000 |
                                       |   -0.000000   -0.000000  117.833827 |
                                       |   -0.000000  117.833827    0.000000 |

  Dip. moment [a.u.]:                  [  -0.000000,   -0.000000,   -2.354565]
  Total dipole [Debye]:                                               5.984708
  <r^2> [a.u.]:                        [  57.949499,  102.794419,  441.719817]
  Total <r^2> [a.u.]:                                               602.463735

  V1^2 = 0.8257, V2^2 = 0.1743

  Important amplitudes:
      occ i      occ j       vir a       vir b          v   
    ---------------------------------------------------------
     6 (A1) A               9 (B2) A                 -0.6285
     6 (A1) A   6 (A1) B    9 (A1) A    9 (B2) B      0.1048
     6 (A1) A               8 (B2) A                  0.0934
     6 (A1) A              10 (B2) A                 -0.0684
     6 (A1) A   6 (A1) B   30 (A1) A    9 (B2) B     -0.0617
     6 (A1) A               6 (B2) A                  0.0522
     6 (A1) A   6 (A1) B    8 (A1) A    9 (B2) B      0.0504
     6 (A1) A              13 (B2) A                  0.0336
     6 (A1) A   6 (A1) B   13 (A1) A    9 (B2) B     -0.0257
     6 (A1) A   6 (A1) B   10 (A1) A    9 (B2) B     -0.0243
     6 (A1) A   6 (A1) B    7 (A1) A    9 (B2) B      0.0206
     6 (A1) A              11 (B2) A                 -0.0178
     6 (A1) A   6 (A1) B   11 (A1) A    9 (B2) B     -0.0159
     6 (A1) A   6 (A1) B    9 (A1) A    8 (B2) B     -0.0152
     6 (A1) A   6 (A1) B   12 (A1) A    9 (B2) B     -0.0140
     6 (A1) A   6 (A1) B    9 (A1) A   10 (B2) B      0.0113
     6 (A1) A   6 (A1) B    9 (A1) A    6 (B2) B     -0.0102
     6 (A1) A   6 (A1) B   30 (A1) A    8 (B2) B      0.0091
     6 (A1) A               5 (B2) A                  0.0089
     6 (A1) A   6 (A1) B   14 (A1) A    9 (B2) B      0.0085
     6 (A1) A              12 (B2) A                 -0.0078
     6 (A1) A   6 (A1) B    8 (A1) A    8 (B2) B     -0.0071
     6 (A1) A   6 (A1) B   16 (A1) A    9 (B2) B      0.0071
     6 (A1) A   6 (A1) B   30 (A1) A   10 (B2) B     -0.0066
     6 (A1) A               7 (B2) A                  0.0064
     6 (A1) A   1 (B2) B   12 (B2) A    8 (B2) B     -0.0063
     6 (A1) A              17 (B2) A                 -0.0062
     6 (A1) A   1 (B2) B   10 (B2) A    8 (B2) B     -0.0059
     6 (A1) A   6 (A1) B   30 (A1) A    6 (B2) B      0.0058
     6 (A1) A   6 (A1) B    8 (A1) A   10 (B2) B      0.0055
     6 (A1) A   1 (B2) B   17 (A1) A   17 (A1) B     -0.0054
     6 (A1) A   6 (A1) B    8 (A1) A    6 (B2) B     -0.0048
     6 (A1) A   6 (A1) B   17 (A1) A    9 (B2) B     -0.0047
     6 (A1) A   1 (B2) A    8 (B2) A   12 (B2) A      0.0043
     6 (A1) A   1 (B2) B   10 (B2) A   10 (B2) B      0.0042
     6 (A1) A   1 (B2) B   12 (B2) A   10 (B2) B      0.0042
     6 (A1) A   1 (B2) B   13 (A1) A   17 (A1) B      0.0042
     6 (A1) A   6 (A1) B   20 (A1) A    9 (B2) B      0.0041
     6 (A1) A   1 (B2) B    1 (A2) A    1 (A2) B     -0.0040
     6 (A1) A   1 (B2) B   14 (B2) A    8 (B2) B     -0.0040
    ---------------------------------------------------------
  ----------------------------------------------------------------------------


  Excited state  9 (singlet, B2)                                   [converged]
  ----------------------------------------------------------------------------
  Term symbol:  9 (1) B2                                    R^2 =  4.15033e-15

  Total energy:                                            -78.6659897805 a.u.
  Excitation energy:                                               4.779572 eV

  Osc. strength:                                                      0.000012
  Trans. dip. moment [a.u.]:           [   0.000000,    0.010121,    0.000000]
  <i|r^2|0> [a.u.]:                    [   0.000000,    0.000000,   -0.000000]
  Two-photon absorption cross-section (SoS) [a.u.]:                  41.336431
  Two-photon absorption matrix (SoS) [a.u.]:
                                       |   -0.000000   -0.000000    0.000000 |
                                       |   -0.000000   -0.000000    2.273115 |
                                       |    0.000000    2.273115   -0.000000 |

  Dip. moment [a.u.]:                  [  -0.000000,    0.000000,   -2.736287]
  Total dipole [Debye]:                                               6.954949
  <r^2> [a.u.]:                        [ 106.986999,  222.157175,  446.189407]
  Total <r^2> [a.u.]:                                               775.333581

  V1^2 = 0.0054, V2^2 = 0.9946

  Important amplitudes:
      occ i      occ j       vir a       vir b          v   
    ---------------------------------------------------------
     6 (A1) A   1 (B2) B    8 (B2) A    2 (B2) B     -0.1521
     6 (A1) A   1 (B2) B    8 (B2) A    3 (B2) B     -0.1282
     6 (A1) A   1 (B2) B   10 (B2) A    2 (B2) B      0.1044
     6 (A1) A   1 (B2) B   10 (B2) A    3 (B2) B      0.0880
     6 (A1) A   1 (B2) B    2 (B2) A    8 (B2) B     -0.0761
     6 (A1) A   1 (B2) A    2 (B2) A    8 (B2) A      0.0760
     6 (A1) A   1 (B2) B    7 (B2) A    2 (B2) B     -0.0740
     6 (A1) A   1 (B2) B    3 (B2) A    8 (B2) B     -0.0642
     6 (A1) A   1 (B2) A    3 (B2) A    8 (B2) A      0.0640
     6 (A1) A   1 (B2) B    7 (B2) A    3 (B2) B     -0.0617
     6 (A1) A   1 (B2) B   12 (B2) A    2 (B2) B      0.0525
     6 (A1) A   1 (B2) B    2 (B2) A   10 (B2) B      0.0523
     6 (A1) A   1 (B2) A    2 (B2) A   10 (B2) A     -0.0522
     6 (A1) A   1 (B2) B    6 (B2) A    2 (B2) B      0.0459
     6 (A1) A   1 (B2) B   12 (B2) A    3 (B2) B      0.0442
     6 (A1) A   1 (B2) B    3 (B2) A   10 (B2) B      0.0441
     6 (A1) A   1 (B2) A    3 (B2) A   10 (B2) A     -0.0439
     6 (A1) A   1 (B2) B    6 (B2) A    3 (B2) B      0.0394
     6 (A1) A               8 (B2) A                 -0.0374
     6 (A1) A   1 (B2) B    2 (B2) A    7 (B2) B     -0.0371
     6 (A1) A   1 (B2) A    2 (B2) A    7 (B2) A      0.0369
     6 (A1) A   1 (B2) B   14 (B2) A    2 (B2) B      0.0350
     6 (A1) A              10 (B2) A                 -0.0340
     6 (A1) A   1 (B2) B    3 (B2) A    7 (B2) B     -0.0309
     6 (A1) A   1 (B2) A    3 (B2) A    7 (B2) A      0.0308
     6 (A1) A   1 (B2) B    9 (B2) A    2 (B2) B     -0.0304
     6 (A1) A   1 (B2) B   14 (B2) A    3 (B2) B      0.0295
     6 (A1) A   1 (B2) B    2 (B2) A   12 (B2) B      0.0262
     6 (A1) A   1 (B2) A    2 (B2) A   12 (B2) A     -0.0262
     6 (A1) A   1 (B2) B    9 (B2) A    3 (B2) B     -0.0249
     6 (A1) A   1 (B2) B    2 (B2) A    6 (B2) B      0.0230
     6 (A1) A   1 (B2) A    2 (B2) A    6 (B2) A     -0.0229
     6 (A1) A   1 (B2) B    3 (B2) A   12 (B2) B      0.0221
     6 (A1) A   1 (B2) A    3 (B2) A   12 (B2) A     -0.0221
     6 (A1) A   1 (B2) B    5 (B2) A    2 (B2) B     -0.0221
     6 (A1) A   1 (B2) B    8 (B2) A    5 (B2) B     -0.0219
     6 (A1) A   1 (B2) B    3 (B2) A    6 (B2) B      0.0197
     6 (A1) A   1 (B2) A    3 (B2) A    6 (B2) A     -0.0197
     6 (A1) A   1 (B2) B    5 (B2) A    3 (B2) B     -0.0185
     6 (A1) A   1 (B2) A    2 (B2) A   14 (B2) A     -0.0175
    ---------------------------------------------------------
  ----------------------------------------------------------------------------


  Excited state 10 (singlet, B2)                                   [converged]
  ----------------------------------------------------------------------------
  Term symbol:  10 (1) B2                                   R^2 =  5.05867e-15

  Total energy:                                            -78.6609566296 a.u.
  Excitation energy:                                               4.916531 eV

  Osc. strength:                                                      0.000000
  Trans. dip. moment [a.u.]:           [   0.000000,    0.001797,    0.000000]
  <i|r^2|0> [a.u.]:                    [   0.000000,    0.000000,   -0.000000]
  Two-photon absorption cross-section (SoS) [a.u.]:                 127.349912
  Two-photon absorption matrix (SoS) [a.u.]:
                                       |    0.000000    0.000000    0.000000 |
                                       |    0.000000   -0.000000    3.989829 |
                                       |    0.000000    3.989829   -0.000000 |

  Dip. moment [a.u.]:                  [  -0.000000,   -0.000000,   -6.359794]
  Total dipole [Debye]:                                              16.164986
  <r^2> [a.u.]:                        [ 100.204732,  201.641585,  555.953928]
  Total <r^2> [a.u.]:                                               857.800246

  V1^2 = 0.0002, V2^2 = 0.9998

  Important amplitudes:
      occ i      occ j       vir a       vir b          v   
    ---------------------------------------------------------
     6 (A1) A   1 (B2) B    8 (B2) A    3 (B2) B      0.1470
     6 (A1) A   1 (B2) B    8 (B2) A    2 (B2) B     -0.1277
     6 (A1) A   1 (B2) B   10 (B2) A    3 (B2) B     -0.1010
     6 (A1) A   1 (B2) B   10 (B2) A    2 (B2) B      0.0877
     6 (A1) A   1 (B2) A    3 (B2) A    8 (B2) A     -0.0735
     6 (A1) A   1 (B2) B    3 (B2) A    8 (B2) B      0.0735
     6 (A1) A   1 (B2) B    7 (B2) A    3 (B2) B      0.0708
     6 (A1) A   1 (B2) B    2 (B2) A    8 (B2) B     -0.0639
     6 (A1) A   1 (B2) A    2 (B2) A    8 (B2) A      0.0638
     6 (A1) A   1 (B2) B    7 (B2) A    2 (B2) B     -0.0624
     6 (A1) A   1 (B2) B   12 (B2) A    3 (B2) B     -0.0507
     6 (A1) A   1 (B2) A    3 (B2) A   10 (B2) A      0.0505
     6 (A1) A   1 (B2) B    3 (B2) A   10 (B2) B     -0.0505
     6 (A1) A   1 (B2) B    8 (B2) A    4 (B2) B     -0.0480
     6 (A1) A   1 (B2) B    6 (B2) A    3 (B2) B     -0.0450
     6 (A1) A   1 (B2) B   12 (B2) A    2 (B2) B      0.0440
     6 (A1) A   1 (B2) A    2 (B2) A   10 (B2) A     -0.0439
     6 (A1) A   1 (B2) B    2 (B2) A   10 (B2) B      0.0439
     6 (A1) A   1 (B2) B    6 (B2) A    2 (B2) B      0.0381
     6 (A1) A   1 (B2) A    3 (B2) A    7 (B2) A     -0.0355
     6 (A1) A   1 (B2) B    3 (B2) A    7 (B2) B      0.0354
     6 (A1) A   1 (B2) B   14 (B2) A    3 (B2) B     -0.0339
     6 (A1) A   1 (B2) B   10 (B2) A    4 (B2) B      0.0329
     6 (A1) A   1 (B2) A    2 (B2) A    7 (B2) A      0.0312
     6 (A1) A   1 (B2) B    2 (B2) A    7 (B2) B     -0.0312
     6 (A1) A   1 (B2) B   14 (B2) A    2 (B2) B      0.0295
     6 (A1) A   1 (B2) B    9 (B2) A    3 (B2) B      0.0287
     6 (A1) A   1 (B2) B    9 (B2) A    2 (B2) B     -0.0259
     6 (A1) A   1 (B2) A    3 (B2) A   12 (B2) A      0.0253
     6 (A1) A   1 (B2) B    3 (B2) A   12 (B2) B     -0.0253
     6 (A1) A   1 (B2) B    4 (B2) A    8 (B2) B     -0.0241
     6 (A1) A   1 (B2) A    4 (B2) A    8 (B2) A      0.0239
     6 (A1) A   1 (B2) B    7 (B2) A    4 (B2) B     -0.0233
     6 (A1) A   1 (B2) B    3 (B2) A    6 (B2) B     -0.0225
     6 (A1) A   1 (B2) A    3 (B2) A    6 (B2) A      0.0225
     6 (A1) A   1 (B2) A    2 (B2) A   12 (B2) A     -0.0220
     6 (A1) A   1 (B2) B    2 (B2) A   12 (B2) B      0.0220
     6 (A1) A   1 (B2) B    5 (B2) A    3 (B2) B      0.0212
     6 (A1) A   1 (B2) B    5 (B2) A    2 (B2) B     -0.0191
     6 (A1) A   1 (B2) A    2 (B2) A    6 (B2) A     -0.0191
    ---------------------------------------------------------
  ----------------------------------------------------------------------------


  Excited state 11 (singlet, B2)                                   [converged]
  ----------------------------------------------------------------------------
  Term symbol:  11 (1) B2                                   R^2 =  2.81611e-15

  Total energy:                                            -78.6459625787 a.u.
  Excitation energy:                                               5.324540 eV

  Osc. strength:                                                      0.001302
  Trans. dip. moment [a.u.]:           [   0.000000,    0.099910,    0.000000]
  <i|r^2|0> [a.u.]:                    [  -0.000000,   -0.000000,   -0.000000]
  Two-photon absorption cross-section (SoS) [a.u.]:               53335.988466
  Two-photon absorption matrix (SoS) [a.u.]:
                                       |    0.000000    0.000000   -0.000000 |
                                       |    0.000000    0.000000  -81.651690 |
                                       |   -0.000000  -81.651690   -0.000000 |

  Dip. moment [a.u.]:                  [  -0.000000,    0.000000,   -2.856558]
  Total dipole [Debye]:                                               7.260648
  <r^2> [a.u.]:                        [  58.304764,   97.930920,  468.358775]
  Total <r^2> [a.u.]:                                               624.594459

  V1^2 = 0.6631, V2^2 = 0.3369

  Important amplitudes:
      occ i      occ j       vir a       vir b          v   
    ---------------------------------------------------------
     6 (A1) A              10 (B2) A                 -0.5467
     6 (A1) A               8 (B2) A                 -0.1617
     6 (A1) A   6 (A1) B    9 (A1) A   10 (B2) B      0.0884
     6 (A1) A   1 (B2) B    8 (B2) A    4 (B2) B     -0.0707
     6 (A1) A              12 (B2) A                 -0.0596
     6 (A1) A   6 (A1) B   30 (A1) A   10 (B2) B     -0.0524
     6 (A1) A   1 (B2) B   10 (B2) A    4 (B2) B      0.0488
[...]
-5.32730126768218570e-02 -1.28270552172427665e-01 -3.81191099004966616e-02 -4.31242531351887559e-01 -2.49773213258016658e-01 1.29620576217270272e-01 3.91288730931479645e-01 9.20516305875138524e-02 8.68171744703399462e+00 -1.04836328582157510e+01 1.88397250556651974e+00 7.47029589219245871e+00 -1.14893253129397088e+01 -3.20680069510628627e+01 2.67962129601907151e+00 2.22192583400259491e-01 -1.26060872211048419e-01 -2.58809894737476731e-01 -3.54919396595446157e+00 1.71523958063605597e-01 -2.00071748481665757e-01 -3.63919801896098599e-02 1.27936069381554968e-01 1.06982482649603696e+01 6.03197285931913685e-01 8.57619776978131299e-01 -3.15842796925531411e-01 1.96766356768450362e-02 -3.71236363592359175e-01 2.03167467141270486e-01
-1.18224235517870035e-02 2.75910620371684456e-01 5.20567389178557965e-02 8.27275743780076400e-01 4.22948082177279805e-01 1.73181669437769331e-01 -6.74728051624773117e-01 -2.82037852149461810e-01 -1.58527101593121174e+01 -9.96441005525693235e+00 -2.28654929697751585e+00 -1.03920915333122252e+01 -7.11752078632143892e+00 2.67962129601907151e+00 -3.66330824847749099e+01 -3.02166830098343775e-01 -2.02172296060269235e-01 -5.31015612267280845e-03 -1.82114823551909621e+00 1.27780690213975368e-01 -2.50490456600408640e-01 1.04487127148045651e-02 -2.93525814204613433e-01 5.08969041357806784e+00 9.83185050279023809e-01 6.64123987686536132e-01 3.23925045404170775e-01 -2.17166548600997329e-02 1.02444398164840078e+00 -3.67071797226727892e-01
1.76019023343031156e-02 9.13783547418164921e-03 -1.11323353444877010e-01 7.77229530805822327e-02 4.72506198010385278e-02 -1.34678349994273472e-01 -5.47700949272273627e-02 3.86802810842338876e-02 -1.28180068897416444e+00 -1.34697276240851882e+00 -1.68342388561378953e-01 -7.89436669813115222e-01 -1.09992193816277029e+00 2.22192583400259491e-01 -3.02166830098343775e-01 -3.26642463995845986e+01 1.33487794108704128e+00 5.57355266836338514e-01 -3.31154424833960959e-01 -1.81767441639626881e+00 2.23126575682956396e+00 3.63658310186272926e-01 9.30536153711759906e-01 2.78465802600571466e-01 -6.52817171530931384e-02 2.87931300070872176e+00 -7.50752507013466741e-01 -4.59295810940512617e+00 -1.31587150970444311e+00 4.19929062609952908e+00
2.09600387415341538e-02 -3.13230852424918188e-02 3.75622801508281451e-02 -3.02527150114522865e-02 -2.15889761025355939e-02 -5.84046915443079268e-02 -2.19474933539759165e-02 -4.57151757984223805e-02 -2.07526082462596677e-02 -6.13702971209509063e-02 2.52831744543557946e-03 -8.83164570843847710e-03 -3.72668965758097687e-02 -1.26060872211048419e-01 -2.02172296060269235e-01 1.33487794108704128e+00 -1.23027844727768034e+01 5.72526820389574587e-01 6.78034789662311371e-02 1.94211150201597826e+00 -6.56549560764502993e-01 -9.98395241824205359e-01 -5.93114589162649697e-01 4.57259756705535939e-02 1.16365484136146335e+00 -6.66346667248275626e-01 1.44335787760646150e+00 -1.11454612979435863e+00 -1.46518665610864307e+00 -1.71928820855077547e+00
9.51281080600577256e-03 -4.78390943493121681e-02 -2.29441123223151876e-02 -1.10027270478816080e-01 -7.64749463606423721e-03 -9.11084758603112610e-02 5.01087763633955643e-02 1.09042515536016613e-02 4.45059605259849389e-01 9.16001917782777730e-02 7.70053401589935321e-02 2.64995317820117982e-01 3.77483966728483639e-02 -2.58809894737476731e-01 -5.31015612267280845e-03 5.57355266836338514e-01 5.72526820389574587e-01 -3.63926681068609739e+01 6.61725841620831590e-01 -9.60997223361458042e-02 1.92641155947352871e+00 1.75602484079707966e-03 3.53299055265745920e+00 -1.00870088629746046e+00 2.27628092005615734e+00 6.74353287151630454e+00 -9.61254782898957938e-01 -2.66775532560233453e+00 5.89898457196879722e-01 2.53433176618445533e+00
2.02659809820310344e-01 9.51862709194871426e-02 1.58006837853965498e+00 -1.30255145394934269e-01 1.36373552336093579e-01 -1.17239188806458849e+00 -6.15713710965281463e-02 -2.92243884147684518e+00 9.50337005796934725e-02 -1.64331029129299910e+00 -1.62853923805572620e-03 1.21979351371437617e-01 -5.88627881070316494e-01 -3.54919396595446157e+00 -1.82114823551909621e+00 -3.31154424833960959e-01 6.78034789662311371e-02 6.61725841620831590e-01 -5.89408904561064428e+00 -1.78281984396755799e-01 6.70982044579772896e-02 1.57944229677036585e-01 3.92041919256337246e-01 2.99226722727633287e+00 4.61077622813292676e-01 3.57089544091473754e-01 -3.96979680681890212e-01 2.31406537151819636e-01 2.29394728351089539e-01 1.57804686792725191e-01
-1.21984209648534504e-02 -1.54496970399745116e-02 8.15675758610344970e-02 -6.72610843951612497e-02 -2.18789111919034628e-02 8.88098415258875007e-02 2.60797836137239489e-02 -1.16496897582797798e-01 -8.51221593484644268e-02 2.98602537088818801e-02 3.91057521874012617e-02 -6.95185357918767233e-02 8.57005521320178265e-03 1.71523958063605597e-01 1.27780690213975368e-01 -1.81767441639626881e+00 1.94211150201597826e+00 -9.60997223361458042e-02 -1.78281984396755799e-01 -2.23304420264007959e+01 6.86026391642013866e+00 1.76874097512834172e-01 -1.86142606668614441e+00 7.07256680106221752e-02 1.30802663815965436e+00 1.01137117221109563e+00 -9.29842674071979181e-01 3.33615657531430365e+00 2.09532205385167636e+00 8.95848182202683141e-02
1.64299097961662748e-02 -3.25254183980571657e-03 -1.15103454379102438e-01 2.81284835941069920e-02 2.36564391576208032e-02 -1.18247841485357108e-01 -4.88005768751595577e-03 1.62874642962462179e-01 3.65090315364480153e-02 -8.66776716027446159e-02 1.80861050558637527e-03 3.56111065704555682e-02 -2.63627168523194177e-02 -2.00071748481665757e-01 -2.50490456600408640e-01 2.23126575682956396e+00 -6.56549560764502993e-01 1.92641155947352871e+00 6.70982044579772896e-02 6.86026391642013866e+00 -2.72317929395685283e+01 4.31258028969868512e+00 3.29207924232260352e+00 -2.02470806703114736e-01 -2.67381763129720529e+00 3.26497027674303331e-01 -1.42835220627410830e+00 -2.93870721454232342e+00 2.84430429715057609e-01 3.18175169694518711e+00
6.84995763696430362e-03 8.84317987172992537e-02 2.38239307325431790e-02 1.89773472335908050e-01 6.71924800456675519e-02 3.15094784123132951e-02 -4.11831151592372269e-02 -3.54320587416069675e-03 -1.05290045747826540e-03 2.25329666640206386e-02 -1.68445177951186048e-01 5.91530389063431930e-02 1.45348602473650314e-02 -3.63919801896098599e-02 1.04487127148045651e-02 3.63658310186272926e-01 -9.98395241824205359e-01 1.75602484079707966e-03 1.57944229677036585e-01 1.76874097512834172e-01 4.31258028969868512e+00 -2.65671872600254275e+01 -2.01421342677853810e+00 6.13143618589626183e-01 1.10253234154531099e+00 -4.58467569125975327e+00 4.88485979561427897e+00 -4.94495295521461764e-01 -2.09077013736617312e+00 -2.36198155023816669e+00
1.96624402720897429e-02 -1.36827822408460663e-02 4.31709921549904077e-02 -3.59798778179022671e-02 -1.68396965483331856e-02 -2.19606885912233471e-02 4.46291488831920878e-04 -2.68911981990711431e-02 -2.64051527871782432e-01 1.81488647199182576e-02 5.92483382471698933e-02 -1.22270703231786126e-01 3.35782062546370746e-02 1.27936069381554968e-01 -2.93525814204613433e-01 9.30536153711759906e-01 -5.93114589162649697e-01 3.53299055265745920e+00 3.92041919256337246e-01 -1.86142606668614441e+00 3.29207924232260352e+00 -2.01421342677853810e+00 -2.88605272370381130e+01 2.29313569495057323e-01 -8.67595455232935686e-01 -3.64159760921302200e-01 -1.49263751718792936e+00 -3.62105487289996297e+00 -1.83438564566262308e+00 -1.22323822710617458e+00
-7.75295125950662134e-02 7.60221583604306084e-02 8.60694711185496342e-01 -1.27682187103567490e-01 -4.96011640188805392e-02 1.13976553597988556e-01 4.77851485479328930e-03 -1.93713716931685975e+00 -2.58338681353042332e-01 3.88145028233339406e+00 4.32907114684330657e-02 7.66388802826044879e-02 -1.86777392639546758e+00 1.06982482649603696e+01 5.08969041357806784e+00 2.78465802600571466e-01 4.57259756705535939e-02 -1.00870088629746046e+00 2.99226722727633287e+00 7.07256680106221752e-02 -2.02470806703114736e-01 6.13143618589626183e-01 2.29313569495057323e-01 -2.23947312967324876e+01 9.91924806502073153e-01 1.66905488556603632e+00 -3.77935106742699589e-01 -5.77414749160235496e-01 2.01013517541649867e-01 8.12772804441987406e-01
-5.58765727683197076e-03 2.11664382155271093e-02 4.63675868115508705e-02 2.56149334323352712e-02 2.80007908659494417e-02 -4.66371284089979396e-02 -2.88309564342449295e-03 -1.47705842056981479e-01 3.40655066459580214e-01 4.08767867868744694e-01 -1.07688559609521312e-01 8.24204995338440605e-02 -1.47019403183589692e-01 6.03197285931913685e-01 9.83185050279023809e-01 -6.52817171530931384e-02 1.16365484136146335e+00 2.27628092005615734e+00 4.61077622813292676e-01 1.30802663815965436e+00 -2.67381763129720529e+00 1.10253234154531099e+00 -8.67595455232935686e-01 9.91924806502073153e-01 -3.50474023122361373e+01 2.32125448384910404e+00 4.61499250075698342e+00 2.66192062106737071e+00 -1.11703806608242573e+00 -2.31727903550890968e+00
-4.31643413323416856e-03 -3.12626550670419973e-02 1.79128622666066301e-01 -1.29116621926442576e-01 -7.14519020486309719e-02 7.81235907021437664e-02 1.29956454188062762e-02 -3.01556502439771668e-01 2.05327090004605917e-01 3.74777595039085476e-01 8.40495603740900044e-02 -6.91152882771022513e-03 -2.85866836809388847e-01 8.57619776978131299e-01 6.64123987686536132e-01 2.87931300070872176e+00 -6.66346667248275626e-01 6.74353287151630454e+00 3.57089544091473754e-01 1.01137117221109563e+00 3.26497027674303331e-01 -4.58467569125975327e+00 -3.64159760921302200e-01 1.66905488556603632e+00 2.32125448384910404e+00 -3.88760379267435852e+01 -1.99473478595768539e+00 1.08524013807712727e+00 -5.91485128069493271e-01 -2.76976759799660543e+00
2.28140529802831234e-03 9.94332982720742137e-02 1.72655802611476117e-01 1.55943559140378496e-01 8.61495786609573488e-02 1.29858400118251255e-01 -1.32658897416805775e-02 -2.63482144135716856e-01 1.96868612266665022e-01 -7.29048966836733786e-02 -2.37016987496116549e-01 9.25383966348184428e-02 1.45843531150985431e-02 -3.15842796925531411e-01 3.23925045404170775e-01 -7.50752507013466741e-01 1.44335787760646150e+00 -9.61254782898957938e-01 -3.96979680681890212e-01 -9.29842674071979181e-01 -1.42835220627410830e+00 4.88485979561427897e+00 -1.49263751718792936e+00 -3.77935106742699589e-01 4.61499250075698342e+00 -1.99473478595768539e+00 -3.46301572135305591e+01 2.63711437240371827e-01 3.19807244289587400e-01 6.58474323831564012e-01
-2.64548053291414204e-02 -1.28192711156013328e-01 4.50892937531135185e-02 -2.70879309717200645e-01 -1.38572758966603704e-01 -6.25040967714409618e-03 1.60627341910905101e-02 -1.94154229193643890e-01 -1.42895117126924431e-01 -7.66760771626452120e-02 3.40612556978969527e-01 -1.25324248805626093e-01 1.03190426464431953e-01 1.96766356768450362e-02 -2.17166548600997329e-02 -4.59295810940512617e+00 -1.11454612979435863e+00 -2.66775532560233453e+00 2.31406537151819636e-01 3.33615657531430365e+00 -2.93870721454232342e+00 -4.94495295521461764e-01 -3.62105487289996297e+00 -5.77414749160235496e-01 2.66192062106737071e+00 1.08524013807712727e+00 2.63711437240371827e-01 -3.98058825587456653e+01 8.34370370144119966e-01 9.94449596362412258e-02
-1.28597176755693501e-03 4.08852922849556932e-01 2.97169718072395062e-02 7.78642840621142085e-01 4.15382269199175092e-01 4.10118098213499774e-02 -4.25121489931466479e-02 -3.68376793440321065e-02 3.75035760031460552e-01 1.51509299048037366e-01 -1.01474933849462934e+00 2.92601939419369961e-01 2.33943642686208070e-02 -3.71236363592359175e-01 1.02444398164840078e+00 -1.31587150970444311e+00 -1.46518665610864307e+00 5.89898457196879722e-01 2.29394728351089539e-01 2.09532205385167636e+00 2.84430429715057609e-01 -2.09077013736617312e+00 -1.83438564566262308e+00 2.01013517541649867e-01 -1.11703806608242573e+00 -5.91485128069493271e-01 3.19807244289587400e-01 8.34370370144119966e-01 -4.39696352774616912e+01 1.28430775135571107e+00
2.83379364286091423e-02 -2.93226669145137918e-02 -8.27494134622022703e-02 -3.26974477164033162e-02 -3.42620507391438733e-02 -7.96307107307724082e-02 2.17683501464158505e-03 2.13753956146582602e-01 -8.11773292963989118e-02 3.01605322124490136e-02 8.00806319463054778e-02 -1.79897941017640728e-02 -1.31837487557820043e-01 2.03167467141270486e-01 -3.67071797226727892e-01 4.19929062609952908e+00 -1.71928820855077547e+00 2.53433176618445533e+00 1.57804686792725191e-01 8.95848182202683141e-02 3.18175169694518711e+00 -2.36198155023816669e+00 -1.22323822710617458e+00 8.12772804441987406e-01 -2.31727903550890968e+00 -2.76976759799660543e+00 6.58474323831564012e-01 9.94449596362412258e-02 1.28430775135571107e+00 -3.57344717815674144e+01

************************************************************
  Printing results (es2es) ...  CPU 0.15 s  wall 0.24 s
  Time of ADC calculation:  CPU 9272.62 s  wall 1514.22 s
--------------------------------------------------------------------------------
================================================================================
 
 --------------------------------------------------------------
             Orbital Energies (a.u.) and Symmetries
 --------------------------------------------------------------
 
 Alpha MOs, Restricted
 -- Occupied --                  
-11.185 -11.183  -0.990  -0.730  -0.609  -0.515  -0.463  -0.325
  1 A1    2 A1    3 A1    4 A1    1 B1    5 A1    2 B1    1 B2                 
 -0.027
  6 A1                                                                         
 -- Virtual --                   
  0.047   0.048   0.054   0.070   0.071   0.071   0.079   0.080
  3 B1    2 B2    7 A1    4 B1    3 B2    8 A1    5 B1    4 B2                 
  0.100   0.101   0.103   0.111   0.124   0.128   0.131   0.146
  6 B1    5 B2    9 A1   10 A1   11 A1    7 B1    6 B2    7 B2                 
  0.149   0.149   0.171   0.189   0.209   0.210   0.224   0.229
 12 A1    8 B1   13 A1    8 B2    9 B1   14 A1    9 B2   15 A1                 
  0.230   0.237   0.251   0.256   0.261   0.306   0.312   0.334
 10 B1   16 A1   17 A1    1 A2   10 B2   18 A1   11 B1    2 A2                 
  0.343   0.359   0.363   0.374   0.381   0.397   0.411   0.434
 11 B2   19 A1   12 B1   13 B1   20 A1   12 B2   13 B2   21 A1                 
  0.439   0.471   0.507   0.508   0.541   0.562   0.593   0.618
 22 A1   14 B1   23 A1   15 B1   24 A1   14 B2   25 A1   16 B1                 
  0.619   0.644   0.703   0.714   0.758   0.765   0.786   0.894
  3 A2   17 B1   26 A1   27 A1   15 B2    4 A2   28 A1   18 B1                 
  0.966   0.979   0.989   1.092   1.111   1.126   1.145   1.185
 29 A1   16 B2   30 A1   19 B1   17 B2   31 A1   20 B1   18 B2                 
  1.250   1.285   1.330   1.567   1.592   1.635   1.699   1.705
 32 A1   21 B1   33 A1   34 A1   22 B1   35 A1   19 B2    5 A2                 
  1.849   1.856   1.873   1.874   1.875   1.877   1.947   1.998
  6 A2   36 A1   23 B1   20 B2   37 A1   24 B1   21 B2   22 B2                 
  1.999   2.012   2.079   2.092   2.291   2.328   2.419   2.526
 38 A1   25 B1    7 A2   39 A1   26 B1   40 A1   23 B2    8 A2                 
  2.602   2.686   2.713   2.771   2.929   2.950   3.504   3.709
 41 A1   27 B1   42 A1   43 A1   28 B1   44 A1   29 B1   45 A1                 
 
 Beta MOs, Restricted
 -- Occupied --                  
-11.185 -11.183  -0.990  -0.730  -0.609  -0.515  -0.463  -0.325
  1 A1    2 A1    3 A1    4 A1    1 B1    5 A1    2 B1    1 B2                 
 -0.027
  6 A1                                                                         
 -- Virtual --                   
  0.047   0.048   0.054   0.070   0.071   0.071   0.079   0.080
  3 B1    2 B2    7 A1    4 B1    3 B2    8 A1    5 B1    4 B2                 
  0.100   0.101   0.103   0.111   0.124   0.128   0.131   0.146
  6 B1    5 B2    9 A1   10 A1   11 A1    7 B1    6 B2    7 B2                 
  0.149   0.149   0.171   0.189   0.209   0.210   0.224   0.229
 12 A1    8 B1   13 A1    8 B2    9 B1   14 A1    9 B2   15 A1                 
  0.230   0.237   0.251   0.256   0.261   0.306   0.312   0.334
 10 B1   16 A1   17 A1    1 A2   10 B2   18 A1   11 B1    2 A2                 
  0.343   0.359   0.363   0.374   0.381   0.397   0.411   0.434
 11 B2   19 A1   12 B1   13 B1   20 A1   12 B2   13 B2   21 A1                 
  0.439   0.471   0.507   0.508   0.541   0.562   0.593   0.618
 22 A1   14 B1   23 A1   15 B1   24 A1   14 B2   25 A1   16 B1                 
  0.619   0.644   0.703   0.714   0.758   0.765   0.786   0.894
  3 A2   17 B1   26 A1   27 A1   15 B2    4 A2   28 A1   18 B1                 
  0.966   0.979   0.989   1.092   1.111   1.126   1.145   1.185
 29 A1   16 B2   30 A1   19 B1   17 B2   31 A1   20 B1   18 B2                 
  1.250   1.285   1.330   1.567   1.592   1.635   1.699   1.705
 32 A1   21 B1   33 A1   34 A1   22 B1   35 A1   19 B2    5 A2                 
  1.849   1.856   1.873   1.874   1.875   1.877   1.947   1.998
  6 A2   36 A1   23 B1   20 B2   37 A1   24 B1   21 B2   22 B2                 
  1.999   2.012   2.079   2.092   2.291   2.328   2.419   2.526
 38 A1   25 B1    7 A2   39 A1   26 B1   40 A1   23 B2    8 A2                 
  2.602   2.686   2.713   2.771   2.929   2.950   3.504   3.709
 41 A1   27 B1   42 A1   43 A1   28 B1   44 A1   29 B1   45 A1                 
 --------------------------------------------------------------
 
          Ground-State Mulliken Net Atomic Charges

     Atom                 Charge (a.u.)
  ----------------------------------------
      1 C                     0.188305
      2 C                    -0.634901
      3 H                     0.033461
      4 H                     0.043434
      5 H                     0.033461
      6 H                     0.043434
      7 H                    -0.707194
  ----------------------------------------
  Sum of atomic charges =    -1.000000

 -----------------------------------------------------------------
                    Cartesian Multipole Moments
 -----------------------------------------------------------------
    Charge (ESU x 10^10)
                -4.8032
    Dipole Moment (Debye)
         X      -0.0000      Y      -0.0000      Z      42.5880
       Tot      42.5880
    Quadrupole Moments (Debye-Ang)
        XX     -34.7799     XY       0.0000     YY     -38.9641
        XZ       0.0000     YZ       0.0000     ZZ    -454.9863
    Octopole Moments (Debye-Ang^2)
       XXX      -0.0000    XXY      -0.0000    XYY      -0.0000
       YYY      -0.0000    XXZ      86.6450    XYZ      -0.0000
       YYZ      84.0845    XZZ      -0.0000    YZZ      -0.0000
       ZZZ    4344.4938
    Hexadecapole Moments (Debye-Ang^3)
      XXXX    -953.3996   XXXY      -0.0000   XXYY    -317.8133
      XYYY      -0.0000   YYYY    -948.4427   XXXZ      -0.0000
      XXYZ       0.0000   XYYZ      -0.0000   YYYZ       0.0000
      XXZZ   -1227.5795   XYZZ      -0.0000   YYZZ   -1231.1840
      XZZZ       0.0000   YZZZ       0.0000   ZZZZ  -45459.1708
 -----------------------------------------------------------------
 Total job time:  1598.03s(wall), 9326.78s(cpu) 
 Mon Mar 28 03:24:26 2022

        *************************************************************
        *                                                           *
        *  Thank you very much for using Q-Chem.  Have a nice day.  *
        *                                                           *
        *************************************************************


