                  Welcome to Q-Chem
     A Quantum Leap Into The Future Of Chemistry


 Q-Chem 5.4 (devel), Q-Chem, Inc., Pleasanton, CA (2021)

 E. Epifanovsky,  A. T. B. Gilbert,  Xintian Feng,  Joonho Lee,  Yuezhi Mao,  
 N. Mardirossian,  P. Pokhilko,  A. White,  M. Wormit,  M. P. Coons,  
 A. L. Dempwolff,  Zhengting Gan,  D. Hait,  P. R. Horn,  L. D. Jacobson,  
 I. Kaliman,  J. Kussmann,  A. W. Lange,  Ka Un Lao,  D. S. Levine,  Jie Liu,  
 S. C. McKenzie,  A. F. Morrison,  K. Nanda,  F. Plasser,  D. R. Rehn,  
 M. L. Vidal,  Zhi-Qiang You,  Ying Zhu,  B. Alam,  B. Albrecht,  
 A. Aldossary,  E. Alguire,  J. H. Andersen,  D. Barton,  K. Begam,  A. Behn,  
 Y. A. Bernard,  E. J. Berquist,  H. Burton,  A. Carreras,  K. Carter-Fenk,  
 R. Chakraborty,  A. D. Chien,  K. D. Closser,  V. Cofer-Shabica,  
 S. Dasgupta,  Jia Deng,  M. de Wergifosse,  M. Diedenhofen,  Hainam Do,  
 S. Ehlert,  Po-Tung Fang,  S. Fatehi,  Qingguo Feng,  T. Friedhoff,  
 J. Gayvert,  Qinghui Ge,  G. Gidofalvi,  M. Goldey,  J. Gomes,  
 C. Gonzalez-Espinoza,  S. Gulania,  A. Gunina,  M. W. D. Hanson-Heine,  
 P. H. P. Harbach,  A. W. Hauser,  M. F. Herbst,  M. Hernandez Vera,  
 M. Hodecker,  Z. C. Holden,  S. Houck,  Xunkun Huang,  Kerwin Hui,  
 B. C. Huynh,  M. Ivanov,  Hyunjun Ji,  Hanjie Jiang,  B. Kaduk,  S. Kaehler,  
 K. Khistyaev,  Jaehoon Kim,  P. Klunzinger,  Z. Koczor-Benda,  
 Joong Hoon Koh,  D. Kosenkov,  L. Koulias,  T. Kowalczyk,  C. M. Krauter,  
 K. Kue,  A. Kunitsa,  T. Kus,  A. Landau,  K. V. Lawler,  D. Lefrancois,  
 S. Lehtola,  Rain Li,  Yi-Pei Li,  Jiashu Liang,  M. Liebenthal,  
 Hung-Hsuan Lin,  You-Sheng Lin,  Fenglai Liu,  Kuan-Yu Liu,  
 M. Loipersberger,  A. Luenser,  A. Manjanath,  P. Manohar,  E. Mansoor,  
 S. F. Manzer,  Shan-Ping Mao,  A. V. Marenich,  T. Markovich,  S. Mason,  
 S. A. Maurer,  P. F. McLaughlin,  M. F. S. J. Menger,  J.-M. Mewes,  
 S. A. Mewes,  P. Morgante,  J. W. Mullinax,  K. J. Oosterbaan,  G. Paran,  
 Alexander C. Paul,  Suranjan K. Paul,  F. Pavosevic,  Zheng Pei,  S. Prager,  
 E. I. Proynov,  E. Ramos,  B. Rana,  A. E. Rask,  A. Rettig,  R. M. Richard,  
 F. Rob,  E. Rossomme,  T. Scheele,  M. Scheurer,  M. Schneider,  
 N. Sergueev,  S. M. Sharada,  W. Skomorowski,  D. W. Small,  C. J. Stein,  
 Yu-Chuan Su,  E. J. Sundstrom,  Zhen Tao,  J. Thirman,  T. Tsuchimochi,  
 N. M. Tubman,  S. P. Veccham,  O. Vydrov,  J. Wenzel,  J. Witte,  A. Yamada,  
 Kun Yao,  S. Yeganeh,  S. R. Yost,  A. Zech,  Igor Ying Zhang,  Xing Zhang,  
 Yu Zhang,  D. Zuev,  A. Aspuru-Guzik,  A. T. Bell,  N. A. Besley,  
 K. B. Bravaya,  B. R. Brooks,  D. Casanova,  Jeng-Da Chai,  S. Coriani,  
 C. J. Cramer,  A. E. DePrince, III,  R. A. DiStasio Jr.,  A. Dreuw,  
 B. D. Dunietz,  T. R. Furlani,  W. A. Goddard III,  S. Grimme,  
 S. Hammes-Schiffer,  T. Head-Gordon,  W. J. Hehre,  Chao-Ping Hsu,  
 T.-C. Jagau,  Yousung Jung,  A. Klamt,  Jing Kong,  D. S. Lambrecht,  
 WanZhen Liang,  N. J. Mayhall,  C. W. McCurdy,  J. B. Neaton,  
 C. Ochsenfeld,  J. A. Parkhill,  R. Peverati,  V. A. Rassolov,  Yihan Shao,  
 L. V. Slipchenko,  T. Stauch,  R. P. Steele,  J. E. Subotnik,  
 A. J. W. Thom,  A. Tkatchenko,  D. G. Truhlar,  T. Van Voorhis,  
 T. A. Wesolowski,  K. B. Whaley,  H. L. Woodcock III,  P. M. Zimmerman,  
 S. Faraji,  P. M. W. Gill,  M. Head-Gordon,  J. M. Herbert,  A. I. Krylov

 Additional authors for Version 5.4.1: 
 S. Kotaru,  Shaozhi Li,  Xiangyuan Li,  F. Matz,  A. Molle,  Haisheng Ren,  
 Yingli Su,  Hung-Yi Tsai,  C. Utku,  Fang Wang

 Contributors to earlier versions of Q-Chem not listed above: 
 R. D. Adamson,  B. Austin,  R. Baer,  J. Baker,  G. J. O. Beran,  
 K. Brandhorst,  S. T. Brown,  E. F. C. Byrd,  A. K. Chakraborty,  
 G. K. L. Chan,  Chun-Min Chang,  Yunqing Chen,  C.-L. Cheng,  
 Siu Hung Chien,  D. M. Chipman,  D. L. Crittenden,  H. Dachsel,  
 R. J. Doerksen,  A. D. Dutoi,  R. G. Edgar,  J. Fosso-Tande,  
 L. Fusti-Molnar,  D. Ghosh,  A. Ghysels,  A. Golubeva-Zadorozhnaya,  
 J. Gonthier,  M. S. Gordon,  S. R. Gwaltney,  G. Hawkins,  J. E. Herr,  
 A. Heyden,  S. Hirata,  E. G. Hohenstein,  G. Kedziora,  F. J. Keil,  
 C. Kelley,  Jihan Kim,  R. A. King,  R. Z. Khaliullin,  P. P. Korambath,  
 W. Kurlancheek,  A. Laurent,  A. M. Lee,  M. S. Lee,  S. V. Levchenko,  
 Ching Yeh Lin,  D. Liotard,  E. Livshits,  R. C. Lochan,  I. Lotan,  
 L. A. Martinez-Martinez,  P. E. Maslen,  N. Nair,  D. P. O'Neill,  
 D. Neuhauser,  E. Neuscamman,  C. M. Oana,  R. Olivares-Amaya,  R. Olson,  
 T. M. Perrine,  B. Peters,  P. A. Pieniazek,  A. Prociuk,  Y. M. Rhee,  
 J. Ritchie,  M. A. Rohrdanz,  E. Rosta,  N. J. Russ,  H. F. Schaefer III,  
 M. W. Schmidt,  N. E. Schultz,  S. Sharma,  N. Shenvi,  C. D. Sherrill,  
 A. C. Simmonett,  A. Sodt,  T. Stein,  D. Stuck,  K. S. Thanthiriwatte,  
 V. Vanovschi,  L. Vogt,  Tao Wang,  A. Warshel,  M. A. Watson,  
 C. F. Williams,  Q. Wu,  X. Xu,  Jun Yang,  W. Zhang,  Yan Zhao

 Please cite Q-Chem as follows:
 Y. Shao et al., Mol. Phys. 113, 184-215 (2015)
 DOI: 10.1080/00268976.2014.952696

 Q-Chem 5.4.1 for Intel X86 EM64T Linux

 Parts of Q-Chem use Armadillo 9.900.5 (Nocturnal Misbehaviour).
 http://arma.sourceforge.net/

 Q-Chem begins on Thu Jan 20 16:25:54 2022  

 Host: node01
0

     Scratch files written to /src/jdavis/qchem.scratch/qchem16110//
 Processing $rem in /src/tsommerfeld/qchem/config/preferences:
 Processing $rem in /home/jdavis/.qchemrc:

 Checking the input file for inconsistencies... 	...done.

--------------------------------------------------------------
User input:
--------------------------------------------------------------
#ethylene geometry from CRC Handbook 102nd Edition
$molecule
   0 1
   C1
   C2 C1 Rcc
   H1 C1 Rch C2 Acch
   H2 C1 Rch C2 Acch H1 180
   H3 C2 Rch C1 Acch H1 180
   H4 C2 Rch C1 Acch H2 180

   Rcc = 1.329
   Rch = 1.082
   Acch = 117.2 
$end

$rem
   METHOD adc(2)
   BASIS cc-pvdz
   EA_STATES [0,0,3,0,0,0,0,0] #B2g?
$end

--------------------------------------------------------------
 ----------------------------------------------------------------
             Standard Nuclear Orientation (Angstroms)
    I     Atom           X                Y                Z
 ----------------------------------------------------------------
    1      C       0.6645000000    -0.0000000000    -0.0000000000
    2      C      -0.6645000000     0.0000000000     0.0000000000
    3      H       1.1590799571     0.9623485159     0.0000000000
    4      H       1.1590799571    -0.9623485159    -0.0000000000
    5      H      -1.1590799571    -0.9623485159    -0.0000000000
    6      H      -1.1590799571     0.9623485159     0.0000000000
 ----------------------------------------------------------------
 Molecular Point Group                 D2h   NOp =  8
 Largest Abelian Subgroup              D2h   NOp =  8
 Nuclear Repulsion Energy =          33.58921683 hartrees
 There are        8 alpha and        8 beta electrons
 Requested basis set is cc-pVDZ
 There are 24 shells and 48 basis functions
 Total memory of 2000 MB is distributed as follows: 
   MEM_STATIC is set to 192 MB
   QALLOC/CCMAN JOB total memory use is  1808 MB
 Warning: actual memory use might exceed 2000 MB

 Total QAlloc Memory Limit   2000 MB
 Mega-Array Size       188 MB
 MEM_STATIC part       192 MB

                       Distance Matrix (Angstroms)
             C (  1)   C (  2)   H (  3)   H (  4)   H (  5)
   C (  2)  1.329000
   H (  3)  1.082000  2.061931
   H (  4)  1.082000  2.061931  1.924697
   H (  5)  2.061931  1.082000  3.013026  2.318160
   H (  6)  2.061931  1.082000  2.318160  3.013026  1.924697
 
 A cutoff of  1.0D-11 yielded    300 shell pairs
 There are      1220 function pairs (      1329 Cartesian)
 Smallest overlap matrix eigenvalue = 4.70E-03

 Scale SEOQF with 1.000000e+00/1.000000e+00/1.000000e+00

 Standard Electronic Orientation quadrupole field applied
 Nucleus-field energy     =     0.0000000065 hartrees
 Guess from superposition of atomic densities
 Warning:  Energy on first SCF cycle will be non-variational
 SAD guess density has 16.000000 electrons
 A restricted Hartree-Fock SCF calculation will be
 performed using Pulay DIIS extrapolation
 SCF converges when DIIS error is below 1.0E-08
 ---------------------------------------
  Cycle       Energy         DIIS Error
 ---------------------------------------
    1     -78.4567404641      1.02E-01
    2     -78.0132092006      7.34E-03
    3     -78.0340484956      1.88E-03
    4     -78.0355548499      6.02E-04
    5     -78.0356886084      5.65E-05
    6     -78.0356904645      8.83E-06
    7     -78.0356905206      1.92E-06
    8     -78.0356905233      1.73E-07
    9     -78.0356905233      1.80E-08
   10     -78.0356905233      2.52E-09 Convergence criterion met
 ---------------------------------------
 SCF time:  CPU 0.25 s  wall 0.26 s
 SCF   energy in the final basis set = -78.03569052
 Total energy in the final basis set = -78.03569052
================================================================================
|                                                                              |
|                                 A D C  M A N                                 |
|                                                                              |
 ------------------------------------------------------------------------------ 
|                                                                              |
| Components:                                                                  |
|                                                                              |
| - libvmm - 1.3-trunk                                                         |
|   Authors:                                                                   |
|   Evgeny Epifanovsky, Ilya Kaliman                                           |
|                                                                              |
| - libtensor - 2.5-trunk                                                      |
|   Authors:                                                                   |
|   Evgeny Epifanovsky, Michael Wormit, Dmitry Zuev, Sam Manzer,               |
|   Ilya Kaliman                                                               |
|                                                                              |
| - libwfa - 1.1-trunk                                                         |
|   Authors:                                                                   |
|   Felix Plasser, Stefanie Mewes (Baeppler), Benjamin Thomitzni,              |
|   Michael Wormit, Feng Chen, Anna I. Krylov, Pavel Pokhilko                  |
|                                                                              |
| - libadc - 1.1-trunk                                                         |
|   Authors:                                                                   |
|   Michael Wormit, Adrian L. Dempwolff, Philipp H. P. Harbach,                |
|   Caroline Krauter, Dirk Rehn, Matthias Schneider, Jan Wenzel                |
|                                                                              |
| - adcman - 2.6-trunk                                                         |
|   Authors:                                                                   |
|   Michael Wormit, Adrian L. Dempwolff, Philipp H. P. Harbach,                |
|   Caroline Krauter, Daniel Lefrancois, Jan-Michael Mewes, Dirk Rehn,         |
|   Matthias Schneider, Jan Wenzel, Andreas Dreuw                              |
|                                                                              |
| Authors of earlier versions of ADCMAN:                                       |
| Andreas Dreuw, Jan Hendrik Starcke, Dirk Rehn, Michael Wormit                |
|                                                                              |
================================================================================

 
 Alpha MOs, Restricted
 -- Occupied --                  
-11.232 -11.230  -1.037  -0.778  -0.656  -0.563  -0.512  -0.374
  1 Ag    1 B3u   2 Ag    2 B3u   1 B2u   3 Ag    1 B1g   1 B1u                
 -- Virtual --                   
  0.171   0.200   0.229   0.247   0.303   0.446   0.559   0.655
  1 B2g   4 Ag    2 B2u   3 B3u   2 B1g   4 B3u   5 Ag    3 B2u                
  0.689   0.700   0.793   0.809   0.865   0.940   0.966   1.003
  2 B1u   6 Ag    5 B3u   2 B2g   4 B2u   3 B1g   6 B3u   7 Ag                 
  1.118   1.236   1.286   1.288   1.345   1.598   1.616   1.691
  1 B3g   7 B3u   3 B1u   1 Au    4 B1g   8 Ag    5 B1g   5 B2u                
  1.830   1.879   1.920   1.934   1.989   2.021   2.170   2.266
  3 B2g   8 B3u   9 Ag    4 B1u   6 B2u   2 B3g   4 B2g   9 B3u                
  2.416   2.417   2.491   2.533   2.790   2.792   3.230   3.341
  2 Au   10 Ag    6 B1g  10 B3u   7 B2u  11 Ag   11 B3u   7 B1g                
 
 Beta MOs, Restricted
 -- Occupied --                  
-11.232 -11.230  -1.037  -0.778  -0.656  -0.563  -0.512  -0.374
  1 Ag    1 B3u   2 Ag    2 B3u   1 B2u   3 Ag    1 B1g   1 B1u                
 -- Virtual --                   
  0.171   0.200   0.229   0.247   0.303   0.446   0.559   0.655
  1 B2g   4 Ag    2 B2u   3 B3u   2 B1g   4 B3u   5 Ag    3 B2u                
  0.689   0.700   0.793   0.809   0.865   0.940   0.966   1.003
  2 B1u   6 Ag    5 B3u   2 B2g   4 B2u   3 B1g   6 B3u   7 Ag                 
  1.118   1.236   1.286   1.288   1.345   1.598   1.616   1.691
  1 B3g   7 B3u   3 B1u   1 Au    4 B1g   8 Ag    5 B1g   5 B2u                
  1.830   1.879   1.920   1.934   1.989   2.021   2.170   2.266
  3 B2g   8 B3u   9 Ag    4 B1u   6 B2u   2 B3g   4 B2g   9 B3u                
  2.416   2.417   2.491   2.533   2.790   2.792   3.230   3.341
  2 Au   10 Ag    6 B1g  10 B3u   7 B2u  11 Ag   11 B3u   7 B1g                

--------------------------------------------------------------------------------
                                   HF Summary                                   
--------------------------------------------------------------------------------
  Energy:                                                  -78.0356905233 a.u.
  Dip. moment [a.u.]:                  [  -0.000000,   -0.000000,   -0.000000]
  Total dipole [Debye]:                                               0.000000
  <r^2> [a.u.]:                        [  47.650187,   22.044368,   11.574667]
  Total <r^2> [a.u.]:                                                81.269222
--------------------------------------------------------------------------------

--------------------------------------------------------------------------------
                                 MP(2) Summary                                  
--------------------------------------------------------------------------------
  MP energy contribution:                                   -0.2800943568 a.u.
  Total energy:                                            -78.3157848801 a.u.
  Dip. moment [a.u.]:                  [   0.000000,   -0.000000,   -0.000000]
  Total dipole [Debye]:                                               0.000000
  <r^2> [a.u.]:                        [  47.731745,   22.059409,   11.406646]
  Total <r^2> [a.u.]:                                                81.197799
--------------------------------------------------------------------------------
  Starting Davidson for electron-attached states of irrep B2g ... 
--------------------------------------------------------------------------------
   It NVec Conv  Avg. Norm  Max. Norm  Conv. states           Remark
--------------------------------------------------------------------------------
         3    0  2.251e-01  4.290e-01  0.2014 n n n           Guess.
    1    6    0  1.025e-01  2.932e-01  0.1186 n n n           
    2    9    0  2.988e-03  8.590e-03  0.1182 n n n           
    3   12    0  9.483e-05  2.778e-04  0.1182 n n n           
    4   15    0  4.455e-03  1.336e-02  0.1182 n n n           
    5    6    2  7.746e-04  2.324e-03  0.1182 y y n           Subspace collapsed.
    6    9    2  6.815e-04  2.045e-03  0.1182 y y n           
    7   12    2  6.364e-04  1.909e-03  0.1182 y y n           
    8   15    2  5.715e-05  1.714e-04  0.1182 y y n           
    9    5    2  1.073e-05  3.218e-05  0.1182 y y n           Subspace collapsed.
   10    6    2  1.152e-05  3.456e-05  0.1182 y y n           
   11    7    2  9.801e-06  2.940e-05  0.1182 y y n           
   12    8    2  1.424e-06  4.272e-06  0.1182 y y n           
   13    9    3  2.386e-07  7.159e-07  0.1182 y y y           Converged.
--------------------------------------------------------------------------------
  Davidson Summary: 
 ------------------------------------------------------------
  State  0: electron attachment energy =   0.1182 a.u.   (converged)
  State  1: electron attachment energy =   0.6911 a.u.   (converged)
  State  2: electron attachment energy =   0.8205 a.u.   (converged)
 ------------------------------------------------------------


--------------------------------------------------------------------------------
                        Electron-Attached State Summary
--------------------------------------------------------------------------------

  Electron-attached state 1 (B2g)                                  [converged]
  ----------------------------------------------------------------------------
  Term symbol:  1 (2) B2g                                   R^2 =  3.15441e-13

  Total energy:                                            -78.1976289489 a.u.
  Electron attachment energy:                                      3.215186 eV

  Pole strength:                                                      0.928559


  V1^2 = 0.9472, V2^2 = 0.0528

  Important amplitudes:
       occ i       vir a        vir b           v   
    -------------------------------------------------
                               1 (B2g) B     -0.9709
                               2 (B2g) B     -0.0671
    -------------------------------------------------
  ----------------------------------------------------------------------------


  Electron-attached state 2 (B2g)                                  [converged]
  ----------------------------------------------------------------------------
  Term symbol:  2 (2) B2g                                   R^2 =  6.23395e-14

  Total energy:                                            -77.6247067282 a.u.
  Electron attachment energy:                                     18.805193 eV

  Pole strength:                                                      0.880319


  V1^2 = 0.8826, V2^2 = 0.1174

  Important amplitudes:
       occ i       vir a        vir b           v   
    -------------------------------------------------
                               2 (B2g) B     -0.9312
                               1 (B2g) B      0.1217
    -------------------------------------------------
  ----------------------------------------------------------------------------


  Electron-attached state 3 (B2g)                                  [converged]
  ----------------------------------------------------------------------------
  Term symbol:  3 (2) B2g                                   R^2 =  7.15886e-07

  Total energy:                                            -77.4952386881 a.u.
  Electron attachment energy:                                     22.328197 eV

  Pole strength:                                                      0.000012


  V1^2 = 0.0000, V2^2 = 1.0000

  Important amplitudes:
       occ i       vir a        vir b           v   
    -------------------------------------------------
     1 (B1u) B    4 (Ag ) B    3 (B3u) B     -0.5754
     1 (B1u) A    4 (Ag ) A    3 (B3u) B     -0.3290
    -------------------------------------------------
  ----------------------------------------------------------------------------


--------------------------------------------------------------------------------
  Time of ADC calculation:  CPU 11.68 s  wall 11.72 s
================================================================================
 
 --------------------------------------------------------------
             Orbital Energies (a.u.) and Symmetries
 --------------------------------------------------------------
 
 Alpha MOs, Restricted
 -- Occupied --                  
-11.232 -11.230  -1.037  -0.778  -0.656  -0.563  -0.512  -0.374
  1 Ag    1 B3u   2 Ag    2 B3u   1 B2u   3 Ag    1 B1g   1 B1u                
 -- Virtual --                   
  0.171   0.200   0.229   0.247   0.303   0.446   0.559   0.655
  1 B2g   4 Ag    2 B2u   3 B3u   2 B1g   4 B3u   5 Ag    3 B2u                
  0.689   0.700   0.793   0.809   0.865   0.940   0.966   1.003
  2 B1u   6 Ag    5 B3u   2 B2g   4 B2u   3 B1g   6 B3u   7 Ag                 
  1.118   1.236   1.286   1.288   1.345   1.598   1.616   1.691
  1 B3g   7 B3u   3 B1u   1 Au    4 B1g   8 Ag    5 B1g   5 B2u                
  1.830   1.879   1.920   1.934   1.989   2.021   2.170   2.266
  3 B2g   8 B3u   9 Ag    4 B1u   6 B2u   2 B3g   4 B2g   9 B3u                
  2.416   2.417   2.491   2.533   2.790   2.792   3.230   3.341
  2 Au   10 Ag    6 B1g  10 B3u   7 B2u  11 Ag   11 B3u   7 B1g                
 
 Beta MOs, Restricted
 -- Occupied --                  
-11.232 -11.230  -1.037  -0.778  -0.656  -0.563  -0.512  -0.374
  1 Ag    1 B3u   2 Ag    2 B3u   1 B2u   3 Ag    1 B1g   1 B1u                
 -- Virtual --                   
  0.171   0.200   0.229   0.247   0.303   0.446   0.559   0.655
  1 B2g   4 Ag    2 B2u   3 B3u   2 B1g   4 B3u   5 Ag    3 B2u                
  0.689   0.700   0.793   0.809   0.865   0.940   0.966   1.003
  2 B1u   6 Ag    5 B3u   2 B2g   4 B2u   3 B1g   6 B3u   7 Ag                 
  1.118   1.236   1.286   1.288   1.345   1.598   1.616   1.691
  1 B3g   7 B3u   3 B1u   1 Au    4 B1g   8 Ag    5 B1g   5 B2u                
  1.830   1.879   1.920   1.934   1.989   2.021   2.170   2.266
  3 B2g   8 B3u   9 Ag    4 B1u   6 B2u   2 B3g   4 B2g   9 B3u                
  2.416   2.417   2.491   2.533   2.790   2.792   3.230   3.341
  2 Au   10 Ag    6 B1g  10 B3u   7 B2u  11 Ag   11 B3u   7 B1g                
 --------------------------------------------------------------
 
          Ground-State Mulliken Net Atomic Charges

     Atom                 Charge (a.u.)
  ----------------------------------------
      1 C                    -0.094232
      2 C                    -0.094232
      3 H                     0.047116
      4 H                     0.047116
      5 H                     0.047116
      6 H                     0.047116
  ----------------------------------------
  Sum of atomic charges =     0.000000

 -----------------------------------------------------------------
                    Cartesian Multipole Moments
 -----------------------------------------------------------------
    Charge (ESU x 10^10)
                -0.0000
    Dipole Moment (Debye)
         X      -0.0000      Y      -0.0000      Z      -0.0000
       Tot       0.0000
    Quadrupole Moments (Debye-Ang)
        XX     -12.8285     XY       0.0000     YY     -11.8572
        XZ       0.0000     YZ      -0.0000     ZZ     -15.5683
    Octopole Moments (Debye-Ang^2)
       XXX      -0.0000    XXY      -0.0000    XYY      -0.0000
       YYY      -0.0000    XXZ      -0.0000    XYZ       0.0000
       YYZ      -0.0000    XZZ      -0.0000    YZZ      -0.0000
       ZZZ      -0.0000
    Hexadecapole Moments (Debye-Ang^3)
      XXXX     -67.1446   XXXY       0.0000   XXYY     -13.0587
      XYYY       0.0000   YYYY     -26.1580   XXXZ       0.0000
      XXYZ      -0.0000   XYYZ       0.0000   YYYZ      -0.0000
      XXZZ     -14.5575   XYZZ       0.0000   YYZZ      -8.1440
      XZZZ       0.0000   YZZZ      -0.0000   ZZZZ     -17.6110
 -----------------------------------------------------------------
 Total job time:  12.62s(wall), 12.57s(cpu) 
 Thu Jan 20 16:26:07 2022

        *************************************************************
        *                                                           *
        *  Thank you very much for using Q-Chem.  Have a nice day.  *
        *                                                           *
        *************************************************************


