/src/tsommerfeld/qchem/exe/qcprog.exe .input0.890909.32257.qcin.1 /src/jdavis/qchem.scratch/qchem32257/

                  Welcome to Q-Chem
     A Quantum Leap Into The Future Of Chemistry


 Q-Chem 5.4 (devel), Q-Chem, Inc., Pleasanton, CA (2021)

 E. Epifanovsky,  A. T. B. Gilbert,  Xintian Feng,  Joonho Lee,  Yuezhi Mao,  
 N. Mardirossian,  P. Pokhilko,  A. White,  M. Wormit,  M. P. Coons,  
 A. L. Dempwolff,  Zhengting Gan,  D. Hait,  P. R. Horn,  L. D. Jacobson,  
 I. Kaliman,  J. Kussmann,  A. W. Lange,  Ka Un Lao,  D. S. Levine,  Jie Liu,  
 S. C. McKenzie,  A. F. Morrison,  K. Nanda,  F. Plasser,  D. R. Rehn,  
 M. L. Vidal,  Zhi-Qiang You,  Ying Zhu,  B. Alam,  B. Albrecht,  
 A. Aldossary,  E. Alguire,  J. H. Andersen,  D. Barton,  K. Begam,  A. Behn,  
 Y. A. Bernard,  E. J. Berquist,  H. Burton,  A. Carreras,  K. Carter-Fenk,  
 R. Chakraborty,  A. D. Chien,  K. D. Closser,  V. Cofer-Shabica,  
 S. Dasgupta,  Jia Deng,  M. de Wergifosse,  M. Diedenhofen,  Hainam Do,  
 S. Ehlert,  Po-Tung Fang,  S. Fatehi,  Qingguo Feng,  T. Friedhoff,  
 J. Gayvert,  Qinghui Ge,  G. Gidofalvi,  M. Goldey,  J. Gomes,  
 C. Gonzalez-Espinoza,  S. Gulania,  A. Gunina,  M. W. D. Hanson-Heine,  
 P. H. P. Harbach,  A. W. Hauser,  M. F. Herbst,  M. Hernandez Vera,  
 M. Hodecker,  Z. C. Holden,  S. Houck,  Xunkun Huang,  Kerwin Hui,  
 B. C. Huynh,  M. Ivanov,  Hyunjun Ji,  Hanjie Jiang,  B. Kaduk,  S. Kaehler,  
 K. Khistyaev,  Jaehoon Kim,  P. Klunzinger,  Z. Koczor-Benda,  
 Joong Hoon Koh,  D. Kosenkov,  L. Koulias,  T. Kowalczyk,  C. M. Krauter,  
 K. Kue,  A. Kunitsa,  T. Kus,  A. Landau,  K. V. Lawler,  D. Lefrancois,  
 S. Lehtola,  Rain Li,  Yi-Pei Li,  Jiashu Liang,  M. Liebenthal,  
 Hung-Hsuan Lin,  You-Sheng Lin,  Fenglai Liu,  Kuan-Yu Liu,  
 M. Loipersberger,  A. Luenser,  A. Manjanath,  P. Manohar,  E. Mansoor,  
 S. F. Manzer,  Shan-Ping Mao,  A. V. Marenich,  T. Markovich,  S. Mason,  
 S. A. Maurer,  P. F. McLaughlin,  M. F. S. J. Menger,  J.-M. Mewes,  
 S. A. Mewes,  P. Morgante,  J. W. Mullinax,  K. J. Oosterbaan,  G. Paran,  
 Alexander C. Paul,  Suranjan K. Paul,  F. Pavosevic,  Zheng Pei,  S. Prager,  
 E. I. Proynov,  E. Ramos,  B. Rana,  A. E. Rask,  A. Rettig,  R. M. Richard,  
 F. Rob,  E. Rossomme,  T. Scheele,  M. Scheurer,  M. Schneider,  
 N. Sergueev,  S. M. Sharada,  W. Skomorowski,  D. W. Small,  C. J. Stein,  
 Yu-Chuan Su,  E. J. Sundstrom,  Zhen Tao,  J. Thirman,  T. Tsuchimochi,  
 N. M. Tubman,  S. P. Veccham,  O. Vydrov,  J. Wenzel,  J. Witte,  A. Yamada,  
 Kun Yao,  S. Yeganeh,  S. R. Yost,  A. Zech,  Igor Ying Zhang,  Xing Zhang,  
 Yu Zhang,  D. Zuev,  A. Aspuru-Guzik,  A. T. Bell,  N. A. Besley,  
 K. B. Bravaya,  B. R. Brooks,  D. Casanova,  Jeng-Da Chai,  S. Coriani,  
 C. J. Cramer,  A. E. DePrince, III,  R. A. DiStasio Jr.,  A. Dreuw,  
 B. D. Dunietz,  T. R. Furlani,  W. A. Goddard III,  S. Grimme,  
 S. Hammes-Schiffer,  T. Head-Gordon,  W. J. Hehre,  Chao-Ping Hsu,  
 T.-C. Jagau,  Yousung Jung,  A. Klamt,  Jing Kong,  D. S. Lambrecht,  
 WanZhen Liang,  N. J. Mayhall,  C. W. McCurdy,  J. B. Neaton,  
 C. Ochsenfeld,  J. A. Parkhill,  R. Peverati,  V. A. Rassolov,  Yihan Shao,  
 L. V. Slipchenko,  T. Stauch,  R. P. Steele,  J. E. Subotnik,  
 A. J. W. Thom,  A. Tkatchenko,  D. G. Truhlar,  T. Van Voorhis,  
 T. A. Wesolowski,  K. B. Whaley,  H. L. Woodcock III,  P. M. Zimmerman,  
 S. Faraji,  P. M. W. Gill,  M. Head-Gordon,  J. M. Herbert,  A. I. Krylov

 Additional authors for Version 5.4.1: 
 S. Kotaru,  Shaozhi Li,  Xiangyuan Li,  F. Matz,  A. Molle,  Haisheng Ren,  
 Yingli Su,  Hung-Yi Tsai,  C. Utku,  Fang Wang

 Contributors to earlier versions of Q-Chem not listed above: 
 R. D. Adamson,  B. Austin,  R. Baer,  J. Baker,  G. J. O. Beran,  
 K. Brandhorst,  S. T. Brown,  E. F. C. Byrd,  A. K. Chakraborty,  
 G. K. L. Chan,  Chun-Min Chang,  Yunqing Chen,  C.-L. Cheng,  
 Siu Hung Chien,  D. M. Chipman,  D. L. Crittenden,  H. Dachsel,  
 R. J. Doerksen,  A. D. Dutoi,  R. G. Edgar,  J. Fosso-Tande,  
 L. Fusti-Molnar,  D. Ghosh,  A. Ghysels,  A. Golubeva-Zadorozhnaya,  
 J. Gonthier,  M. S. Gordon,  S. R. Gwaltney,  G. Hawkins,  J. E. Herr,  
 A. Heyden,  S. Hirata,  E. G. Hohenstein,  G. Kedziora,  F. J. Keil,  
 C. Kelley,  Jihan Kim,  R. A. King,  R. Z. Khaliullin,  P. P. Korambath,  
 W. Kurlancheek,  A. Laurent,  A. M. Lee,  M. S. Lee,  S. V. Levchenko,  
 Ching Yeh Lin,  D. Liotard,  E. Livshits,  R. C. Lochan,  I. Lotan,  
 L. A. Martinez-Martinez,  P. E. Maslen,  N. Nair,  D. P. O'Neill,  
 D. Neuhauser,  E. Neuscamman,  C. M. Oana,  R. Olivares-Amaya,  R. Olson,  
 T. M. Perrine,  B. Peters,  P. A. Pieniazek,  A. Prociuk,  Y. M. Rhee,  
 J. Ritchie,  M. A. Rohrdanz,  E. Rosta,  N. J. Russ,  H. F. Schaefer III,  
 M. W. Schmidt,  N. E. Schultz,  S. Sharma,  N. Shenvi,  C. D. Sherrill,  
 A. C. Simmonett,  A. Sodt,  T. Stein,  D. Stuck,  K. S. Thanthiriwatte,  
 V. Vanovschi,  L. Vogt,  Tao Wang,  A. Warshel,  M. A. Watson,  
 C. F. Williams,  Q. Wu,  X. Xu,  Jun Yang,  W. Zhang,  Yan Zhao

 Please cite Q-Chem as follows:
 Y. Shao et al., Mol. Phys. 113, 184-215 (2015)
 DOI: 10.1080/00268976.2014.952696

 Q-Chem 5.4.1 for Intel X86 EM64T Linux

 Parts of Q-Chem use Armadillo 9.900.5 (Nocturnal Misbehaviour).
 http://arma.sourceforge.net/

 Q-Chem begins on Thu Mar  3 01:53:06 2022  

 Host: node01
0

     Scratch files written to /src/jdavis/qchem.scratch/qchem32257//
 Processing $rem in /src/tsommerfeld/qchem/config/preferences:
 Processing $rem in /home/jdavis/.qchemrc:

 Checking the input file for inconsistencies... 	...done.

--------------------------------------------------------------
User input:
--------------------------------------------------------------
$molecule
-1 1
C        -0.6645000000    0.0000000000    1.1619088658
C         0.6645000000    0.0000000000    1.1619088658
H        -1.1590800000    0.0000000000    0.1995598658
H         1.1590800000    0.0000000000    0.1995598658
H        -1.1590800000    0.0000000000    2.1242568658
H         1.1590800000    0.0000000000    2.1242568658
O         0.0000000000    0.0000000000   -1.5841414040
H         0.0000000000    0.0000000000   -2.5471307683
$end
$rem
   METHOD adc(2)
   BASIS gen
   PURECART 11
   EE_STATES [0,10,0,0]
   scf_convergence 8
   ADC_DAVIDSON_MAXITER 120
   ADC_DAVIDSON_MAXSUBSPACE 200
   adc_nguess_singles 100
   THRESH 14
   S2THRESH 14
   adc_davidson_conv 5
   adc_davidson_thresh 14
   THREADS 10
   MEM_TOTAL 95000
   STATE_ANALYSIS TRUE
$end
$basis
C     1
S    10   1.00
      8.236000D+03           5.310000D-04
      1.235000D+03           4.108000D-03
      2.808000D+02           2.108700D-02
      7.927000D+01           8.185300D-02
      2.559000D+01           2.348170D-01
      8.997000D+00           4.344010D-01
      3.319000D+00           3.461290D-01
      9.059000D-01           3.937800D-02
      3.643000D-01          -8.983000D-03
      1.285000D-01           2.385000D-03
S    1   1.00
      9.059000D-01           1.000000D+00
S    10   1.00
      8.236000D+03          -1.130000D-04
      1.235000D+03          -8.780000D-04
      2.808000D+02          -4.540000D-03
      7.927000D+01          -1.813300D-02
      2.559000D+01          -5.576000D-02
      8.997000D+00          -1.268950D-01
      3.319000D+00          -1.703520D-01
      9.059000D-01           1.403820D-01
      3.643000D-01           5.986840D-01
      1.285000D-01           3.953890D-01
S    1   1.00
      1.285000D-01           1.000000D+00
P    1   1.00
      3.827000D-01           1.000000D+00
P    5   1.00
      1.871000D+01           1.403100D-02
      4.133000D+00           8.686600D-02
      1.200000D+00           2.902160D-01
      3.827000D-01           5.010080D-01
      1.209000D-01           3.434060D-01
P    1   1.00
      1.209000D-01           1.000000D+00
P   1   1.00
      0.0307745      1.0000000
P   1   1.00
      0.0153873      1.0000000
D    1   1.00
      1.097000D+00           1.000000D+00
D    1   1.00
      3.180000D-01           1.000000D+00
F    1   1.00
      7.610000D-01           1.0000000
****
C     2
S    10   1.00
      8.236000D+03           5.310000D-04
      1.235000D+03           4.108000D-03
      2.808000D+02           2.108700D-02
      7.927000D+01           8.185300D-02
      2.559000D+01           2.348170D-01
      8.997000D+00           4.344010D-01
      3.319000D+00           3.461290D-01
      9.059000D-01           3.937800D-02
      3.643000D-01          -8.983000D-03
      1.285000D-01           2.385000D-03
S    1   1.00
      9.059000D-01           1.000000D+00
S    10   1.00
      8.236000D+03          -1.130000D-04
      1.235000D+03          -8.780000D-04
      2.808000D+02          -4.540000D-03
      7.927000D+01          -1.813300D-02
      2.559000D+01          -5.576000D-02
      8.997000D+00          -1.268950D-01
      3.319000D+00          -1.703520D-01
      9.059000D-01           1.403820D-01
      3.643000D-01           5.986840D-01
      1.285000D-01           3.953890D-01
S    1   1.00
      1.285000D-01           1.000000D+00
P    1   1.00
      3.827000D-01           1.000000D+00
P    5   1.00
      1.871000D+01           1.403100D-02
      4.133000D+00           8.686600D-02
      1.200000D+00           2.902160D-01
      3.827000D-01           5.010080D-01
      1.209000D-01           3.434060D-01
P    1   1.00
      1.209000D-01           1.000000D+00
P   1   1.00
      0.0307745      1.0000000
P   1   1.00
      0.0153873      1.0000000
D    1   1.00
      1.097000D+00           1.000000D+00
D    1   1.00
      3.180000D-01           1.000000D+00
F    1   1.00
      7.610000D-01           1.0000000
****
H 3
cc-pVTZ
****
H 4
cc-pVTZ
****
H 5
cc-pVTZ
****
H 6
cc-pVTZ
****
O 7
aug-cc-pVTZ
****
H 8
cc-pVTZ
****
$end
--------------------------------------------------------------
 ----------------------------------------------------------------
             Standard Nuclear Orientation (Angstroms)
    I     Atom           X                Y                Z
 ----------------------------------------------------------------
    1      C      -0.6645000000    -0.0000000000     1.0270977517
    2      C       0.6645000000     0.0000000000     1.0270977517
    3      H      -1.1590800000    -0.0000000000     0.0647487517
    4      H       1.1590800000     0.0000000000     0.0647487517
    5      H      -1.1590800000    -0.0000000000     1.9894457517
    6      H       1.1590800000     0.0000000000     1.9894457517
    7      O       0.0000000000    -0.0000000000    -1.7189525181
    8      H       0.0000000000    -0.0000000000    -2.6819418824
 ----------------------------------------------------------------
 Molecular Point Group                 C2v   NOp =  4
 Largest Abelian Subgroup              C2v   NOp =  4
 Nuclear Repulsion Energy =          64.38561153 hartrees
 There are       13 alpha and       13 beta electrons
 Requested basis set is non-standard
 There are 68 shells and 188 basis functions
 Total memory of 95000 MB is distributed as follows: 
   MEM_STATIC is set to 192 MB
   QALLOC/CCMAN JOB total memory use is  94808 MB
 Warning: actual memory use might exceed 95000 MB

 Total QAlloc Memory Limit  95000 MB
 Mega-Array Size       188 MB
 MEM_STATIC part       192 MB

                       Distance Matrix (Angstroms)
             C (  1)   C (  2)   H (  3)   H (  4)   H (  5)   H (  6)
   C (  2)  1.329000
   H (  3)  1.082000  2.061931
   H (  4)  2.061931  1.082000  2.318160
   H (  5)  1.082000  2.061931  1.924697  3.013026
   H (  6)  2.061931  1.082000  3.013026  1.924697  2.318160
   O (  7)  2.825306  2.825306  2.127218  2.127218  3.885316  3.885316
   H (  8)  3.768094  3.768094  2.981237  2.981237  4.813037  4.813037
             O (  7)
   H (  8)  0.962989
 
 A cutoff of  1.0D-14 yielded   2306 shell pairs
 There are     17662 function pairs (     22530 Cartesian)
 Smallest overlap matrix eigenvalue = 7.14E-04

 Scale SEOQF with 1.000000e-01/1.000000e-01/1.000000e-01

 Standard Electronic Orientation quadrupole field applied
 Nucleus-field energy     =    -0.0000000051 hartrees
 ================ Generating on-the-fly SAD Guess ================
Attempting to make child job directory: /src/jdavis/qchem.scratch/qchem32257//Frg1/
Attempting to make child job directory: /src/jdavis/qchem.scratch/qchem32257//Frg2/
Attempting to make child job directory: /src/jdavis/qchem.scratch/qchem32257//Frg3/
Creating input file /src/jdavis/qchem.scratch/qchem32257/Frg1.input
using default PutDataFrgm: nothing
calling putenv with: QCSCRATCH=/src/jdavis/qchem.scratch/qchem32257/ 
Spawning Job For Fragment 0
Done Job For Fragment 0
calling putenv with: QCSCRATCH=/src/jdavis/qchem.scratch 
calling putenv with: QCTHREADS=1 
Creating input file /src/jdavis/qchem.scratch/qchem32257/Frg2.input
using default PutDataFrgm: nothing
calling putenv with: QCSCRATCH=/src/jdavis/qchem.scratch/qchem32257/ 
Spawning Job For Fragment 1
Done Job For Fragment 1
calling putenv with: QCSCRATCH=/src/jdavis/qchem.scratch 
calling putenv with: QCTHREADS=1 
Creating input file /src/jdavis/qchem.scratch/qchem32257/Frg3.input
using default PutDataFrgm: nothing
calling putenv with: QCSCRATCH=/src/jdavis/qchem.scratch/qchem32257/ 
Spawning Job For Fragment 2
Done Job For Fragment 2
calling putenv with: QCSCRATCH=/src/jdavis/qchem.scratch 
calling putenv with: QCTHREADS=1 
 Time for running child jobs:  CPU 1.71 s  wall 80.64 s
 ============= Method Specific SAD Guess Constructed =============
 Guess from on-the-fly superposition of atomic densities
 Warning: Energy on first SCF cycle will be non-variational
 A restricted Hartree-Fock SCF calculation will be
 performed using Pulay DIIS extrapolation
 SCF converges when DIIS error is below 1.0E-08
 using 10 threads for integral computing
 -------------------------------------------------------
 OpenMP Integral computing Module                
 Release: version 1.0, May 2013, Q-Chem Inc. Pittsburgh 
 -------------------------------------------------------
 ---------------------------------------
  Cycle       Energy         DIIS Error
 ---------------------------------------
    1    -153.5927866955      2.89E-02
    2    -153.3267223513      5.98E-03
    3    -153.3888378635      5.29E-03
    4    -153.4797016135      3.74E-04
    5    -153.4806720643      1.15E-04
    6    -153.4807582465      2.55E-05
    7    -153.4807644437      6.40E-06
    8    -153.4807650145      2.02E-06
    9    -153.4807650786      4.45E-07
   10    -153.4807650812      8.51E-08
   11    -153.4807650814      2.51E-08
   12    -153.4807650814      9.03E-09 Convergence criterion met
 ---------------------------------------
 SCF time:  CPU 55.71 s  wall 5.58 s
 SCF   energy in the final basis set = -153.48076508
 Total energy in the final basis set = -153.48076508
================================================================================
|                                                                              |
|                                 A D C  M A N                                 |
|                                                                              |
 ------------------------------------------------------------------------------ 
|                                                                              |
| Components:                                                                  |
|                                                                              |
| - libvmm - 1.3-trunk                                                         |
|   Authors:                                                                   |
|   Evgeny Epifanovsky, Ilya Kaliman                                           |
|                                                                              |
| - libtensor - 2.5-trunk                                                      |
|   Authors:                                                                   |
|   Evgeny Epifanovsky, Michael Wormit, Dmitry Zuev, Sam Manzer,               |
|   Ilya Kaliman                                                               |
|                                                                              |
| - libwfa - 1.1-trunk                                                         |
|   Authors:                                                                   |
|   Felix Plasser, Stefanie Mewes (Baeppler), Benjamin Thomitzni,              |
|   Michael Wormit, Feng Chen, Anna I. Krylov, Pavel Pokhilko                  |
|                                                                              |
| - libadc - 1.1-trunk                                                         |
|   Authors:                                                                   |
|   Michael Wormit, Adrian L. Dempwolff, Philipp H. P. Harbach,                |
|   Caroline Krauter, Dirk Rehn, Matthias Schneider, Jan Wenzel                |
|                                                                              |
| - adcman - 2.6-trunk                                                         |
|   Authors:                                                                   |
|   Michael Wormit, Adrian L. Dempwolff, Philipp H. P. Harbach,                |
|   Caroline Krauter, Daniel Lefrancois, Jan-Michael Mewes, Dirk Rehn,         |
|   Matthias Schneider, Jan Wenzel, Andreas Dreuw                              |
|                                                                              |
| Authors of earlier versions of ADCMAN:                                       |
| Andreas Dreuw, Jan Hendrik Starcke, Dirk Rehn, Michael Wormit                |
|                                                                              |
================================================================================

 
 Alpha MOs, Restricted
 -- Occupied --                  
-20.202 -11.040 -11.038  -0.928  -0.852  -0.597  -0.473  -0.385
  1 A1    2 A1    1 B1    3 A1    4 A1    2 B1    5 A1    6 A1                 
 -0.329  -0.271  -0.195  -0.131  -0.130
  3 B1    7 A1    1 B2    4 B1    2 B2                                         
 -- Virtual --                   
  0.112   0.121   0.127   0.130   0.139   0.156   0.218   0.231
  5 B1    8 A1    3 B2    1 A2    6 B1    9 A1   10 A1    7 B1                 
  0.250   0.252   0.266   0.268   0.300   0.372   0.393   0.397
  2 A2   11 A1    4 B2    8 B1   12 A1    3 A2    5 B2   13 A1                 
  0.409   0.454   0.463   0.500   0.541   0.564   0.576   0.592
  9 B1   14 A1   10 B1   15 A1   11 B1   16 A1   12 B1   17 A1                 
  0.695   0.750   0.766   0.792   0.796   0.823   0.823   0.865
 18 A1    6 B2   13 B1   19 A1    7 B2   20 A1    4 A2   14 B1                 
  0.867   0.909   0.939   0.958   0.972   0.991   1.024   1.050
 21 A1    5 A2   15 B1   22 A1   23 A1   16 B1    8 B2   17 B1                 
  1.055   1.078   1.095   1.143   1.200   1.220   1.251   1.307
  6 A2    9 B2   18 B1   24 A1   25 A1   19 B1   10 B2   26 A1                 
  1.397   1.402   1.419   1.462   1.463   1.552   1.558   1.566
  7 A2   11 B2   20 B1   27 A1   12 B2   28 A1   21 B1    8 A2                 
  1.606   1.606   1.646   1.667   1.698   1.828   1.829   1.842
 13 B2   29 A1   30 A1   22 B1   23 B1   31 A1    9 A2   24 B1                 
  1.888   1.978   2.097   2.102   2.135   2.228   2.407   2.425
 25 B1   32 A1   33 A1   26 B1   34 A1   27 B1   14 B2   10 A2                 
  2.475   2.482   2.494   2.512   2.533   2.541   2.553   2.654
 28 B1   15 B2   35 A1   36 A1   11 A2   29 B1   37 A1   16 B2                 
  2.744   2.750   2.754   2.783   2.810   2.856   2.955   2.956
 38 A1   17 B2   39 A1   12 A2   30 B1   40 A1   18 B2   41 A1                 
  2.996   3.088   3.113   3.174   3.293   3.312   3.322   3.338
 31 B1   32 B1   42 A1   19 B2   20 B2   21 B2   43 A1   44 A1                 
  3.361   3.433   3.490   3.491   3.505   3.604   3.626   3.626
 13 A2   14 A2   33 B1   45 A1   34 B1   15 A2   16 A2   35 B1                 
  3.665   3.696   3.712   3.735   3.809   3.847   3.960   4.037
 36 B1   46 A1   37 B1   22 B2   47 A1   23 B2   48 A1   38 B1                 
  4.108   4.113   4.147   4.149   4.176   4.198   4.255   4.306
 49 A1   39 B1   40 B1   17 A2   18 A2   50 A1   24 B2   51 A1                 
  4.364   4.379   4.403   4.403   4.488   4.501   4.522   4.528
 19 A2   52 A1   41 B1   25 B2   26 B2   42 B1   43 B1   27 B2                 
  4.528   4.546   4.608   4.748   4.771   4.825   4.825   4.933
 53 A1   20 A2   28 B2   44 B1   54 A1   21 A2   55 A1   45 B1                 
  4.995   4.998   5.023   5.132   5.209   5.271   5.363   5.407
 46 B1   22 A2   56 A1   29 B2   57 A1   47 B1   58 A1   30 B2                 
  5.492   5.495   5.527   5.616   5.630   5.731   5.734   5.815
 48 B1   59 A1   60 A1   23 A2   31 B2   49 B1   24 A2   50 B1                 
  5.820   6.011   6.164   6.370   6.458   6.581   6.749   6.884
 61 A1   62 A1   51 B1   63 A1   52 B1   64 A1   53 B1   32 B2                 
  6.898   6.904   6.993   7.094   7.431   7.448   7.461   7.530
 25 A2   54 B1   65 A1   55 B1   26 A2   66 A1   33 B2   34 B2                 
  7.554   7.663   7.796   8.408  12.222  12.427  15.139
 56 B1   57 B1   67 A1   68 A1   69 A1   70 A1   58 B1                         
 
 Beta MOs, Restricted
 -- Occupied --                  
-20.202 -11.040 -11.038  -0.928  -0.852  -0.597  -0.473  -0.385
  1 A1    2 A1    1 B1    3 A1    4 A1    2 B1    5 A1    6 A1                 
 -0.329  -0.271  -0.195  -0.131  -0.130
  3 B1    7 A1    1 B2    4 B1    2 B2                                         
 -- Virtual --                   
  0.112   0.121   0.127   0.130   0.139   0.156   0.218   0.231
  5 B1    8 A1    3 B2    1 A2    6 B1    9 A1   10 A1    7 B1                 
  0.250   0.252   0.266   0.268   0.300   0.372   0.393   0.397
  2 A2   11 A1    4 B2    8 B1   12 A1    3 A2    5 B2   13 A1                 
  0.409   0.454   0.463   0.500   0.541   0.564   0.576   0.592
  9 B1   14 A1   10 B1   15 A1   11 B1   16 A1   12 B1   17 A1                 
  0.695   0.750   0.766   0.792   0.796   0.823   0.823   0.865
 18 A1    6 B2   13 B1   19 A1    7 B2   20 A1    4 A2   14 B1                 
  0.867   0.909   0.939   0.958   0.972   0.991   1.024   1.050
 21 A1    5 A2   15 B1   22 A1   23 A1   16 B1    8 B2   17 B1                 
  1.055   1.078   1.095   1.143   1.200   1.220   1.251   1.307
  6 A2    9 B2   18 B1   24 A1   25 A1   19 B1   10 B2   26 A1                 
  1.397   1.402   1.419   1.462   1.463   1.552   1.558   1.566
  7 A2   11 B2   20 B1   27 A1   12 B2   28 A1   21 B1    8 A2                 
  1.606   1.606   1.646   1.667   1.698   1.828   1.829   1.842
 13 B2   29 A1   30 A1   22 B1   23 B1   31 A1    9 A2   24 B1                 
  1.888   1.978   2.097   2.102   2.135   2.228   2.407   2.425
 25 B1   32 A1   33 A1   26 B1   34 A1   27 B1   14 B2   10 A2                 
  2.475   2.482   2.494   2.512   2.533   2.541   2.553   2.654
 28 B1   15 B2   35 A1   36 A1   11 A2   29 B1   37 A1   16 B2                 
  2.744   2.750   2.754   2.783   2.810   2.856   2.955   2.956
 38 A1   17 B2   39 A1   12 A2   30 B1   40 A1   18 B2   41 A1                 
  2.996   3.088   3.113   3.174   3.293   3.312   3.322   3.338
 31 B1   32 B1   42 A1   19 B2   20 B2   21 B2   43 A1   44 A1                 
  3.361   3.433   3.490   3.491   3.505   3.604   3.626   3.626
 13 A2   14 A2   33 B1   45 A1   34 B1   15 A2   16 A2   35 B1                 
  3.665   3.696   3.712   3.735   3.809   3.847   3.960   4.037
 36 B1   46 A1   37 B1   22 B2   47 A1   23 B2   48 A1   38 B1                 
  4.108   4.113   4.147   4.149   4.176   4.198   4.255   4.306
 49 A1   39 B1   40 B1   17 A2   18 A2   50 A1   24 B2   51 A1                 
  4.364   4.379   4.403   4.403   4.488   4.501   4.522   4.528
 19 A2   52 A1   41 B1   25 B2   26 B2   42 B1   43 B1   27 B2                 
  4.528   4.546   4.608   4.748   4.771   4.825   4.825   4.933
 53 A1   20 A2   28 B2   44 B1   54 A1   21 A2   55 A1   45 B1                 
  4.995   4.998   5.023   5.132   5.209   5.271   5.363   5.407
 46 B1   22 A2   56 A1   29 B2   57 A1   47 B1   58 A1   30 B2                 
  5.492   5.495   5.527   5.616   5.630   5.731   5.734   5.815
 48 B1   59 A1   60 A1   23 A2   31 B2   49 B1   24 A2   50 B1                 
  5.820   6.011   6.164   6.370   6.458   6.581   6.749   6.884
 61 A1   62 A1   51 B1   63 A1   52 B1   64 A1   53 B1   32 B2                 
  6.898   6.904   6.993   7.094   7.431   7.448   7.461   7.530
 25 A2   54 B1   65 A1   55 B1   26 A2   66 A1   33 B2   34 B2                 
  7.554   7.663   7.796   8.408  12.222  12.427  15.139
 56 B1   57 B1   67 A1   68 A1   69 A1   70 A1   58 B1                         

--------------------------------------------------------------------------------
                                   HF Summary                                   
--------------------------------------------------------------------------------
  Energy:                                                 -153.4807650814 a.u.
  Dip. moment [a.u.]:                  [   0.000000,    0.000000,    2.054377]
  Total dipole [Debye]:                                               5.221706
  <r^2> [a.u.]:                        [  55.665811,   19.643068,  208.142408]
  Total <r^2> [a.u.]:                                               283.451287
--------------------------------------------------------------------------------

--------------------------------------------------------------------------------
                                 MP(2) Summary                                  
--------------------------------------------------------------------------------
  MP energy contribution:                                   -0.6748292618 a.u.
  Total energy:                                           -154.1555943432 a.u.
  Dip. moment [a.u.]:                  [   0.000000,   -0.000000,    2.130545]
  Total dipole [Debye]:                                               5.415306
  <r^2> [a.u.]:                        [  56.397652,   20.124572,  209.159659]
  Total <r^2> [a.u.]:                                               285.681883

  Density matrix analysis:
  ------------------------
  NOs
    Occupation of frontier NOs:
       0.0452   1.9308
    Number of electrons: 26.000000
    Number of unpaired electrons: n_u =  0.78614, n_u,nl =  0.09722
    NO participation ratio (PR_NO): 24.340713
  
  
  Mulliken Population Analysis
  Atom      Charge (e)              h+              e-           Del q
  --------------------------------------------------------------------
   1 C       -0.355008        0.093357       -0.121252       -0.027896
   2 C       -0.355008        0.093357       -0.121252       -0.027896
   3 H        0.243664        0.026255       -0.008963        0.017293
   4 H        0.243664        0.026255       -0.008963        0.017293
   5 H        0.109568        0.026368       -0.011274        0.015093
   6 H        0.109568        0.026368       -0.011274        0.015093
   7 O       -1.116931        0.265211       -0.261048        0.004162
   8 H        0.120485        0.020032       -0.033175       -0.013143
  --------------------------------------------------------------------
  Sum:       -1.000000        0.577202       -0.577202        0.000000
  
  Multipole moment analysis of the density matrix
    Molecular charge:                      -1.000000
    Number of electrons:                   26.000000
      Center of electronic charge [Ang]: [ -0.000000,   0.000000,  -0.043363]
    Total nuclear charge:                  25.000000
      Center of nuclear charge [Ang]:    [  0.000000,   0.000000,  -0.000000]
    Dipole moment [D]:                     5.415304
      Cartesian components [D]:          [  0.000000,  -0.000000,   5.415304]
    RMS size of the density [Ang]:         1.753570
      Cartesian components [Ang]:        [  0.779372,   0.465562,   1.500279]
  
  Exciton analysis of the difference density matrix
    <r_h> [Ang]:                  [ -0.000000,  -0.000000,  -0.374435]
    <r_e> [Ang]:                  [ -0.000000,   0.000000,  -0.444266]
    |<r_e - r_h>| [Ang]:            0.069830
    Hole size [Ang]:                1.992173
      Cartesian components [Ang]: [  0.894987,   0.775285,   1.602088]
    Electron size [Ang]:            2.234671
      Cartesian components [Ang]: [  1.075199,   0.913602,   1.732926]
--------------------------------------------------------------------------------
  Starting Davidson for singlet states of irrep A2 ... 
--------------------------------------------------------------------------------
   It NVec Conv  Avg. Norm  Max. Norm  Conv. states           Remark
--------------------------------------------------------------------------------
       100    0  1.597e-01  5.704e-01  0.2436 n n n n n n n n Guess.
    1  110    0  1.528e-02  6.602e-02  0.0660 n n n n n n n n 
    2  120    0  3.041e-03  2.382e-02  0.0644 n n n n n n n n 
    3  130    0  6.798e-03  6.759e-02  0.0644 n n n n n n n n 
    4  140    0  8.079e-03  8.074e-02  0.0644 n n n n n n n n 
    5  150    3  2.100e-03  2.099e-02  0.0644 y y y n n n n n 
    6  160    6  3.055e-04  3.053e-03  0.0644 y y y y y n y n 
    7  170    7  5.820e-05  5.817e-04  0.0644 y y y y y y y n 
    8  180    9  8.782e-06  8.776e-05  0.0644 y y y y y y y n 
    9  190    9  1.199e-06  1.198e-05  0.0644 y y y y y y y n 
   10  200   10  1.604e-07  1.603e-06  0.0644 y y y y y y y y Converged.
--------------------------------------------------------------------------------
  Davidson Summary: 
 ------------------------------------------------------------
  State  0: excitation energy =   0.0644 a.u.   (converged)
  State  1: excitation energy =   0.0699 a.u.   (converged)
  State  2: excitation energy =   0.0765 a.u.   (converged)
  State  3: excitation energy =   0.1552 a.u.   (converged)
  State  4: excitation energy =   0.1778 a.u.   (converged)
  State  5: excitation energy =   0.1788 a.u.   (converged)
  State  6: excitation energy =   0.2126 a.u.   (converged)
  State  7: excitation energy =   0.2265 a.u.   (converged)
  State  8: excitation energy =   0.2375 a.u.   (converged)
  State  9: excitation energy =   0.2479 a.u.   (converged)
 ------------------------------------------------------------


--------------------------------------------------------------------------------
                   State-averaged natural transition orbitals
--------------------------------------------------------------------------------
--------------------------------------------------------------------------------

--------------------------------------------------------------------------------
                             Excited State Summary
--------------------------------------------------------------------------------
--------------------------------------------------------------------------------

  Excited state 1 (singlet, A2)                                    [converged]
  ----------------------------------------------------------------------------
  Term symbol:  1 (1) A2                                    R^2 =  1.86594e-10

  Total energy:                                           -154.0911523419 a.u.
  Excitation energy:                                               1.753556 eV

  Osc. strength:                                                      0.000000
  Trans. dip. moment [a.u.]:           [   0.000000,   -0.000000,   -0.000000]
  <i|r^2|0> [a.u.]:                    [   0.000000,    0.000000,    0.000000]

  Dip. moment [a.u.]:                  [   0.000000,    0.000000,   -3.519950]
  Total dipole [Debye]:                                               8.946821
  <r^2> [a.u.]:                        [ 129.784068,   41.431547,  223.973363]
  Total <r^2> [a.u.]:                                               395.188978

  V1^2 = 0.8624, V2^2 = 0.1376

  Important amplitudes:
      occ i      occ j       vir a       vir b          v   
    ---------------------------------------------------------
     2 (B2) A               5 (B1) A                 -0.5544
     2 (B2) A               6 (B1) A                 -0.3324
    ---------------------------------------------------------

  Density matrix analysis:
  ------------------------
  NOs
    Occupation of frontier NOs:
       0.9614   0.9989
    Number of electrons: 26.000000
    Number of unpaired electrons: n_u =  2.80747, n_u,nl =  2.12430
    NO participation ratio (PR_NO):  4.029915
  
  
  Mulliken Population Analysis
  Atom      Charge (e)              h+              e-           Del q
  --------------------------------------------------------------------
   1 C       -0.833895        0.051002       -0.529890       -0.478887
   2 C       -0.833895        0.051002       -0.529890       -0.478887
   3 H        0.197935       -0.001074       -0.044654       -0.045728
   4 H        0.197935       -0.001074       -0.044654       -0.045728
   5 H        0.129756        0.034469       -0.014281        0.020188
   6 H        0.129756        0.034469       -0.014281        0.020188
   7 O       -0.223234        1.397085       -0.503388        0.893697
   8 H        0.235643        0.145617       -0.030458        0.115158
  --------------------------------------------------------------------
  Sum:       -1.000000        1.711497       -1.711497        0.000000
  
  Multipole moment analysis of the density matrix
    Molecular charge:                      -1.000000
    Number of electrons:                   26.000000
      Center of electronic charge [Ang]: [ -0.000000,  -0.000000,   0.071641]
    Total nuclear charge:                  25.000000
      Center of nuclear charge [Ang]:    [  0.000000,   0.000000,  -0.000000]
    Dipole moment [D]:                     8.946819
      Cartesian components [D]:          [  0.000000,   0.000000,  -8.946819]
    RMS size of the density [Ang]:         2.061840
      Cartesian components [Ang]:        [  1.182293,   0.668005,   1.551494]
  
  Exciton analysis of the difference density matrix
    <r_h> [Ang]:                  [ -0.000000,   0.000000,  -1.463474]
    <r_e> [Ang]:                  [ -0.000000,  -0.000000,   0.283600]
    |<r_e - r_h>| [Ang]:            1.747074
    Hole size [Ang]:                1.804943
      Cartesian components [Ang]: [  0.859496,   0.879110,   1.321458]
    Electron size [Ang]:            4.820402
      Cartesian components [Ang]: [  3.570145,   2.063734,   2.496265]

  Transition density matrix analysis:
  -----------------------------------
  
  CT numbers (Mulliken)
    omega =     0.8458
    <Phe> =     0.0002
  
  Exciton analysis of the transition density matrix
    Trans. dipole moment [D]:             0.000000
      Cartesian components [D]:         [  0.000000,  -0.000000,  -0.000000]
    <r_h> [Ang]:                        [  0.000000,   0.000000,  -1.748410]
    <r_e> [Ang]:                        [ -0.000000,  -0.000000,   1.328675]
    |<r_e - r_h>| [Ang]:                  3.077085
    Hole size [Ang]:                      1.090687
      Cartesian components [Ang]:       [  0.474675,   0.815912,   0.546416]
    Electron size [Ang]:                  5.902135
      Cartesian components [Ang]:       [  4.605496,   2.626165,   2.593813]
    RMS electron-hole separation [Ang]:   6.743152
      Cartesian components [Ang]:       [  4.629665,   2.748123,   4.060064]
    Covariance(r_h, r_e) [Ang^2]:         0.011578
    Correlation coefficient:              0.001798
    Center-of-mass size [Ang]:            3.001998
      Cartesian components [Ang]:       [  2.315060,   1.375930,   1.326387]

  Decomposition into state-averaged NTOs
    H- 0 -> L+ 0:  0.6296 ( 79.3%)
    H- 0 -> L+ 7: -0.1202 (  2.9%)
    H- 0 -> L+ 1:  0.1030 (  2.1%)
                   omega =  84.6%
  ----------------------------------------------------------------------------


  Excited state 2 (singlet, A2)                                    [converged]
  ----------------------------------------------------------------------------
  Term symbol:  2 (1) A2                                    R^2 =  2.10437e-10

  Total energy:                                           -154.0857318763 a.u.
  Excitation energy:                                               1.901054 eV

  Osc. strength:                                                      0.000000
  Trans. dip. moment [a.u.]:           [  -0.000000,   -0.000000,    0.000000]
  <i|r^2|0> [a.u.]:                    [   0.000000,    0.000000,    0.000000]

  Dip. moment [a.u.]:                  [  -0.000000,   -0.000000,   -2.987901]
  Total dipole [Debye]:                                               7.594488
  <r^2> [a.u.]:                        [  77.250449,   88.651717,  220.843128]
  Total <r^2> [a.u.]:                                               386.745294

  V1^2 = 0.8636, V2^2 = 0.1364

  Important amplitudes:
      occ i      occ j       vir a       vir b          v   
    ---------------------------------------------------------
     4 (B1) A               3 (B2) A                  0.6525
     4 (B1) A               4 (B2) A                  0.0559
    ---------------------------------------------------------

  Density matrix analysis:
  ------------------------
  NOs
    Occupation of frontier NOs:
       0.9625   0.9990
    Number of electrons: 26.000000
    Number of unpaired electrons: n_u =  2.80680, n_u,nl =  2.12372
    NO participation ratio (PR_NO):  4.024043
  
  
  Mulliken Population Analysis
  Atom      Charge (e)              h+              e-           Del q
  --------------------------------------------------------------------
   1 C       -0.834139        0.061879       -0.541009       -0.479130
   2 C       -0.834139        0.061879       -0.541009       -0.479130
   3 H        0.195497       -0.006531       -0.041636       -0.048167
   4 H        0.195497       -0.006531       -0.041636       -0.048167
   5 H        0.135395        0.029627       -0.003800        0.025827
   6 H        0.135395        0.029627       -0.003800        0.025827
   7 O       -0.228512        1.393983       -0.505564        0.888419
   8 H        0.235006        0.144485       -0.029964        0.114521
  --------------------------------------------------------------------
  Sum:       -1.000000        1.708419       -1.708419        0.000000
  
  Multipole moment analysis of the density matrix
    Molecular charge:                      -1.000000
    Number of electrons:                   26.000000
      Center of electronic charge [Ang]: [  0.000000,   0.000000,   0.060813]
    Total nuclear charge:                  25.000000
      Center of nuclear charge [Ang]:    [  0.000000,   0.000000,  -0.000000]
    Dipole moment [D]:                     7.594486
      Cartesian components [D]:          [ -0.000000,  -0.000000,  -7.594486]
    RMS size of the density [Ang]:         2.040018
      Cartesian components [Ang]:        [  0.912147,   0.977143,   1.541056]
  
  Exciton analysis of the difference density matrix
    <r_h> [Ang]:                  [ -0.000000,   0.000000,  -1.454300]
    <r_e> [Ang]:                  [  0.000000,   0.000000,   0.131123]
    |<r_e - r_h>| [Ang]:            1.585422
    Hole size [Ang]:                1.808474
      Cartesian components [Ang]: [  0.929103,   0.800880,   1.328886]
    Electron size [Ang]:            4.683351
      Cartesian components [Ang]: [  2.069114,   3.445832,   2.403909]

  Transition density matrix analysis:
  -----------------------------------
  
  CT numbers (Mulliken)
    omega =     0.8468
    <Phe> =     0.0001
  
  Exciton analysis of the transition density matrix
    Trans. dipole moment [D]:             0.000000
      Cartesian components [D]:         [ -0.000000,  -0.000000,   0.000000]
    <r_h> [Ang]:                        [ -0.000000,   0.000000,  -1.729489]
    <r_e> [Ang]:                        [  0.000000,   0.000000,   1.076777]
    |<r_e - r_h>| [Ang]:                  2.806266
    Hole size [Ang]:                      1.128410
      Cartesian components [Ang]:       [  0.814670,   0.468311,   0.624744]
    Electron size [Ang]:                  5.752152
      Cartesian components [Ang]:       [  2.608322,   4.448548,   2.548398]
    RMS electron-hole separation [Ang]:   6.497756
      Cartesian components [Ang]:       [  2.730548,   4.473095,   3.841402]
    Covariance(r_h, r_e) [Ang^2]:         0.007425
    Correlation coefficient:              0.001144
    Center-of-mass size [Ang]:            2.931527
      Cartesian components [Ang]:       [  1.367312,   2.236583,   1.312253]

  Decomposition into state-averaged NTOs
    H- 1 -> L+ 6:  0.5951 ( 70.8%)
    H- 1 -> L+ 4: -0.2299 ( 10.6%)
    H- 1 -> L+ 2: -0.1252 (  3.1%)
                   omega =  84.7%
  ----------------------------------------------------------------------------


  Excited state 3 (singlet, A2)                                    [converged]
  ----------------------------------------------------------------------------
  Term symbol:  3 (1) A2                                    R^2 =  2.15327e-10

  Total energy:                                           -154.0791106911 a.u.
  Excitation energy:                                               2.081226 eV

  Osc. strength:                                                      0.000000
  Trans. dip. moment [a.u.]:           [  -0.000000,   -0.000000,    0.000000]
  <i|r^2|0> [a.u.]:                    [   0.000000,    0.000000,    0.000000]

  Dip. moment [a.u.]:                  [  -0.000000,    0.000000,   -2.277641]
  Total dipole [Debye]:                                               5.789187
  <r^2> [a.u.]:                        [ 120.493093,   38.650373,  260.052882]
  Total <r^2> [a.u.]:                                               419.196348

  V1^2 = 0.8628, V2^2 = 0.1372

  Important amplitudes:
      occ i      occ j       vir a       vir b          v   
    ---------------------------------------------------------
     2 (B2) A               6 (B1) A                 -0.5571
     2 (B2) A               5 (B1) A                  0.3317
    ---------------------------------------------------------

  Density matrix analysis:
  ------------------------
  NOs
    Occupation of frontier NOs:
       0.9608   1.0006
    Number of electrons: 26.000000
    Number of unpaired electrons: n_u =  2.80378, n_u,nl =  2.12339
    NO participation ratio (PR_NO):  4.020413
  
  
  Mulliken Population Analysis
  Atom      Charge (e)              h+              e-           Del q
  --------------------------------------------------------------------
   1 C       -0.832665        0.049720       -0.527377       -0.477657
   2 C       -0.832665        0.049720       -0.527377       -0.477657
   3 H        0.200948       -0.004678       -0.038038       -0.042716
   4 H        0.200948       -0.004678       -0.038038       -0.042716
   5 H        0.129710        0.034116       -0.013974        0.020142
   6 H        0.129710        0.034116       -0.013974        0.020142
   7 O       -0.237329        1.396437       -0.516835        0.879602
   8 H        0.241344        0.151785       -0.030925        0.120859
  --------------------------------------------------------------------
  Sum:       -1.000000        1.706538       -1.706538        0.000000
  
  Multipole moment analysis of the density matrix
    Molecular charge:                      -1.000000
    Number of electrons:                   26.000000
      Center of electronic charge [Ang]: [  0.000000,  -0.000000,   0.046357]
    Total nuclear charge:                  25.000000
      Center of nuclear charge [Ang]:    [  0.000000,   0.000000,  -0.000000]
    Dipole moment [D]:                     5.789185
      Cartesian components [D]:          [ -0.000000,   0.000000,  -5.789185]
    RMS size of the density [Ang]:         2.124319
      Cartesian components [Ang]:        [  1.139188,   0.645195,   1.672933]
  
  Exciton analysis of the difference density matrix
    <r_h> [Ang]:                  [ -0.000000,   0.000000,  -1.473446]
    <r_e> [Ang]:                  [ -0.000000,   0.000000,  -0.106520]
    |<r_e - r_h>| [Ang]:            1.366926
    Hole size [Ang]:                1.807959
      Cartesian components [Ang]: [  0.854620,   0.881165,   1.327361]
    Electron size [Ang]:            5.228481
      Cartesian components [Ang]: [  3.353789,   1.953556,   3.503247]

  Transition density matrix analysis:
  -----------------------------------
  
  CT numbers (Mulliken)
    omega =     0.8462
    <Phe> =    -0.0000
  
  Exciton analysis of the transition density matrix
    Trans. dipole moment [D]:             0.000000
      Cartesian components [D]:         [ -0.000000,  -0.000000,   0.000000]
    <r_h> [Ang]:                        [  0.000000,   0.000000,  -1.750456]
    <r_e> [Ang]:                        [ -0.000000,  -0.000000,   0.651073]
    |<r_e - r_h>| [Ang]:                  2.401530
    Hole size [Ang]:                      1.087950
      Cartesian components [Ang]:       [  0.474297,   0.816365,   0.540580]
    Electron size [Ang]:                  6.548914
      Cartesian components [Ang]:       [  4.312436,   2.473644,   4.262893]
    RMS electron-hole separation [Ang]:   7.058579
      Cartesian components [Ang]:       [  4.338287,   2.604805,   4.921157]
    Covariance(r_h, r_e) [Ang^2]:         0.007862
    Correlation coefficient:              0.001103
    Center-of-mass size [Ang]:            3.319926
      Cartesian components [Ang]:       [  2.169297,   1.302471,   2.149333]

  Decomposition into state-averaged NTOs
    H- 0 -> L+ 1: -0.6386 ( 81.6%)
    H- 0 -> L+ 0:  0.1078 (  2.3%)
                   omega =  84.6%
  ----------------------------------------------------------------------------


  Excited state 4 (singlet, A2)                                    [converged]
  ----------------------------------------------------------------------------
  Term symbol:  4 (1) A2                                    R^2 =  1.48680e-09

  Total energy:                                           -154.0003670447 a.u.
  Excitation energy:                                               4.223950 eV

  Osc. strength:                                                      0.000000
  Trans. dip. moment [a.u.]:           [  -0.000000,   -0.000000,    0.000000]
  <i|r^2|0> [a.u.]:                    [  -0.000000,    0.000000,    0.000000]

  Dip. moment [a.u.]:                  [   0.000000,    0.000000,   -4.064692]
  Total dipole [Debye]:                                              10.331419
  <r^2> [a.u.]:                        [ 100.177539,   32.495916,  217.029998]
  Total <r^2> [a.u.]:                                               349.703452

  V1^2 = 0.8643, V2^2 = 0.1357

  Important amplitudes:
      occ i      occ j       vir a       vir b          v   
    ---------------------------------------------------------
     2 (B2) A               7 (B1) A                  0.5891
     2 (B2) A               8 (B1) A                  0.2632
    ---------------------------------------------------------

  Density matrix analysis:
  ------------------------
  NOs
    Occupation of frontier NOs:
       0.9619   0.9942
    Number of electrons: 26.000000
    Number of unpaired electrons: n_u =  2.80893, n_u,nl =  2.12433
    NO participation ratio (PR_NO):  4.051749
  
  
  Mulliken Population Analysis
  Atom      Charge (e)              h+              e-           Del q
  --------------------------------------------------------------------
   1 C       -1.002541        0.057462       -0.704995       -0.647533
   2 C       -1.002541        0.057462       -0.704995       -0.647533
   3 H        0.256408        0.003624        0.009120        0.012744
   4 H        0.256408        0.003624        0.009120        0.012744
   5 H        0.254534        0.031482        0.113485        0.144966
   6 H        0.254534        0.031482        0.113485        0.144966
   7 O       -0.243513        1.377580       -0.504162        0.873418
   8 H        0.226710        0.134967       -0.028741        0.106226
  --------------------------------------------------------------------
  Sum:       -1.000000        1.697684       -1.697684       -0.000000
  
  Multipole moment analysis of the density matrix
    Molecular charge:                      -1.000000
    Number of electrons:                   26.000000
      Center of electronic charge [Ang]: [ -0.000000,  -0.000000,   0.082729]
    Total nuclear charge:                  25.000000
      Center of nuclear charge [Ang]:    [  0.000000,   0.000000,  -0.000000]
    Dipole moment [D]:                     10.331416
      Cartesian components [D]:          [  0.000000,   0.000000, -10.331416]
    RMS size of the density [Ang]:         1.938963
      Cartesian components [Ang]:        [  1.038723,   0.591601,   1.526643]
  
  Exciton analysis of the difference density matrix
    <r_h> [Ang]:                  [ -0.000000,   0.000000,  -1.450484]
    <r_e> [Ang]:                  [ -0.000000,  -0.000000,   0.480605]
    |<r_e - r_h>| [Ang]:            1.931089
    Hole size [Ang]:                1.786170
      Cartesian components [Ang]: [  0.862341,   0.866966,   1.301976]
    Electron size [Ang]:            3.952660
      Cartesian components [Ang]: [  2.822235,   1.671003,   2.205959]

  Transition density matrix analysis:
  -----------------------------------
  
  CT numbers (Mulliken)
    omega =     0.8468
    <Phe> =    -0.0000
  
  Exciton analysis of the transition density matrix
    Trans. dipole moment [D]:             0.000000
      Cartesian components [D]:         [ -0.000000,  -0.000000,   0.000000]
    <r_h> [Ang]:                        [  0.000000,   0.000000,  -1.740354]
    <r_e> [Ang]:                        [ -0.000000,  -0.000000,   1.651062]
    |<r_e - r_h>| [Ang]:                  3.391417
    Hole size [Ang]:                      1.099937
      Cartesian components [Ang]:       [  0.473975,   0.814278,   0.567592]
    Electron size [Ang]:                  4.585914
      Cartesian components [Ang]:       [  3.593600,   2.089981,   1.936137]
    RMS electron-hole separation [Ang]:   5.806962
      Cartesian components [Ang]:       [  3.624230,   2.240527,   3.945353]
    Covariance(r_h, r_e) [Ang^2]:         0.010681
    Correlation coefficient:              0.002117
    Center-of-mass size [Ang]:            2.359122
      Cartesian components [Ang]:       [  1.812608,   1.122739,   1.009637]

  Decomposition into state-averaged NTOs
    H- 0 -> L+ 7: -0.5425 ( 58.9%)
    H- 0 -> L+ 3: -0.3382 ( 22.9%)
    H- 0 -> L+ 0: -0.1203 (  2.9%)
                   omega =  84.7%
  ----------------------------------------------------------------------------


  Excited state 5 (singlet, A2)                                    [converged]
  ----------------------------------------------------------------------------
  Term symbol:  5 (1) A2                                    R^2 =  2.40951e-09

  Total energy:                                           -153.9777489221 a.u.
  Excitation energy:                                               4.839420 eV

  Osc. strength:                                                      0.000000
  Trans. dip. moment [a.u.]:           [   0.000000,   -0.000000,    0.000000]
  <i|r^2|0> [a.u.]:                    [  -0.000000,    0.000000,    0.000000]

  Dip. moment [a.u.]:                  [   0.000000,   -0.000000,   -3.169521]
  Total dipole [Debye]:                                               8.056121
  <r^2> [a.u.]:                        [  67.407669,   53.593173,  212.709558]
  Total <r^2> [a.u.]:                                               333.710401

  V1^2 = 0.8679, V2^2 = 0.1321

  Important amplitudes:
      occ i      occ j       vir a       vir b          v   
    ---------------------------------------------------------
     4 (B1) A               4 (B2) A                 -0.6343
     2 (B2) A               8 (B1) A                 -0.1405
    ---------------------------------------------------------

  Density matrix analysis:
  ------------------------
  NOs
    Occupation of frontier NOs:
       0.9376   1.0192
    Number of electrons: 26.000000
    Number of unpaired electrons: n_u =  2.87682, n_u,nl =  2.17121
    NO participation ratio (PR_NO):  4.379179
  
  
  Mulliken Population Analysis
  Atom      Charge (e)              h+              e-           Del q
  --------------------------------------------------------------------
   1 C       -0.834942        0.074914       -0.554848       -0.479934
   2 C       -0.834942        0.074914       -0.554848       -0.479934
   3 H        0.188643       -0.007033       -0.047988       -0.055020
   4 H        0.188643       -0.007033       -0.047988       -0.055020
   5 H        0.123582        0.016319       -0.002305        0.014014
   6 H        0.123582        0.016319       -0.002305        0.014014
   7 O       -0.179550        1.359539       -0.422158        0.937381
   8 H        0.224985        0.133030       -0.028530        0.104500
  --------------------------------------------------------------------
  Sum:       -1.000000        1.660971       -1.660971       -0.000000
  
  Multipole moment analysis of the density matrix
    Molecular charge:                      -1.000000
    Number of electrons:                   26.000000
      Center of electronic charge [Ang]: [ -0.000000,   0.000000,   0.064509]
    Total nuclear charge:                  25.000000
      Center of nuclear charge [Ang]:    [  0.000000,   0.000000,  -0.000000]
    Dipole moment [D]:                     8.056118
      Cartesian components [D]:          [  0.000000,  -0.000000,  -8.056118]
    RMS size of the density [Ang]:         1.894732
      Cartesian components [Ang]:        [  0.852058,   0.759747,   1.512214]
  
  Exciton analysis of the difference density matrix
    <r_h> [Ang]:                  [ -0.000000,   0.000000,  -1.458453]
    <r_e> [Ang]:                  [ -0.000000,   0.000000,   0.230122]
    |<r_e - r_h>| [Ang]:            1.688575
    Hole size [Ang]:                1.770281
      Cartesian components [Ang]: [  0.907689,   0.799859,   1.292370]
    Electron size [Ang]:            3.647645
      Cartesian components [Ang]: [  1.637106,   2.506463,   2.083948]

  Transition density matrix analysis:
  -----------------------------------
  
  CT numbers (Mulliken)
    omega =     0.8495
    <Phe> =     0.0007
  
  Exciton analysis of the transition density matrix
    Trans. dipole moment [D]:             0.000000
      Cartesian components [D]:         [  0.000000,  -0.000000,   0.000000]
    <r_h> [Ang]:                        [ -0.000000,   0.000000,  -1.720919]
    <r_e> [Ang]:                        [ -0.000000,   0.000000,   1.206880]
    |<r_e - r_h>| [Ang]:                  2.927798
    Hole size [Ang]:                      1.137128
      Cartesian components [Ang]:       [  0.798023,   0.493650,   0.642285]
    Electron size [Ang]:                  4.215524
      Cartesian components [Ang]:       [  1.990868,   3.162020,   1.951594]
    RMS electron-hole separation [Ang]:   5.255140
      Cartesian components [Ang]:       [  2.141729,   3.200048,   3.576197]
    Covariance(r_h, r_e) [Ang^2]:         0.009608
    Correlation coefficient:              0.002004
    Center-of-mass size [Ang]:            2.184200
      Cartesian components [Ang]:       [  1.073987,   1.600298,   1.027779]

  Decomposition into state-averaged NTOs
    H- 1 -> L+ 4:  0.5824 ( 67.8%)
    H- 1 -> L+ 6:  0.2370 ( 11.2%)
    H- 0 -> L+ 3:  0.1318 (  3.5%)
    H- 0 -> L+ 7: -0.0867 (  1.5%)
                   omega =  85.0%
  ----------------------------------------------------------------------------


  Excited state 6 (singlet, A2)                                    [converged]
  ----------------------------------------------------------------------------
  Term symbol:  6 (1) A2                                    R^2 =  4.28901e-09

  Total energy:                                           -153.9767552206 a.u.
  Excitation energy:                                               4.866460 eV

  Osc. strength:                                                      0.000000
  Trans. dip. moment [a.u.]:           [   0.000000,   -0.000000,   -0.000000]
  <i|r^2|0> [a.u.]:                    [   0.000000,   -0.000000,   -0.000000]

  Dip. moment [a.u.]:                  [   0.000000,    0.000000,   -2.674893]
  Total dipole [Debye]:                                               6.798900
  <r^2> [a.u.]:                        [  90.206448,   31.511219,  228.378689]
  Total <r^2> [a.u.]:                                               350.096355

  V1^2 = 0.8692, V2^2 = 0.1308

  Important amplitudes:
      occ i      occ j       vir a       vir b          v   
    ---------------------------------------------------------
     2 (B2) A               8 (B1) A                 -0.5718
     2 (B2) A               7 (B1) A                  0.2556
    ---------------------------------------------------------

  Density matrix analysis:
  ------------------------
  NOs
    Occupation of frontier NOs:
       0.9389   1.0190
    Number of electrons: 26.000000
    Number of unpaired electrons: n_u =  2.87592, n_u,nl =  2.17046
    NO participation ratio (PR_NO):  4.370138
  
  
  Mulliken Population Analysis
  Atom      Charge (e)              h+              e-           Del q
  --------------------------------------------------------------------
   1 C       -1.106171        0.032241       -0.783404       -0.751162
   2 C       -1.106171        0.032241       -0.783404       -0.751162
   3 H        0.336927        0.009900        0.083363        0.093263
   4 H        0.336927        0.009900        0.083363        0.093263
   5 H        0.205956        0.032006        0.064382        0.096388
   6 H        0.205956        0.032006        0.064382        0.096388
   7 O       -0.099922        1.369762       -0.352752        1.017009
   8 H        0.226498        0.135090       -0.029077        0.106013
  --------------------------------------------------------------------
  Sum:       -1.000000        1.653147       -1.653147       -0.000000
  
  Multipole moment analysis of the density matrix
    Molecular charge:                      -1.000000
    Number of electrons:                   26.000000
      Center of electronic charge [Ang]: [ -0.000000,  -0.000000,   0.054442]
    Total nuclear charge:                  25.000000
      Center of nuclear charge [Ang]:    [  0.000000,   0.000000,  -0.000000]
    Dipole moment [D]:                     6.798898
      Cartesian components [D]:          [  0.000000,   0.000000,  -6.798898]
    RMS size of the density [Ang]:         1.941053
      Cartesian components [Ang]:        [  0.985674,   0.582569,   1.567402]
  
  Exciton analysis of the difference density matrix
    <r_h> [Ang]:                  [ -0.000000,   0.000000,  -1.472714]
    <r_e> [Ang]:                  [ -0.000000,  -0.000000,   0.065521]
    |<r_e - r_h>| [Ang]:            1.538235
    Hole size [Ang]:                1.807144
      Cartesian components [Ang]: [  0.866278,   0.871229,   1.325251]
    Electron size [Ang]:            4.042475
      Cartesian components [Ang]: [  2.545064,   1.639463,   2.678884]

  Transition density matrix analysis:
  -----------------------------------
  
  CT numbers (Mulliken)
    omega =     0.8514
    <Phe> =    -0.0007
  
  Exciton analysis of the transition density matrix
    Trans. dipole moment [D]:             0.000000
      Cartesian components [D]:         [  0.000000,  -0.000000,  -0.000000]
    <r_h> [Ang]:                        [ -0.000000,   0.000000,  -1.742826]
    <r_e> [Ang]:                        [ -0.000000,  -0.000000,   0.885661]
    |<r_e - r_h>| [Ang]:                  2.628487
    Hole size [Ang]:                      1.096467
      Cartesian components [Ang]:       [  0.500017,   0.797997,   0.561626]
    Electron size [Ang]:                  4.802512
      Cartesian components [Ang]:       [  3.182821,   2.020360,   2.975218]
    RMS electron-hole separation [Ang]:   5.580527
      Cartesian components [Ang]:       [  3.221656,   2.171796,   4.005810]
    Covariance(r_h, r_e) [Ang^2]:         0.016515
    Correlation coefficient:              0.003136
    Center-of-mass size [Ang]:            2.464721
      Cartesian components [Ang]:       [  1.611030,   1.086348,   1.516337]

  Decomposition into state-averaged NTOs
    H- 0 -> L+ 3:  0.5404 ( 58.4%)
    H- 0 -> L+ 7: -0.3234 ( 20.9%)
    H- 1 -> L+ 4: -0.1471 (  4.3%)
                   omega =  85.1%
  ----------------------------------------------------------------------------


  Excited state 7 (singlet, A2)                                    [converged]
  ----------------------------------------------------------------------------
  Term symbol:  7 (1) A2                                    R^2 =  1.13716e-09

  Total energy:                                           -153.9430069306 a.u.
  Excitation energy:                                               5.784798 eV

  Osc. strength:                                                      0.000000
  Trans. dip. moment [a.u.]:           [   0.000000,   -0.000000,    0.000000]
  <i|r^2|0> [a.u.]:                    [  -0.000000,   -0.000000,   -0.000000]

  Dip. moment [a.u.]:                  [  -0.000000,    0.000000,   -1.620699]
  Total dipole [Debye]:                                               4.119407
  <r^2> [a.u.]:                        [ 115.624007,   36.945211,  246.870847]
  Total <r^2> [a.u.]:                                               399.440065

  V1^2 = 0.9380, V2^2 = 0.0620

  Important amplitudes:
      occ i      occ j       vir a       vir b          v   
    ---------------------------------------------------------
     1 (B2) A               5 (B1) A                  0.6448
     1 (B2) A               7 (B1) A                  0.1927
    ---------------------------------------------------------

  Density matrix analysis:
  ------------------------
  NOs
    Occupation of frontier NOs:
       0.9837   0.9972
    Number of electrons: 26.000000
    Number of unpaired electrons: n_u =  2.66570, n_u,nl =  2.07406
    NO participation ratio (PR_NO):  3.586411
  
  
  Mulliken Population Analysis
  Atom      Charge (e)              h+              e-           Del q
  --------------------------------------------------------------------
   1 C       -0.505177        0.549818       -0.699987       -0.150169
   2 C       -0.505177        0.549818       -0.699987       -0.150169
   3 H        0.307229        0.077078       -0.013514        0.063565
   4 H        0.307229        0.077078       -0.013514        0.063565
   5 H        0.192010        0.119048       -0.036605        0.082443
   6 H        0.192010        0.119048       -0.036605        0.082443
   7 O       -1.141505        0.061352       -0.085926       -0.024574
   8 H        0.153382        0.037956       -0.005058        0.032897
  --------------------------------------------------------------------
  Sum:       -1.000000        1.591196       -1.591196       -0.000000
  
  Multipole moment analysis of the density matrix
    Molecular charge:                      -1.000000
    Number of electrons:                   26.000000
      Center of electronic charge [Ang]: [  0.000000,  -0.000000,   0.032986]
    Total nuclear charge:                  25.000000
      Center of nuclear charge [Ang]:    [  0.000000,   0.000000,  -0.000000]
    Dipole moment [D]:                     4.119406
      Cartesian components [D]:          [ -0.000000,   0.000000,  -4.119406]
    RMS size of the density [Ang]:         2.073888
      Cartesian components [Ang]:        [  1.115934,   0.630803,   1.630274]
  
  Exciton analysis of the difference density matrix
    <r_h> [Ang]:                  [  0.000000,   0.000000,   0.866491]
    <r_e> [Ang]:                  [  0.000000,  -0.000000,   2.114026]
    |<r_e - r_h>| [Ang]:            1.247535
    Hole size [Ang]:                1.871741
      Cartesian components [Ang]: [  1.096833,   0.903915,   1.217911]
    Electron size [Ang]:            4.450278
      Cartesian components [Ang]: [  3.409701,   1.943518,   2.098012]

  Transition density matrix analysis:
  -----------------------------------
  
  CT numbers (Mulliken)
    omega =     0.9056
    <Phe> =    -0.0006
  
  Exciton analysis of the transition density matrix
    Trans. dipole moment [D]:             0.000000
      Cartesian components [D]:         [  0.000000,  -0.000000,   0.000000]
    <r_h> [Ang]:                        [  0.000000,  -0.000000,   1.037689]
    <r_e> [Ang]:                        [  0.000000,  -0.000000,   2.984929]
    |<r_e - r_h>| [Ang]:                  1.947240
    Hole size [Ang]:                      1.294267
      Cartesian components [Ang]:       [  0.765019,   0.885476,   0.552995]
    Electron size [Ang]:                  5.255340
      Cartesian components [Ang]:       [  4.225813,   2.397967,   2.002714]
    RMS electron-hole separation [Ang]:   5.748447
      Cartesian components [Ang]:       [  4.292467,   2.552531,   2.846745]
    Covariance(r_h, r_e) [Ang^2]:         0.020412
    Correlation coefficient:              0.003001
    Center-of-mass size [Ang]:            2.708069
      Cartesian components [Ang]:       [  2.148268,   1.279962,   1.039365]

  Decomposition into state-averaged NTOs
    H- 2 -> L+ 0:  0.5706 ( 65.1%)
    H- 2 -> L+ 1:  0.3559 ( 25.3%)
                   omega =  90.6%
  ----------------------------------------------------------------------------


  Excited state 8 (singlet, A2)                                    [converged]
  ----------------------------------------------------------------------------
  Term symbol:  8 (1) A2                                    R^2 =  1.60288e-06

  Total energy:                                           -153.9290675611 a.u.
  Excitation energy:                                               6.164107 eV

  Osc. strength:                                                      0.000000
  Trans. dip. moment [a.u.]:           [   0.000000,   -0.000000,   -0.000000]
  <i|r^2|0> [a.u.]:                    [   0.000000,    0.000000,    0.000000]

  Dip. moment [a.u.]:                  [   0.000000,   -0.000000,   -2.749700]
  Total dipole [Debye]:                                               6.989042
  <r^2> [a.u.]:                        [ 114.968319,   78.358292,  216.399213]
  Total <r^2> [a.u.]:                                               409.725824

  V1^2 = 0.8644, V2^2 = 0.1356

  Important amplitudes:
      occ i      occ j       vir a       vir b          v   
    ---------------------------------------------------------
     7 (A1) A               1 (A2) A                  0.6482
     7 (A1) A               2 (A2) A                 -0.0950
    ---------------------------------------------------------

  Density matrix analysis:
  ------------------------
  NOs
    Occupation of frontier NOs:
       0.9788   0.9990
    Number of electrons: 26.000000
    Number of unpaired electrons: n_u =  2.85961, n_u,nl =  2.14219
    NO participation ratio (PR_NO):  4.100625
  
  
  Mulliken Population Analysis
  Atom      Charge (e)              h+              e-           Del q
  --------------------------------------------------------------------
   1 C       -0.826708        0.079116       -0.550816       -0.471699
   2 C       -0.826708        0.079116       -0.550816       -0.471699
   3 H        0.201521       -0.001789       -0.040354       -0.042143
   4 H        0.201521       -0.001789       -0.040354       -0.042143
   5 H        0.140466        0.034671       -0.003773        0.030898
   6 H        0.140466        0.034671       -0.003773        0.030898
   7 O       -0.420884        1.218584       -0.522536        0.696047
   8 H        0.390325        0.291573       -0.021733        0.269840
  --------------------------------------------------------------------
  Sum:       -1.000000        1.734154       -1.734154        0.000000
  
  Multipole moment analysis of the density matrix
    Molecular charge:                      -1.000000
    Number of electrons:                   26.000000
      Center of electronic charge [Ang]: [ -0.000000,   0.000000,   0.055965]
    Total nuclear charge:                  25.000000
      Center of nuclear charge [Ang]:    [  0.000000,   0.000000,  -0.000000]
    Dipole moment [D]:                     6.989040
      Cartesian components [D]:          [  0.000000,  -0.000000,  -6.989040]
    RMS size of the density [Ang]:         2.099940
      Cartesian components [Ang]:        [  1.112765,   0.918665,   1.525634]
  
  Exciton analysis of the difference density matrix
    <r_h> [Ang]:                  [ -0.000000,   0.000000,  -1.382659]
    <r_e> [Ang]:                  [ -0.000000,   0.000000,   0.106549]
    |<r_e - r_h>| [Ang]:            1.489207
    Hole size [Ang]:                1.850480
      Cartesian components [Ang]: [  0.864652,   0.789136,   1.433150]
    Electron size [Ang]:            5.035385
      Cartesian components [Ang]: [  3.194609,   3.166422,   2.263480]

  Transition density matrix analysis:
  -----------------------------------
  
  CT numbers (Mulliken)
    omega =     0.8461
    <Phe> =    -0.0000
  
  Exciton analysis of the transition density matrix
    Trans. dipole moment [D]:             0.000000
      Cartesian components [D]:         [  0.000000,  -0.000000,  -0.000000]
    <r_h> [Ang]:                        [ -0.000000,  -0.000000,  -1.708309]
    <r_e> [Ang]:                        [ -0.000000,   0.000000,   1.025891]
    |<r_e - r_h>| [Ang]:                  2.734201
    Hole size [Ang]:                      1.142228
      Cartesian components [Ang]:       [  0.453799,   0.403081,   0.967614]
    Electron size [Ang]:                  6.293516
      Cartesian components [Ang]:       [  4.133516,   4.109616,   2.373486]
    RMS electron-hole separation [Ang]:   6.955961
      Cartesian components [Ang]:       [  4.157936,   4.129382,   3.747687]
    Covariance(r_h, r_e) [Ang^2]:         0.001746
    Correlation coefficient:              0.000243
    Center-of-mass size [Ang]:            3.198301
      Cartesian components [Ang]:       [  2.079384,   2.064646,   1.281612]

  Decomposition into state-averaged NTOs
    H- 3 -> L+ 5: -0.6503 ( 84.6%)
                   omega =  84.6%
  ----------------------------------------------------------------------------


  Excited state 9 (singlet, A2)                                    [converged]
  ----------------------------------------------------------------------------
  Term symbol:  9 (1) A2                                    R^2 =  3.69088e-08

  Total energy:                                           -153.9180954138 a.u.
  Excitation energy:                                               6.462675 eV

  Osc. strength:                                                      0.000000
  Trans. dip. moment [a.u.]:           [  -0.000000,    0.000000,   -0.000000]
  <i|r^2|0> [a.u.]:                    [   0.000000,    0.000000,    0.000000]

  Dip. moment [a.u.]:                  [  -0.000000,   -0.000000,    1.982271]
  Total dipole [Debye]:                                               5.038432
  <r^2> [a.u.]:                        [  58.442116,   33.580579,  212.859122]
  Total <r^2> [a.u.]:                                               304.881816

  V1^2 = 0.9113, V2^2 = 0.0887

  Important amplitudes:
      occ i      occ j       vir a       vir b          v   
    ---------------------------------------------------------
     4 (B1) A               5 (B2) A                  0.6703
     4 (B1) A   2 (B2) B    5 (B2) A    5 (B2) B      0.0425
    ---------------------------------------------------------

  Density matrix analysis:
  ------------------------
  NOs
    Occupation of frontier NOs:
       0.9727   1.0077
    Number of electrons: 26.000000
    Number of unpaired electrons: n_u =  2.72210, n_u,nl =  2.09263
    NO participation ratio (PR_NO):  3.789241
  
  
  Mulliken Population Analysis
  Atom      Charge (e)              h+              e-           Del q
  --------------------------------------------------------------------
   1 C       -0.312565        0.041160        0.001284        0.042444
   2 C       -0.312565        0.041160        0.001284        0.042444
   3 H        0.215032       -0.005816       -0.022816       -0.028632
   4 H        0.215032       -0.005816       -0.022816       -0.028632
   5 H        0.118990        0.011770       -0.002348        0.009422
   6 H        0.118990        0.011770       -0.002348        0.009422
   7 O       -1.251321        1.238672       -1.373062       -0.134390
   8 H        0.208406        0.116566       -0.028645        0.087922
  --------------------------------------------------------------------
  Sum:       -1.000000        1.449466       -1.449466        0.000000
  
  Multipole moment analysis of the density matrix
    Molecular charge:                      -1.000000
    Number of electrons:                   26.000000
      Center of electronic charge [Ang]: [  0.000000,   0.000000,  -0.040345]
    Total nuclear charge:                  25.000000
      Center of nuclear charge [Ang]:    [  0.000000,   0.000000,  -0.000000]
    Dipole moment [D]:                     5.038430
      Cartesian components [D]:          [ -0.000000,  -0.000000,   5.038430]
    RMS size of the density [Ang]:         1.811643
      Cartesian components [Ang]:        [  0.793373,   0.601393,   1.513583]
  
  Exciton analysis of the difference density matrix
    <r_h> [Ang]:                  [ -0.000000,  -0.000000,  -1.594338]
    <r_e> [Ang]:                  [  0.000000,   0.000000,  -1.540206]
    |<r_e - r_h>| [Ang]:            0.054132
    Hole size [Ang]:                1.603120
      Cartesian components [Ang]: [  0.893572,   0.704739,   1.129099]
    Electron size [Ang]:            2.539486
      Cartesian components [Ang]: [  1.092451,   1.759625,   1.469442]

  Transition density matrix analysis:
  -----------------------------------
  
  CT numbers (Mulliken)
    omega =     0.8873
    <Phe> =    -0.0030
  
  Exciton analysis of the transition density matrix
    Trans. dipole moment [D]:             0.000000
      Cartesian components [D]:         [ -0.000000,   0.000000,  -0.000000]
    <r_h> [Ang]:                        [ -0.000000,   0.000000,  -1.738146]
    <r_e> [Ang]:                        [  0.000000,   0.000000,  -1.662817]
    |<r_e - r_h>| [Ang]:                  0.075329
    Hole size [Ang]:                      1.097874
      Cartesian components [Ang]:       [  0.802359,   0.462472,   0.589633]
    Electron size [Ang]:                  2.842321
      Cartesian components [Ang]:       [  1.204064,   2.060523,   1.543782]
    RMS electron-hole separation [Ang]:   3.042915
      Cartesian components [Ang]:       [  1.443850,   2.110793,   1.648994]
    Covariance(r_h, r_e) [Ang^2]:         0.015228
    Correlation coefficient:              0.004880
    Center-of-mass size [Ang]:            1.525989
      Cartesian components [Ang]:       [  0.724982,   1.056388,   0.828908]

  Decomposition into state-averaged NTOs
    H- 1 -> L+ 2: -0.6503 ( 84.6%)
    H- 1 -> L+ 4:  0.1039 (  2.2%)
    H- 1 -> L+ 6: -0.0906 (  1.6%)
                   omega =  88.7%
  ----------------------------------------------------------------------------


  Excited state 10 (singlet, A2)                                    [converged]
  ----------------------------------------------------------------------------
  Term symbol:  10 (1) A2                                   R^2 =  4.75675e-08

  Total energy:                                           -153.9076865058 a.u.
  Excitation energy:                                               6.745915 eV

  Osc. strength:                                                      0.000000
  Trans. dip. moment [a.u.]:           [  -0.000000,    0.000000,   -0.000000]
  <i|r^2|0> [a.u.]:                    [   0.000000,    0.000000,    0.000000]

  Dip. moment [a.u.]:                  [   0.000000,    0.000000,    5.224900]
  Total dipole [Debye]:                                              13.280373
  <r^2> [a.u.]:                        [ 118.999790,   38.269999,  246.738970]
  Total <r^2> [a.u.]:                                               404.008759

  V1^2 = 0.9365, V2^2 = 0.0635

  Important amplitudes:
      occ i      occ j       vir a       vir b          v   
    ---------------------------------------------------------
     1 (B2) A               6 (B1) A                 -0.6563
     1 (B2) A               8 (B1) A                 -0.1165
    ---------------------------------------------------------

  Density matrix analysis:
  ------------------------
  NOs
    Occupation of frontier NOs:
       0.9905   0.9909
    Number of electrons: 26.000000
    Number of unpaired electrons: n_u =  2.67998, n_u,nl =  2.07806
    NO participation ratio (PR_NO):  3.621383
  
  
  Mulliken Population Analysis
  Atom      Charge (e)              h+              e-           Del q
  --------------------------------------------------------------------
   1 C       -0.531289        0.548180       -0.724461       -0.176281
   2 C       -0.531289        0.548180       -0.724461       -0.176281
   3 H        0.292966        0.091433       -0.042130        0.049303
   4 H        0.292966        0.091433       -0.042130        0.049303
   5 H        0.208706        0.106661       -0.007523        0.099138
   6 H        0.208706        0.106661       -0.007523        0.099138
   7 O       -1.101071        0.076886       -0.061026        0.015860
   8 H        0.160305        0.046802       -0.006982        0.039821
  --------------------------------------------------------------------
  Sum:       -1.000000        1.616235       -1.616235       -0.000000
  
  Multipole moment analysis of the density matrix
    Molecular charge:                      -1.000000
    Number of electrons:                   26.000000
      Center of electronic charge [Ang]: [ -0.000000,  -0.000000,  -0.106342]
    Total nuclear charge:                  25.000000
      Center of nuclear charge [Ang]:    [  0.000000,   0.000000,  -0.000000]
    Dipole moment [D]:                     13.280369
      Cartesian components [D]:          [  0.000000,   0.000000,  13.280369]
    RMS size of the density [Ang]:         2.083266
      Cartesian components [Ang]:        [  1.132107,   0.642013,   1.626699]
  
  Exciton analysis of the difference density matrix
    <r_h> [Ang]:                  [  0.000000,   0.000000,   0.785720]
    <r_e> [Ang]:                  [ -0.000000,  -0.000000,  -0.227413]
    |<r_e - r_h>| [Ang]:            1.013134
    Hole size [Ang]:                1.892858
      Cartesian components [Ang]: [  1.083544,   0.896277,   1.267095]
    Electron size [Ang]:            4.964860
      Cartesian components [Ang]: [  3.467059,   1.986752,   2.946549]

  Transition density matrix analysis:
  -----------------------------------
  
  CT numbers (Mulliken)
    omega =     0.9041
    <Phe> =    -0.0002
  
  Exciton analysis of the transition density matrix
    Trans. dipole moment [D]:             0.000000
      Cartesian components [D]:         [ -0.000000,   0.000000,  -0.000000]
    <r_h> [Ang]:                        [  0.000000,  -0.000000,   1.023177]
    <r_e> [Ang]:                        [ -0.000000,  -0.000000,  -0.724608]
    |<r_e - r_h>| [Ang]:                  1.747785
    Hole size [Ang]:                      1.309160
      Cartesian components [Ang]:       [  0.763454,   0.884331,   0.590759]
    Electron size [Ang]:                  6.107942
      Cartesian components [Ang]:       [  4.337848,   2.475270,   3.516116]
    RMS electron-hole separation [Ang]:   6.477298
      Cartesian components [Ang]:       [  4.403137,   2.627527,   3.957762]
    Covariance(r_h, r_e) [Ang^2]:         0.060109
    Correlation coefficient:              0.007517
    Center-of-mass size [Ang]:            3.128142
      Cartesian components [Ang]:       [  2.202951,   1.314734,   1.789903]

  Decomposition into state-averaged NTOs
    H- 2 -> L+ 1:  0.5672 ( 64.3%)
    H- 2 -> L+ 0: -0.3544 ( 25.1%)
                   omega =  90.4%
  ----------------------------------------------------------------------------


--------------------------------------------------------------------------------
  Time of ADC calculation:  CPU 1079.65 s  wall 186.05 s
================================================================================
 
 --------------------------------------------------------------
             Orbital Energies (a.u.) and Symmetries
 --------------------------------------------------------------
 
 Alpha MOs, Restricted
 -- Occupied --                  
-20.202 -11.040 -11.038  -0.928  -0.852  -0.597  -0.473  -0.385
  1 A1    2 A1    1 B1    3 A1    4 A1    2 B1    5 A1    6 A1                 
 -0.329  -0.271  -0.195  -0.131  -0.130
  3 B1    7 A1    1 B2    4 B1    2 B2                                         
 -- Virtual --                   
  0.112   0.121   0.127   0.130   0.139   0.156   0.218   0.231
  5 B1    8 A1    3 B2    1 A2    6 B1    9 A1   10 A1    7 B1                 
  0.250   0.252   0.266   0.268   0.300   0.372   0.393   0.397
  2 A2   11 A1    4 B2    8 B1   12 A1    3 A2    5 B2   13 A1                 
  0.409   0.454   0.463   0.500   0.541   0.564   0.576   0.592
  9 B1   14 A1   10 B1   15 A1   11 B1   16 A1   12 B1   17 A1                 
  0.695   0.750   0.766   0.792   0.796   0.823   0.823   0.865
 18 A1    6 B2   13 B1   19 A1    7 B2   20 A1    4 A2   14 B1                 
  0.867   0.909   0.939   0.958   0.972   0.991   1.024   1.050
 21 A1    5 A2   15 B1   22 A1   23 A1   16 B1    8 B2   17 B1                 
  1.055   1.078   1.095   1.143   1.200   1.220   1.251   1.307
  6 A2    9 B2   18 B1   24 A1   25 A1   19 B1   10 B2   26 A1                 
  1.397   1.402   1.419   1.462   1.463   1.552   1.558   1.566
  7 A2   11 B2   20 B1   27 A1   12 B2   28 A1   21 B1    8 A2                 
  1.606   1.606   1.646   1.667   1.698   1.828   1.829   1.842
 13 B2   29 A1   30 A1   22 B1   23 B1   31 A1    9 A2   24 B1                 
  1.888   1.978   2.097   2.102   2.135   2.228   2.407   2.425
 25 B1   32 A1   33 A1   26 B1   34 A1   27 B1   14 B2   10 A2                 
  2.475   2.482   2.494   2.512   2.533   2.541   2.553   2.654
 28 B1   15 B2   35 A1   36 A1   11 A2   29 B1   37 A1   16 B2                 
  2.744   2.750   2.754   2.783   2.810   2.856   2.955   2.956
 38 A1   17 B2   39 A1   12 A2   30 B1   40 A1   18 B2   41 A1                 
  2.996   3.088   3.113   3.174   3.293   3.312   3.322   3.338
 31 B1   32 B1   42 A1   19 B2   20 B2   21 B2   43 A1   44 A1                 
  3.361   3.433   3.490   3.491   3.505   3.604   3.626   3.626
 13 A2   14 A2   33 B1   45 A1   34 B1   15 A2   16 A2   35 B1                 
  3.665   3.696   3.712   3.735   3.809   3.847   3.960   4.037
 36 B1   46 A1   37 B1   22 B2   47 A1   23 B2   48 A1   38 B1                 
  4.108   4.113   4.147   4.149   4.176   4.198   4.255   4.306
 49 A1   39 B1   40 B1   17 A2   18 A2   50 A1   24 B2   51 A1                 
  4.364   4.379   4.403   4.403   4.488   4.501   4.522   4.528
 19 A2   52 A1   41 B1   25 B2   26 B2   42 B1   43 B1   27 B2                 
  4.528   4.546   4.608   4.748   4.771   4.825   4.825   4.933
 53 A1   20 A2   28 B2   44 B1   54 A1   21 A2   55 A1   45 B1                 
  4.995   4.998   5.023   5.132   5.209   5.271   5.363   5.407
 46 B1   22 A2   56 A1   29 B2   57 A1   47 B1   58 A1   30 B2                 
  5.492   5.495   5.527   5.616   5.630   5.731   5.734   5.815
 48 B1   59 A1   60 A1   23 A2   31 B2   49 B1   24 A2   50 B1                 
  5.820   6.011   6.164   6.370   6.458   6.581   6.749   6.884
 61 A1   62 A1   51 B1   63 A1   52 B1   64 A1   53 B1   32 B2                 
  6.898   6.904   6.993   7.094   7.431   7.448   7.461   7.530
 25 A2   54 B1   65 A1   55 B1   26 A2   66 A1   33 B2   34 B2                 
  7.554   7.663   7.796   8.408  12.222  12.427  15.139
 56 B1   57 B1   67 A1   68 A1   69 A1   70 A1   58 B1                         
 
 Beta MOs, Restricted
 -- Occupied --                  
-20.202 -11.040 -11.038  -0.928  -0.852  -0.597  -0.473  -0.385
  1 A1    2 A1    1 B1    3 A1    4 A1    2 B1    5 A1    6 A1                 
 -0.329  -0.271  -0.195  -0.131  -0.130
  3 B1    7 A1    1 B2    4 B1    2 B2                                         
 -- Virtual --                   
  0.112   0.121   0.127   0.130   0.139   0.156   0.218   0.231
  5 B1    8 A1    3 B2    1 A2    6 B1    9 A1   10 A1    7 B1                 
  0.250   0.252   0.266   0.268   0.300   0.372   0.393   0.397
  2 A2   11 A1    4 B2    8 B1   12 A1    3 A2    5 B2   13 A1                 
  0.409   0.454   0.463   0.500   0.541   0.564   0.576   0.592
  9 B1   14 A1   10 B1   15 A1   11 B1   16 A1   12 B1   17 A1                 
  0.695   0.750   0.766   0.792   0.796   0.823   0.823   0.865
 18 A1    6 B2   13 B1   19 A1    7 B2   20 A1    4 A2   14 B1                 
  0.867   0.909   0.939   0.958   0.972   0.991   1.024   1.050
 21 A1    5 A2   15 B1   22 A1   23 A1   16 B1    8 B2   17 B1                 
  1.055   1.078   1.095   1.143   1.200   1.220   1.251   1.307
  6 A2    9 B2   18 B1   24 A1   25 A1   19 B1   10 B2   26 A1                 
  1.397   1.402   1.419   1.462   1.463   1.552   1.558   1.566
  7 A2   11 B2   20 B1   27 A1   12 B2   28 A1   21 B1    8 A2                 
  1.606   1.606   1.646   1.667   1.698   1.828   1.829   1.842
 13 B2   29 A1   30 A1   22 B1   23 B1   31 A1    9 A2   24 B1                 
  1.888   1.978   2.097   2.102   2.135   2.228   2.407   2.425
 25 B1   32 A1   33 A1   26 B1   34 A1   27 B1   14 B2   10 A2                 
  2.475   2.482   2.494   2.512   2.533   2.541   2.553   2.654
 28 B1   15 B2   35 A1   36 A1   11 A2   29 B1   37 A1   16 B2                 
  2.744   2.750   2.754   2.783   2.810   2.856   2.955   2.956
 38 A1   17 B2   39 A1   12 A2   30 B1   40 A1   18 B2   41 A1                 
  2.996   3.088   3.113   3.174   3.293   3.312   3.322   3.338
 31 B1   32 B1   42 A1   19 B2   20 B2   21 B2   43 A1   44 A1                 
  3.361   3.433   3.490   3.491   3.505   3.604   3.626   3.626
 13 A2   14 A2   33 B1   45 A1   34 B1   15 A2   16 A2   35 B1                 
  3.665   3.696   3.712   3.735   3.809   3.847   3.960   4.037
 36 B1   46 A1   37 B1   22 B2   47 A1   23 B2   48 A1   38 B1                 
  4.108   4.113   4.147   4.149   4.176   4.198   4.255   4.306
 49 A1   39 B1   40 B1   17 A2   18 A2   50 A1   24 B2   51 A1                 
  4.364   4.379   4.403   4.403   4.488   4.501   4.522   4.528
 19 A2   52 A1   41 B1   25 B2   26 B2   42 B1   43 B1   27 B2                 
  4.528   4.546   4.608   4.748   4.771   4.825   4.825   4.933
 53 A1   20 A2   28 B2   44 B1   54 A1   21 A2   55 A1   45 B1                 
  4.995   4.998   5.023   5.132   5.209   5.271   5.363   5.407
 46 B1   22 A2   56 A1   29 B2   57 A1   47 B1   58 A1   30 B2                 
  5.492   5.495   5.527   5.616   5.630   5.731   5.734   5.815
 48 B1   59 A1   60 A1   23 A2   31 B2   49 B1   24 A2   50 B1                 
  5.820   6.011   6.164   6.370   6.458   6.581   6.749   6.884
 61 A1   62 A1   51 B1   63 A1   52 B1   64 A1   53 B1   32 B2                 
  6.898   6.904   6.993   7.094   7.431   7.448   7.461   7.530
 25 A2   54 B1   65 A1   55 B1   26 A2   66 A1   33 B2   34 B2                 
  7.554   7.663   7.796   8.408  12.222  12.427  15.139
 56 B1   57 B1   67 A1   68 A1   69 A1   70 A1   58 B1                         
 --------------------------------------------------------------
 
          Ground-State Mulliken Net Atomic Charges

     Atom                 Charge (a.u.)
  ----------------------------------------
      1 C                    -0.327113
      2 C                    -0.327113
      3 H                     0.226371
      4 H                     0.226371
      5 H                     0.094474
      6 H                     0.094474
      7 O                    -1.121093
      8 H                     0.133628
  ----------------------------------------
  Sum of atomic charges =    -1.000000

 -----------------------------------------------------------------
                    Cartesian Multipole Moments
 -----------------------------------------------------------------
    Charge (ESU x 10^10)
                -4.8032
    Dipole Moment (Debye)
         X       0.0000      Y       0.0000      Z       5.2217
       Tot       5.2217
    Quadrupole Moments (Debye-Ang)
        XX     -23.6098     XY      -0.0000     YY     -26.4206
        XZ      -0.0000     YZ      -0.0000     ZZ     -33.0042
    Octopole Moments (Debye-Ang^2)
       XXX       0.0000    XXY       0.0000    XYY      -0.0000
       YYY       0.0000    XXZ       1.0064    XYZ       0.0000
       YYZ      -0.2974    XZZ      -0.0000    YZZ       0.0000
       ZZZ       6.5168
    Hexadecapole Moments (Debye-Ang^3)
      XXXX     -88.1070   XXXY      -0.0000   XXYY     -21.6706
      XYYY       0.0000   YYYY     -39.5499   XXXZ       0.0000
      XXYZ      -0.0000   XYYZ      -0.0000   YYYZ      -0.0000
      XXZZ     -70.1949   XYZZ      -0.0000   YYZZ     -65.4864
      XZZZ      -0.0000   YZZZ      -0.0000   ZZZZ    -292.2630
 -----------------------------------------------------------------
 Total job time:  299.32s(wall), 1169.69s(cpu) 
 Thu Mar  3 01:58:05 2022

        *************************************************************
        *                                                           *
        *  Thank you very much for using Q-Chem.  Have a nice day.  *
        *                                                           *
        *************************************************************


