/src/tsommerfeld/qchem/exe/qcprog.exe .input1.10303.32673.qcin.1 /src/jdavis/qchem.scratch/qchem32673/

                  Welcome to Q-Chem
     A Quantum Leap Into The Future Of Chemistry


 Q-Chem 5.4 (devel), Q-Chem, Inc., Pleasanton, CA (2021)

 E. Epifanovsky,  A. T. B. Gilbert,  Xintian Feng,  Joonho Lee,  Yuezhi Mao,  
 N. Mardirossian,  P. Pokhilko,  A. White,  M. Wormit,  M. P. Coons,  
 A. L. Dempwolff,  Zhengting Gan,  D. Hait,  P. R. Horn,  L. D. Jacobson,  
 I. Kaliman,  J. Kussmann,  A. W. Lange,  Ka Un Lao,  D. S. Levine,  Jie Liu,  
 S. C. McKenzie,  A. F. Morrison,  K. Nanda,  F. Plasser,  D. R. Rehn,  
 M. L. Vidal,  Zhi-Qiang You,  Ying Zhu,  B. Alam,  B. Albrecht,  
 A. Aldossary,  E. Alguire,  J. H. Andersen,  D. Barton,  K. Begam,  A. Behn,  
 Y. A. Bernard,  E. J. Berquist,  H. Burton,  A. Carreras,  K. Carter-Fenk,  
 R. Chakraborty,  A. D. Chien,  K. D. Closser,  V. Cofer-Shabica,  
 S. Dasgupta,  Jia Deng,  M. de Wergifosse,  M. Diedenhofen,  Hainam Do,  
 S. Ehlert,  Po-Tung Fang,  S. Fatehi,  Qingguo Feng,  T. Friedhoff,  
 J. Gayvert,  Qinghui Ge,  G. Gidofalvi,  M. Goldey,  J. Gomes,  
 C. Gonzalez-Espinoza,  S. Gulania,  A. Gunina,  M. W. D. Hanson-Heine,  
 P. H. P. Harbach,  A. W. Hauser,  M. F. Herbst,  M. Hernandez Vera,  
 M. Hodecker,  Z. C. Holden,  S. Houck,  Xunkun Huang,  Kerwin Hui,  
 B. C. Huynh,  M. Ivanov,  Hyunjun Ji,  Hanjie Jiang,  B. Kaduk,  S. Kaehler,  
 K. Khistyaev,  Jaehoon Kim,  P. Klunzinger,  Z. Koczor-Benda,  
 Joong Hoon Koh,  D. Kosenkov,  L. Koulias,  T. Kowalczyk,  C. M. Krauter,  
 K. Kue,  A. Kunitsa,  T. Kus,  A. Landau,  K. V. Lawler,  D. Lefrancois,  
 S. Lehtola,  Rain Li,  Yi-Pei Li,  Jiashu Liang,  M. Liebenthal,  
 Hung-Hsuan Lin,  You-Sheng Lin,  Fenglai Liu,  Kuan-Yu Liu,  
 M. Loipersberger,  A. Luenser,  A. Manjanath,  P. Manohar,  E. Mansoor,  
 S. F. Manzer,  Shan-Ping Mao,  A. V. Marenich,  T. Markovich,  S. Mason,  
 S. A. Maurer,  P. F. McLaughlin,  M. F. S. J. Menger,  J.-M. Mewes,  
 S. A. Mewes,  P. Morgante,  J. W. Mullinax,  K. J. Oosterbaan,  G. Paran,  
 Alexander C. Paul,  Suranjan K. Paul,  F. Pavosevic,  Zheng Pei,  S. Prager,  
 E. I. Proynov,  E. Ramos,  B. Rana,  A. E. Rask,  A. Rettig,  R. M. Richard,  
 F. Rob,  E. Rossomme,  T. Scheele,  M. Scheurer,  M. Schneider,  
 N. Sergueev,  S. M. Sharada,  W. Skomorowski,  D. W. Small,  C. J. Stein,  
 Yu-Chuan Su,  E. J. Sundstrom,  Zhen Tao,  J. Thirman,  T. Tsuchimochi,  
 N. M. Tubman,  S. P. Veccham,  O. Vydrov,  J. Wenzel,  J. Witte,  A. Yamada,  
 Kun Yao,  S. Yeganeh,  S. R. Yost,  A. Zech,  Igor Ying Zhang,  Xing Zhang,  
 Yu Zhang,  D. Zuev,  A. Aspuru-Guzik,  A. T. Bell,  N. A. Besley,  
 K. B. Bravaya,  B. R. Brooks,  D. Casanova,  Jeng-Da Chai,  S. Coriani,  
 C. J. Cramer,  A. E. DePrince, III,  R. A. DiStasio Jr.,  A. Dreuw,  
 B. D. Dunietz,  T. R. Furlani,  W. A. Goddard III,  S. Grimme,  
 S. Hammes-Schiffer,  T. Head-Gordon,  W. J. Hehre,  Chao-Ping Hsu,  
 T.-C. Jagau,  Yousung Jung,  A. Klamt,  Jing Kong,  D. S. Lambrecht,  
 WanZhen Liang,  N. J. Mayhall,  C. W. McCurdy,  J. B. Neaton,  
 C. Ochsenfeld,  J. A. Parkhill,  R. Peverati,  V. A. Rassolov,  Yihan Shao,  
 L. V. Slipchenko,  T. Stauch,  R. P. Steele,  J. E. Subotnik,  
 A. J. W. Thom,  A. Tkatchenko,  D. G. Truhlar,  T. Van Voorhis,  
 T. A. Wesolowski,  K. B. Whaley,  H. L. Woodcock III,  P. M. Zimmerman,  
 S. Faraji,  P. M. W. Gill,  M. Head-Gordon,  J. M. Herbert,  A. I. Krylov

 Additional authors for Version 5.4.1: 
 S. Kotaru,  Shaozhi Li,  Xiangyuan Li,  F. Matz,  A. Molle,  Haisheng Ren,  
 Yingli Su,  Hung-Yi Tsai,  C. Utku,  Fang Wang

 Contributors to earlier versions of Q-Chem not listed above: 
 R. D. Adamson,  B. Austin,  R. Baer,  J. Baker,  G. J. O. Beran,  
 K. Brandhorst,  S. T. Brown,  E. F. C. Byrd,  A. K. Chakraborty,  
 G. K. L. Chan,  Chun-Min Chang,  Yunqing Chen,  C.-L. Cheng,  
 Siu Hung Chien,  D. M. Chipman,  D. L. Crittenden,  H. Dachsel,  
 R. J. Doerksen,  A. D. Dutoi,  R. G. Edgar,  J. Fosso-Tande,  
 L. Fusti-Molnar,  D. Ghosh,  A. Ghysels,  A. Golubeva-Zadorozhnaya,  
 J. Gonthier,  M. S. Gordon,  S. R. Gwaltney,  G. Hawkins,  J. E. Herr,  
 A. Heyden,  S. Hirata,  E. G. Hohenstein,  G. Kedziora,  F. J. Keil,  
 C. Kelley,  Jihan Kim,  R. A. King,  R. Z. Khaliullin,  P. P. Korambath,  
 W. Kurlancheek,  A. Laurent,  A. M. Lee,  M. S. Lee,  S. V. Levchenko,  
 Ching Yeh Lin,  D. Liotard,  E. Livshits,  R. C. Lochan,  I. Lotan,  
 L. A. Martinez-Martinez,  P. E. Maslen,  N. Nair,  D. P. O'Neill,  
 D. Neuhauser,  E. Neuscamman,  C. M. Oana,  R. Olivares-Amaya,  R. Olson,  
 T. M. Perrine,  B. Peters,  P. A. Pieniazek,  A. Prociuk,  Y. M. Rhee,  
 J. Ritchie,  M. A. Rohrdanz,  E. Rosta,  N. J. Russ,  H. F. Schaefer III,  
 M. W. Schmidt,  N. E. Schultz,  S. Sharma,  N. Shenvi,  C. D. Sherrill,  
 A. C. Simmonett,  A. Sodt,  T. Stein,  D. Stuck,  K. S. Thanthiriwatte,  
 V. Vanovschi,  L. Vogt,  Tao Wang,  A. Warshel,  M. A. Watson,  
 C. F. Williams,  Q. Wu,  X. Xu,  Jun Yang,  W. Zhang,  Yan Zhao

 Please cite Q-Chem as follows:
 Y. Shao et al., Mol. Phys. 113, 184-215 (2015)
 DOI: 10.1080/00268976.2014.952696

 Q-Chem 5.4.1 for Intel X86 EM64T Linux

 Parts of Q-Chem use Armadillo 9.900.5 (Nocturnal Misbehaviour).
 http://arma.sourceforge.net/

 Q-Chem begins on Thu Mar  3 02:17:10 2022  

 Host: node01
0

     Scratch files written to /src/jdavis/qchem.scratch/qchem32673//
 Processing $rem in /src/tsommerfeld/qchem/config/preferences:
 Processing $rem in /home/jdavis/.qchemrc:

 Checking the input file for inconsistencies... 	...done.

--------------------------------------------------------------
User input:
--------------------------------------------------------------
$molecule
-1 1
C        -0.6645000000    0.0000000000    1.1619088658
C         0.6645000000    0.0000000000    1.1619088658
H        -1.1590800000    0.0000000000    0.1995598658
H         1.1590800000    0.0000000000    0.1995598658
H        -1.1590800000    0.0000000000    2.1242568658
H         1.1590800000    0.0000000000    2.1242568658
O         0.0000000000    0.0000000000   -1.5841414040
H         0.0000000000    0.0000000000   -2.5471307683
$end
$rem
   METHOD adc(2)
   BASIS gen
   PURECART 11
   EE_STATES [0,10,0,0]
   scf_convergence 8
   ADC_DAVIDSON_MAXITER 120
   ADC_DAVIDSON_MAXSUBSPACE 200
   adc_nguess_singles 100
   THRESH 14
   S2THRESH 14
   adc_davidson_conv 5
   adc_davidson_thresh 14
   THREADS 10
   MEM_TOTAL 95000
   STATE_ANALYSIS TRUE
$end
$basis
C     1
S    10   1.00
      8.236000D+03           5.310000D-04
      1.235000D+03           4.108000D-03
      2.808000D+02           2.108700D-02
      7.927000D+01           8.185300D-02
      2.559000D+01           2.348170D-01
      8.997000D+00           4.344010D-01
      3.319000D+00           3.461290D-01
      9.059000D-01           3.937800D-02
      3.643000D-01          -8.983000D-03
      1.285000D-01           2.385000D-03
S    1   1.00
      9.059000D-01           1.000000D+00
S    10   1.00
      8.236000D+03          -1.130000D-04
      1.235000D+03          -8.780000D-04
      2.808000D+02          -4.540000D-03
      7.927000D+01          -1.813300D-02
      2.559000D+01          -5.576000D-02
      8.997000D+00          -1.268950D-01
      3.319000D+00          -1.703520D-01
      9.059000D-01           1.403820D-01
      3.643000D-01           5.986840D-01
      1.285000D-01           3.953890D-01
S    1   1.00
      1.285000D-01           1.000000D+00
P    1   1.00
      3.827000D-01           1.000000D+00
P    5   1.00
      1.871000D+01           1.403100D-02
      4.133000D+00           8.686600D-02
      1.200000D+00           2.902160D-01
      3.827000D-01           5.010080D-01
      1.209000D-01           3.434060D-01
P    1   1.00
      1.209000D-01           1.000000D+00
P   1   1.00
      0.0381018      1.0000000
P   1   1.00
      0.0190509      1.0000000
D    1   1.00
      1.097000D+00           1.000000D+00
D    1   1.00
      3.180000D-01           1.000000D+00
F    1   1.00
      7.610000D-01           1.0000000
****
C     2
S    10   1.00
      8.236000D+03           5.310000D-04
      1.235000D+03           4.108000D-03
      2.808000D+02           2.108700D-02
      7.927000D+01           8.185300D-02
      2.559000D+01           2.348170D-01
      8.997000D+00           4.344010D-01
      3.319000D+00           3.461290D-01
      9.059000D-01           3.937800D-02
      3.643000D-01          -8.983000D-03
      1.285000D-01           2.385000D-03
S    1   1.00
      9.059000D-01           1.000000D+00
S    10   1.00
      8.236000D+03          -1.130000D-04
      1.235000D+03          -8.780000D-04
      2.808000D+02          -4.540000D-03
      7.927000D+01          -1.813300D-02
      2.559000D+01          -5.576000D-02
      8.997000D+00          -1.268950D-01
      3.319000D+00          -1.703520D-01
      9.059000D-01           1.403820D-01
      3.643000D-01           5.986840D-01
      1.285000D-01           3.953890D-01
S    1   1.00
      1.285000D-01           1.000000D+00
P    1   1.00
      3.827000D-01           1.000000D+00
P    5   1.00
      1.871000D+01           1.403100D-02
      4.133000D+00           8.686600D-02
      1.200000D+00           2.902160D-01
      3.827000D-01           5.010080D-01
      1.209000D-01           3.434060D-01
P    1   1.00
      1.209000D-01           1.000000D+00
P   1   1.00
      0.0381018      1.0000000
P   1   1.00
      0.0190509      1.0000000
D    1   1.00
      1.097000D+00           1.000000D+00
D    1   1.00
      3.180000D-01           1.000000D+00
F    1   1.00
      7.610000D-01           1.0000000
****
H 3
cc-pVTZ
****
H 4
cc-pVTZ
****
H 5
cc-pVTZ
****
H 6
cc-pVTZ
****
O 7
aug-cc-pVTZ
****
H 8
cc-pVTZ
****
$end
--------------------------------------------------------------
 ----------------------------------------------------------------
             Standard Nuclear Orientation (Angstroms)
    I     Atom           X                Y                Z
 ----------------------------------------------------------------
    1      C      -0.6645000000    -0.0000000000     1.0270977517
    2      C       0.6645000000     0.0000000000     1.0270977517
    3      H      -1.1590800000    -0.0000000000     0.0647487517
    4      H       1.1590800000     0.0000000000     0.0647487517
    5      H      -1.1590800000    -0.0000000000     1.9894457517
    6      H       1.1590800000     0.0000000000     1.9894457517
    7      O       0.0000000000    -0.0000000000    -1.7189525181
    8      H       0.0000000000    -0.0000000000    -2.6819418824
 ----------------------------------------------------------------
 Molecular Point Group                 C2v   NOp =  4
 Largest Abelian Subgroup              C2v   NOp =  4
 Nuclear Repulsion Energy =          64.38561153 hartrees
 There are       13 alpha and       13 beta electrons
 Requested basis set is non-standard
 There are 68 shells and 188 basis functions
 Total memory of 95000 MB is distributed as follows: 
   MEM_STATIC is set to 192 MB
   QALLOC/CCMAN JOB total memory use is  94808 MB
 Warning: actual memory use might exceed 95000 MB

 Total QAlloc Memory Limit  95000 MB
 Mega-Array Size       188 MB
 MEM_STATIC part       192 MB

                       Distance Matrix (Angstroms)
             C (  1)   C (  2)   H (  3)   H (  4)   H (  5)   H (  6)
   C (  2)  1.329000
   H (  3)  1.082000  2.061931
   H (  4)  2.061931  1.082000  2.318160
   H (  5)  1.082000  2.061931  1.924697  3.013026
   H (  6)  2.061931  1.082000  3.013026  1.924697  2.318160
   O (  7)  2.825306  2.825306  2.127218  2.127218  3.885316  3.885316
   H (  8)  3.768094  3.768094  2.981237  2.981237  4.813037  4.813037
             O (  7)
   H (  8)  0.962989
 
 A cutoff of  1.0D-14 yielded   2306 shell pairs
 There are     17662 function pairs (     22530 Cartesian)
 Smallest overlap matrix eigenvalue = 7.08E-04

 Scale SEOQF with 1.000000e-01/1.000000e-01/1.000000e-01

 Standard Electronic Orientation quadrupole field applied
 Nucleus-field energy     =    -0.0000000051 hartrees
 ================ Generating on-the-fly SAD Guess ================
Attempting to make child job directory: /src/jdavis/qchem.scratch/qchem32673//Frg1/
Attempting to make child job directory: /src/jdavis/qchem.scratch/qchem32673//Frg2/
Attempting to make child job directory: /src/jdavis/qchem.scratch/qchem32673//Frg3/
Creating input file /src/jdavis/qchem.scratch/qchem32673/Frg1.input
using default PutDataFrgm: nothing
calling putenv with: QCSCRATCH=/src/jdavis/qchem.scratch/qchem32673/ 
Spawning Job For Fragment 0
Done Job For Fragment 0
calling putenv with: QCSCRATCH=/src/jdavis/qchem.scratch 
calling putenv with: QCTHREADS=1 
Creating input file /src/jdavis/qchem.scratch/qchem32673/Frg2.input
using default PutDataFrgm: nothing
calling putenv with: QCSCRATCH=/src/jdavis/qchem.scratch/qchem32673/ 
Spawning Job For Fragment 1
Done Job For Fragment 1
calling putenv with: QCSCRATCH=/src/jdavis/qchem.scratch 
calling putenv with: QCTHREADS=1 
Creating input file /src/jdavis/qchem.scratch/qchem32673/Frg3.input
using default PutDataFrgm: nothing
calling putenv with: QCSCRATCH=/src/jdavis/qchem.scratch/qchem32673/ 
Spawning Job For Fragment 2
Done Job For Fragment 2
calling putenv with: QCSCRATCH=/src/jdavis/qchem.scratch 
calling putenv with: QCTHREADS=1 
 Time for running child jobs:  CPU 1.73 s  wall 81.00 s
 ============= Method Specific SAD Guess Constructed =============
 Guess from on-the-fly superposition of atomic densities
 Warning: Energy on first SCF cycle will be non-variational
 A restricted Hartree-Fock SCF calculation will be
 performed using Pulay DIIS extrapolation
 SCF converges when DIIS error is below 1.0E-08
 using 10 threads for integral computing
 -------------------------------------------------------
 OpenMP Integral computing Module                
 Release: version 1.0, May 2013, Q-Chem Inc. Pittsburgh 
 -------------------------------------------------------
 ---------------------------------------
  Cycle       Energy         DIIS Error
 ---------------------------------------
    1    -153.5927872316      2.89E-02
    2    -153.3267086574      5.98E-03
    3    -153.3894704761      5.28E-03
    4    -153.4797175806      3.72E-04
    5    -153.4806759663      1.14E-04
    6    -153.4807612001      2.55E-05
    7    -153.4807673605      6.37E-06
    8    -153.4807679289      2.02E-06
    9    -153.4807679934      4.48E-07
   10    -153.4807679959      8.35E-08
   11    -153.4807679960      2.40E-08
   12    -153.4807679960      8.71E-09 Convergence criterion met
 ---------------------------------------
 SCF time:  CPU 55.53 s  wall 5.56 s
 SCF   energy in the final basis set = -153.48076800
 Total energy in the final basis set = -153.48076800
================================================================================
|                                                                              |
|                                 A D C  M A N                                 |
|                                                                              |
 ------------------------------------------------------------------------------ 
|                                                                              |
| Components:                                                                  |
|                                                                              |
| - libvmm - 1.3-trunk                                                         |
|   Authors:                                                                   |
|   Evgeny Epifanovsky, Ilya Kaliman                                           |
|                                                                              |
| - libtensor - 2.5-trunk                                                      |
|   Authors:                                                                   |
|   Evgeny Epifanovsky, Michael Wormit, Dmitry Zuev, Sam Manzer,               |
|   Ilya Kaliman                                                               |
|                                                                              |
| - libwfa - 1.1-trunk                                                         |
|   Authors:                                                                   |
|   Felix Plasser, Stefanie Mewes (Baeppler), Benjamin Thomitzni,              |
|   Michael Wormit, Feng Chen, Anna I. Krylov, Pavel Pokhilko                  |
|                                                                              |
| - libadc - 1.1-trunk                                                         |
|   Authors:                                                                   |
|   Michael Wormit, Adrian L. Dempwolff, Philipp H. P. Harbach,                |
|   Caroline Krauter, Dirk Rehn, Matthias Schneider, Jan Wenzel                |
|                                                                              |
| - adcman - 2.6-trunk                                                         |
|   Authors:                                                                   |
|   Michael Wormit, Adrian L. Dempwolff, Philipp H. P. Harbach,                |
|   Caroline Krauter, Daniel Lefrancois, Jan-Michael Mewes, Dirk Rehn,         |
|   Matthias Schneider, Jan Wenzel, Andreas Dreuw                              |
|                                                                              |
| Authors of earlier versions of ADCMAN:                                       |
| Andreas Dreuw, Jan Hendrik Starcke, Dirk Rehn, Michael Wormit                |
|                                                                              |
================================================================================

 
 Alpha MOs, Restricted
 -- Occupied --                  
-20.202 -11.040 -11.038  -0.928  -0.852  -0.598  -0.473  -0.385
  1 A1    2 A1    1 B1    3 A1    4 A1    2 B1    5 A1    6 A1                 
 -0.329  -0.271  -0.195  -0.131  -0.130
  3 B1    7 A1    1 B2    4 B1    2 B2                                         
 -- Virtual --                   
  0.126   0.134   0.143   0.148   0.156   0.170   0.240   0.262
  5 B1    8 A1    3 B2    1 A2    6 B1    9 A1   10 A1    7 B1                 
  0.273   0.285   0.297   0.301   0.302   0.394   0.397   0.410
  2 A2   11 A1   12 A1    8 B1    4 B2    5 B2    3 A2    9 B1                 
  0.420   0.460   0.485   0.501   0.572   0.572   0.586   0.610
 13 A1   14 A1   10 B1   15 A1   16 A1   11 B1   12 B1   17 A1                 
  0.720   0.776   0.787   0.800   0.801   0.821   0.862   0.867
 18 A1   13 B1    6 B2   19 A1    7 B2   20 A1    4 A2   14 B1                 
  0.871   0.909   0.945   0.962   0.973   0.999   1.024   1.050
 21 A1    5 A2   15 B1   22 A1   23 A1   16 B1    8 B2   17 B1                 
  1.055   1.079   1.109   1.150   1.205   1.220   1.251   1.307
  6 A2    9 B2   18 B1   24 A1   25 A1   19 B1   10 B2   26 A1                 
  1.401   1.403   1.419   1.463   1.483   1.563   1.567   1.571
  7 A2   11 B2   20 B1   12 B2   27 A1   28 A1   21 B1    8 A2                 
  1.606   1.611   1.651   1.669   1.715   1.829   1.829   1.856
 13 B2   29 A1   30 A1   22 B1   23 B1    9 A2   31 A1   24 B1                 
  1.895   1.978   2.101   2.104   2.141   2.231   2.407   2.425
 25 B1   32 A1   33 A1   26 B1   34 A1   27 B1   14 B2   10 A2                 
  2.476   2.483   2.494   2.518   2.534   2.541   2.553   2.684
 28 B1   15 B2   35 A1   36 A1   11 A2   29 B1   37 A1   16 B2                 
  2.742   2.753   2.768   2.801   2.811   2.857   2.955   2.963
 38 A1   17 B2   39 A1   12 A2   30 B1   40 A1   18 B2   41 A1                 
  3.015   3.087   3.121   3.174   3.294   3.312   3.326   3.343
 31 B1   32 B1   42 A1   19 B2   20 B2   21 B2   43 A1   44 A1                 
  3.361   3.438   3.491   3.496   3.505   3.606   3.626   3.630
 13 A2   14 A2   45 A1   33 B1   34 B1   15 A2   16 A2   35 B1                 
  3.667   3.698   3.721   3.735   3.818   3.847   3.962   4.037
 36 B1   46 A1   37 B1   22 B2   47 A1   23 B2   48 A1   38 B1                 
  4.112   4.118   4.151   4.156   4.176   4.200   4.256   4.306
 49 A1   39 B1   17 A2   40 B1   18 A2   50 A1   24 B2   51 A1                 
  4.365   4.380   4.403   4.403   4.489   4.502   4.522   4.528
 19 A2   52 A1   41 B1   25 B2   26 B2   42 B1   43 B1   27 B2                 
  4.529   4.546   4.608   4.752   4.779   4.824   4.825   4.933
 53 A1   20 A2   28 B2   44 B1   54 A1   55 A1   21 A2   45 B1                 
  4.998   4.999   5.024   5.134   5.209   5.279   5.366   5.407
 22 A2   46 B1   56 A1   29 B2   57 A1   47 B1   58 A1   30 B2                 
  5.493   5.497   5.528   5.616   5.630   5.732   5.735   5.815
 48 B1   59 A1   60 A1   23 A2   31 B2   49 B1   24 A2   50 B1                 
  5.820   6.025   6.171   6.374   6.457   6.582   6.762   6.884
 61 A1   62 A1   51 B1   63 A1   52 B1   64 A1   53 B1   32 B2                 
  6.898   6.904   6.992   7.093   7.431   7.448   7.461   7.531
 25 A2   54 B1   65 A1   55 B1   26 A2   66 A1   33 B2   34 B2                 
  7.554   7.663   7.796   8.409  12.232  12.447  15.140
 56 B1   57 B1   67 A1   68 A1   69 A1   70 A1   58 B1                         
 
 Beta MOs, Restricted
 -- Occupied --                  
-20.202 -11.040 -11.038  -0.928  -0.852  -0.598  -0.473  -0.385
  1 A1    2 A1    1 B1    3 A1    4 A1    2 B1    5 A1    6 A1                 
 -0.329  -0.271  -0.195  -0.131  -0.130
  3 B1    7 A1    1 B2    4 B1    2 B2                                         
 -- Virtual --                   
  0.126   0.134   0.143   0.148   0.156   0.170   0.240   0.262
  5 B1    8 A1    3 B2    1 A2    6 B1    9 A1   10 A1    7 B1                 
  0.273   0.285   0.297   0.301   0.302   0.394   0.397   0.410
  2 A2   11 A1   12 A1    8 B1    4 B2    5 B2    3 A2    9 B1                 
  0.420   0.460   0.485   0.501   0.572   0.572   0.586   0.610
 13 A1   14 A1   10 B1   15 A1   16 A1   11 B1   12 B1   17 A1                 
  0.720   0.776   0.787   0.800   0.801   0.821   0.862   0.867
 18 A1   13 B1    6 B2   19 A1    7 B2   20 A1    4 A2   14 B1                 
  0.871   0.909   0.945   0.962   0.973   0.999   1.024   1.050
 21 A1    5 A2   15 B1   22 A1   23 A1   16 B1    8 B2   17 B1                 
  1.055   1.079   1.109   1.150   1.205   1.220   1.251   1.307
  6 A2    9 B2   18 B1   24 A1   25 A1   19 B1   10 B2   26 A1                 
  1.401   1.403   1.419   1.463   1.483   1.563   1.567   1.571
  7 A2   11 B2   20 B1   12 B2   27 A1   28 A1   21 B1    8 A2                 
  1.606   1.611   1.651   1.669   1.715   1.829   1.829   1.856
 13 B2   29 A1   30 A1   22 B1   23 B1    9 A2   31 A1   24 B1                 
  1.895   1.978   2.101   2.104   2.141   2.231   2.407   2.425
 25 B1   32 A1   33 A1   26 B1   34 A1   27 B1   14 B2   10 A2                 
  2.476   2.483   2.494   2.518   2.534   2.541   2.553   2.684
 28 B1   15 B2   35 A1   36 A1   11 A2   29 B1   37 A1   16 B2                 
  2.742   2.753   2.768   2.801   2.811   2.857   2.955   2.963
 38 A1   17 B2   39 A1   12 A2   30 B1   40 A1   18 B2   41 A1                 
  3.015   3.087   3.121   3.174   3.294   3.312   3.326   3.343
 31 B1   32 B1   42 A1   19 B2   20 B2   21 B2   43 A1   44 A1                 
  3.361   3.438   3.491   3.496   3.505   3.606   3.626   3.630
 13 A2   14 A2   45 A1   33 B1   34 B1   15 A2   16 A2   35 B1                 
  3.667   3.698   3.721   3.735   3.818   3.847   3.962   4.037
 36 B1   46 A1   37 B1   22 B2   47 A1   23 B2   48 A1   38 B1                 
  4.112   4.118   4.151   4.156   4.176   4.200   4.256   4.306
 49 A1   39 B1   17 A2   40 B1   18 A2   50 A1   24 B2   51 A1                 
  4.365   4.380   4.403   4.403   4.489   4.502   4.522   4.528
 19 A2   52 A1   41 B1   25 B2   26 B2   42 B1   43 B1   27 B2                 
  4.529   4.546   4.608   4.752   4.779   4.824   4.825   4.933
 53 A1   20 A2   28 B2   44 B1   54 A1   55 A1   21 A2   45 B1                 
  4.998   4.999   5.024   5.134   5.209   5.279   5.366   5.407
 22 A2   46 B1   56 A1   29 B2   57 A1   47 B1   58 A1   30 B2                 
  5.493   5.497   5.528   5.616   5.630   5.732   5.735   5.815
 48 B1   59 A1   60 A1   23 A2   31 B2   49 B1   24 A2   50 B1                 
  5.820   6.025   6.171   6.374   6.457   6.582   6.762   6.884
 61 A1   62 A1   51 B1   63 A1   52 B1   64 A1   53 B1   32 B2                 
  6.898   6.904   6.992   7.093   7.431   7.448   7.461   7.531
 25 A2   54 B1   65 A1   55 B1   26 A2   66 A1   33 B2   34 B2                 
  7.554   7.663   7.796   8.409  12.232  12.447  15.140
 56 B1   57 B1   67 A1   68 A1   69 A1   70 A1   58 B1                         

--------------------------------------------------------------------------------
                                   HF Summary                                   
--------------------------------------------------------------------------------
  Energy:                                                 -153.4807679960 a.u.
  Dip. moment [a.u.]:                  [  -0.000000,   -0.000000,    2.054586]
  Total dipole [Debye]:                                               5.222239
  <r^2> [a.u.]:                        [  55.662203,   19.638563,  208.143019]
  Total <r^2> [a.u.]:                                               283.443785
--------------------------------------------------------------------------------

--------------------------------------------------------------------------------
                                 MP(2) Summary                                  
--------------------------------------------------------------------------------
  MP energy contribution:                                   -0.6749325228 a.u.
  Total energy:                                           -154.1557005189 a.u.
  Dip. moment [a.u.]:                  [  -0.000000,    0.000000,    2.130963]
  Total dipole [Debye]:                                               5.416370
  <r^2> [a.u.]:                        [  56.390668,   20.115251,  209.159570]
  Total <r^2> [a.u.]:                                               285.665488

  Density matrix analysis:
  ------------------------
  NOs
    Occupation of frontier NOs:
       0.0452   1.9308
    Number of electrons: 26.000000
    Number of unpaired electrons: n_u =  0.78626, n_u,nl =  0.09725
    NO participation ratio (PR_NO): 24.341757
  
  
  Mulliken Population Analysis
  Atom      Charge (e)              h+              e-           Del q
  --------------------------------------------------------------------
   1 C       -0.349871        0.092723       -0.120148       -0.027425
   2 C       -0.349871        0.092723       -0.120148       -0.027425
   3 H        0.240487        0.026561       -0.010407        0.016154
   4 H        0.240487        0.026561       -0.010407        0.016154
   5 H        0.108853        0.026697       -0.010782        0.015915
   6 H        0.108853        0.026697       -0.010782        0.015915
   7 O       -1.120700        0.265459       -0.261589        0.003869
   8 H        0.121763        0.019830       -0.032989       -0.013159
  --------------------------------------------------------------------
  Sum:       -1.000000        0.577252       -0.577252       -0.000000
  
  Multipole moment analysis of the density matrix
    Molecular charge:                      -1.000000
    Number of electrons:                   26.000000
      Center of electronic charge [Ang]: [  0.000000,  -0.000000,  -0.043371]
    Total nuclear charge:                  25.000000
      Center of nuclear charge [Ang]:    [  0.000000,   0.000000,  -0.000000]
    Dipole moment [D]:                     5.416368
      Cartesian components [D]:          [ -0.000000,   0.000000,   5.416368]
    RMS size of the density [Ang]:         1.753519
      Cartesian components [Ang]:        [  0.779324,   0.465454,   1.500279]
  
  Exciton analysis of the difference density matrix
    <r_h> [Ang]:                  [ -0.000000,   0.000000,  -0.374327]
    <r_e> [Ang]:                  [ -0.000000,  -0.000000,  -0.444343]
    |<r_e - r_h>| [Ang]:            0.070016
    Hole size [Ang]:                1.984606
      Cartesian components [Ang]: [  0.887916,   0.767662,   1.600300]
    Electron size [Ang]:            2.226904
      Cartesian components [Ang]: [  1.068540,   0.905842,   1.731120]
--------------------------------------------------------------------------------
  Starting Davidson for singlet states of irrep A2 ... 
--------------------------------------------------------------------------------
   It NVec Conv  Avg. Norm  Max. Norm  Conv. states           Remark
--------------------------------------------------------------------------------
       100    0  1.604e-01  5.723e-01  0.2509 n n n n n n n n Guess.
    1  110    0  1.587e-02  7.216e-02  0.0738 n n n n n n n n 
    2  120    0  1.909e-02  1.850e-01  0.0723 n n n n n n n n 
    3  130    0  3.480e-03  3.139e-02  0.0723 n n n n n n n n 
    4  140    0  6.861e-03  6.546e-02  0.0723 n n n n n n n n 
    5  150    3  1.388e-03  1.342e-02  0.0723 y y y n n n n n 
    6  160    4  1.926e-04  1.836e-03  0.0723 y y y y n n n n 
    7  170    7  2.746e-05  2.575e-04  0.0723 y y y y y y y n 
    8  180    9  3.845e-06  3.652e-05  0.0723 y y y y y y y n 
    9  190   10  4.139e-07  3.849e-06  0.0723 y y y y y y y y Converged.
--------------------------------------------------------------------------------
  Davidson Summary: 
 ------------------------------------------------------------
  State  0: excitation energy =   0.0723 a.u.   (converged)
  State  1: excitation energy =   0.0798 a.u.   (converged)
  State  2: excitation energy =   0.0878 a.u.   (converged)
  State  3: excitation energy =   0.1802 a.u.   (converged)
  State  4: excitation energy =   0.2074 a.u.   (converged)
  State  5: excitation energy =   0.2078 a.u.   (converged)
  State  6: excitation energy =   0.2170 a.u.   (converged)
  State  7: excitation energy =   0.2371 a.u.   (converged)
  State  8: excitation energy =   0.2384 a.u.   (converged)
  State  9: excitation energy =   0.2549 a.u.   (converged)
 ------------------------------------------------------------


--------------------------------------------------------------------------------
                   State-averaged natural transition orbitals
--------------------------------------------------------------------------------
--------------------------------------------------------------------------------

--------------------------------------------------------------------------------
                             Excited State Summary
--------------------------------------------------------------------------------
--------------------------------------------------------------------------------

  Excited state 1 (singlet, A2)                                    [converged]
  ----------------------------------------------------------------------------
  Term symbol:  1 (1) A2                                    R^2 =  1.01965e-09

  Total energy:                                           -154.0833619939 a.u.
  Excitation energy:                                               1.968431 eV

  Osc. strength:                                                      0.000000
  Trans. dip. moment [a.u.]:           [   0.000000,    0.000000,   -0.000000]
  <i|r^2|0> [a.u.]:                    [   0.000000,    0.000000,    0.000000]

  Dip. moment [a.u.]:                  [   0.000000,   -0.000000,   -3.644082]
  Total dipole [Debye]:                                               9.262334
  <r^2> [a.u.]:                        [ 117.766523,   37.365147,  220.303836]
  Total <r^2> [a.u.]:                                               375.435506

  V1^2 = 0.8636, V2^2 = 0.1364

  Important amplitudes:
      occ i      occ j       vir a       vir b          v   
    ---------------------------------------------------------
     2 (B2) A               5 (B1) A                  0.5723
     2 (B2) A               6 (B1) A                 -0.3036
    ---------------------------------------------------------

  Density matrix analysis:
  ------------------------
  NOs
    Occupation of frontier NOs:
       0.9614   0.9990
    Number of electrons: 26.000000
    Number of unpaired electrons: n_u =  2.80603, n_u,nl =  2.12346
    NO participation ratio (PR_NO):  4.026108
  
  
  Mulliken Population Analysis
  Atom      Charge (e)              h+              e-           Del q
  --------------------------------------------------------------------
   1 C       -0.822063        0.047430       -0.519622       -0.472192
   2 C       -0.822063        0.047430       -0.519622       -0.472192
   3 H        0.192001        0.002341       -0.050827       -0.048486
   4 H        0.192001        0.002341       -0.050827       -0.048486
   5 H        0.120488        0.034846       -0.023211        0.011635
   6 H        0.120488        0.034846       -0.023211        0.011635
   7 O       -0.215491        1.396090       -0.490882        0.905209
   8 H        0.234641        0.142889       -0.030011        0.112878
  --------------------------------------------------------------------
  Sum:       -1.000000        1.708213       -1.708213       -0.000000
  
  Multipole moment analysis of the density matrix
    Molecular charge:                      -1.000000
    Number of electrons:                   26.000000
      Center of electronic charge [Ang]: [ -0.000000,   0.000000,   0.074168]
    Total nuclear charge:                  25.000000
      Center of nuclear charge [Ang]:    [  0.000000,   0.000000,  -0.000000]
    Dipole moment [D]:                     9.262331
      Cartesian components [D]:          [  0.000000,  -0.000000,  -9.262331]
    RMS size of the density [Ang]:         2.009493
      Cartesian components [Ang]:        [  1.126226,   0.634378,   1.538585]
  
  Exciton analysis of the difference density matrix
    <r_h> [Ang]:                  [  0.000000,   0.000000,  -1.459106]
    <r_e> [Ang]:                  [  0.000000,   0.000000,   0.329911]
    |<r_e - r_h>| [Ang]:            1.789017
    Hole size [Ang]:                1.800634
      Cartesian components [Ang]: [  0.856069,   0.874484,   1.320873]
    Electron size [Ang]:            4.469731
      Cartesian components [Ang]: [  3.285459,   1.895392,   2.364686]

  Transition density matrix analysis:
  -----------------------------------
  
  CT numbers (Mulliken)
    omega =     0.8468
    <Phe> =     0.0002
  
  Exciton analysis of the transition density matrix
    Trans. dipole moment [D]:             0.000000
      Cartesian components [D]:         [  0.000000,   0.000000,  -0.000000]
    <r_h> [Ang]:                        [ -0.000000,   0.000000,  -1.747766]
    <r_e> [Ang]:                        [ -0.000000,   0.000000,   1.398564]
    |<r_e - r_h>| [Ang]:                  3.146329
    Hole size [Ang]:                      1.090481
      Cartesian components [Ang]:       [  0.474038,   0.815120,   0.547736]
    Electron size [Ang]:                  5.395897
      Cartesian components [Ang]:       [  4.225550,   2.399848,   2.345454]
    RMS electron-hole separation [Ang]:   6.338802
      Cartesian components [Ang]:       [  4.251774,   2.532406,   3.961028]
    Covariance(r_h, r_e) [Ang^2]:         0.011915
    Correlation coefficient:              0.002025
    Center-of-mass size [Ang]:            2.753574
      Cartesian components [Ang]:       [  2.126170,   1.268296,   1.205403]

  Decomposition into state-averaged NTOs
    H- 0 -> L+ 0: -0.5992 ( 71.8%)
    H- 0 -> L+ 1: -0.2280 ( 10.4%)
    H- 0 -> L+ 7:  0.0968 (  1.9%)
                   omega =  84.7%
  ----------------------------------------------------------------------------


  Excited state 2 (singlet, A2)                                    [converged]
  ----------------------------------------------------------------------------
  Term symbol:  2 (1) A2                                    R^2 =  1.47873e-09

  Total energy:                                           -154.0759062908 a.u.
  Excitation energy:                                               2.171311 eV

  Osc. strength:                                                      0.000000
  Trans. dip. moment [a.u.]:           [  -0.000000,    0.000000,   -0.000000]
  <i|r^2|0> [a.u.]:                    [  -0.000000,   -0.000000,   -0.000000]

  Dip. moment [a.u.]:                  [   0.000000,    0.000000,   -3.061569]
  Total dipole [Debye]:                                               7.781734
  <r^2> [a.u.]:                        [  73.212909,   76.589465,  216.828067]
  Total <r^2> [a.u.]:                                               366.630441

  V1^2 = 0.8652, V2^2 = 0.1348

  Important amplitudes:
      occ i      occ j       vir a       vir b          v   
    ---------------------------------------------------------
     4 (B1) A               3 (B2) A                  0.6533
     4 (B1) A               5 (B2) A                  0.0509
    ---------------------------------------------------------

  Density matrix analysis:
  ------------------------
  NOs
    Occupation of frontier NOs:
       0.9625   0.9993
    Number of electrons: 26.000000
    Number of unpaired electrons: n_u =  2.80454, n_u,nl =  2.12263
    NO participation ratio (PR_NO):  4.016875
  
  
  Mulliken Population Analysis
  Atom      Charge (e)              h+              e-           Del q
  --------------------------------------------------------------------
   1 C       -0.830674        0.060273       -0.541076       -0.480803
   2 C       -0.830674        0.060273       -0.541076       -0.480803
   3 H        0.192980       -0.003490       -0.044017       -0.047507
   4 H        0.192980       -0.003490       -0.044017       -0.047507
   5 H        0.132271        0.027418       -0.004000        0.023418
   6 H        0.132271        0.027418       -0.004000        0.023418
   7 O       -0.223000        1.392869       -0.495169        0.897700
   8 H        0.233847        0.141414       -0.029331        0.112083
  --------------------------------------------------------------------
  Sum:       -1.000000        1.702686       -1.702686        0.000000
  
  Multipole moment analysis of the density matrix
    Molecular charge:                      -1.000000
    Number of electrons:                   26.000000
      Center of electronic charge [Ang]: [ -0.000000,  -0.000000,   0.062312]
    Total nuclear charge:                  25.000000
      Center of nuclear charge [Ang]:    [  0.000000,   0.000000,  -0.000000]
    Dipole moment [D]:                     7.781732
      Cartesian components [D]:          [  0.000000,   0.000000,  -7.781732]
    RMS size of the density [Ang]:         1.986164
      Cartesian components [Ang]:        [  0.887990,   0.908237,   1.526901]
  
  Exciton analysis of the difference density matrix
    <r_h> [Ang]:                  [ -0.000000,   0.000000,  -1.452568]
    <r_e> [Ang]:                  [ -0.000000,   0.000000,   0.161218]
    |<r_e - r_h>| [Ang]:            1.613786
    Hole size [Ang]:                1.800344
      Cartesian components [Ang]: [  0.924470,   0.793025,   1.325785]
    Electron size [Ang]:            4.317514
      Cartesian components [Ang]: [  1.902966,   3.149095,   2.258949]

  Transition density matrix analysis:
  -----------------------------------
  
  CT numbers (Mulliken)
    omega =     0.8482
    <Phe> =     0.0001
  
  Exciton analysis of the transition density matrix
    Trans. dipole moment [D]:             0.000000
      Cartesian components [D]:         [ -0.000000,   0.000000,  -0.000000]
    <r_h> [Ang]:                        [ -0.000000,  -0.000000,  -1.728517]
    <r_e> [Ang]:                        [ -0.000000,   0.000000,   1.118552]
    |<r_e - r_h>| [Ang]:                  2.847069
    Hole size [Ang]:                      1.128739
      Cartesian components [Ang]:       [  0.814180,   0.467275,   0.626750]
    Electron size [Ang]:                  5.229906
      Cartesian components [Ang]:       [  2.381109,   4.051748,   2.294682]
    RMS electron-hole separation [Ang]:   6.059303
      Cartesian components [Ang]:       [  2.514096,   4.078558,   3.709426]
    Covariance(r_h, r_e) [Ang^2]:         0.008302
    Correlation coefficient:              0.001406
    Center-of-mass size [Ang]:            2.675938
      Cartesian components [Ang]:       [  1.259411,   2.039325,   1.189824]

  Decomposition into state-averaged NTOs
    H- 1 -> L+ 6: -0.5962 ( 71.1%)
    H- 1 -> L+ 4:  0.2229 (  9.9%)
    H- 1 -> L+ 2:  0.1351 (  3.7%)
                   omega =  84.8%
  ----------------------------------------------------------------------------


  Excited state 3 (singlet, A2)                                    [converged]
  ----------------------------------------------------------------------------
  Term symbol:  3 (1) A2                                    R^2 =  2.08796e-09

  Total energy:                                           -154.0679269493 a.u.
  Excitation energy:                                               2.388440 eV

  Osc. strength:                                                      0.000000
  Trans. dip. moment [a.u.]:           [  -0.000000,   -0.000000,   -0.000000]
  <i|r^2|0> [a.u.]:                    [  -0.000000,   -0.000000,   -0.000000]

  Dip. moment [a.u.]:                  [  -0.000000,    0.000000,   -2.246713]
  Total dipole [Debye]:                                               5.710576
  <r^2> [a.u.]:                        [ 109.827842,   34.977113,  248.346091]
  Total <r^2> [a.u.]:                                               393.151047

  V1^2 = 0.8650, V2^2 = 0.1350

  Important amplitudes:
      occ i      occ j       vir a       vir b          v   
    ---------------------------------------------------------
     2 (B2) A               6 (B1) A                  0.5746
     2 (B2) A               5 (B1) A                  0.3022
    ---------------------------------------------------------

  Density matrix analysis:
  ------------------------
  NOs
    Occupation of frontier NOs:
       0.9613   1.0009
    Number of electrons: 26.000000
    Number of unpaired electrons: n_u =  2.80089, n_u,nl =  2.12197
    NO participation ratio (PR_NO):  4.012097
  
  
  Mulliken Population Analysis
  Atom      Charge (e)              h+              e-           Del q
  --------------------------------------------------------------------
   1 C       -0.816441        0.045974       -0.512544       -0.466570
   2 C       -0.816441        0.045974       -0.512544       -0.466570
   3 H        0.188322       -0.003131       -0.049034       -0.052165
   4 H        0.188322       -0.003131       -0.049034       -0.052165
   5 H        0.119293        0.034135       -0.023695        0.010440
   6 H        0.119293        0.034135       -0.023695        0.010440
   7 O       -0.222536        1.395505       -0.497341        0.898164
   8 H        0.240187        0.148967       -0.030543        0.118424
  --------------------------------------------------------------------
  Sum:       -1.000000        1.698428       -1.698428       -0.000000
  
  Multipole moment analysis of the density matrix
    Molecular charge:                      -1.000000
    Number of electrons:                   26.000000
      Center of electronic charge [Ang]: [  0.000000,  -0.000000,   0.045727]
    Total nuclear charge:                  25.000000
      Center of nuclear charge [Ang]:    [  0.000000,   0.000000,  -0.000000]
    Dipole moment [D]:                     5.710574
      Cartesian components [D]:          [ -0.000000,   0.000000,  -5.710574]
    RMS size of the density [Ang]:         2.057249
      Cartesian components [Ang]:        [  1.087604,   0.613771,   1.634833]
  
  Exciton analysis of the difference density matrix
    <r_h> [Ang]:                  [ -0.000000,   0.000000,  -1.468785]
    <r_e> [Ang]:                  [  0.000000,   0.000000,  -0.104838]
    |<r_e - r_h>| [Ang]:            1.363947
    Hole size [Ang]:                1.805964
      Cartesian components [Ang]: [  0.849146,   0.877046,   1.330883]
    Electron size [Ang]:            4.809317
      Cartesian components [Ang]: [  3.087314,   1.794313,   3.221563]

  Transition density matrix analysis:
  -----------------------------------
  
  CT numbers (Mulliken)
    omega =     0.8482
    <Phe> =    -0.0001
  
  Exciton analysis of the transition density matrix
    Trans. dipole moment [D]:             0.000000
      Cartesian components [D]:         [ -0.000000,  -0.000000,  -0.000000]
    <r_h> [Ang]:                        [ -0.000000,   0.000000,  -1.750294]
    <r_e> [Ang]:                        [  0.000000,   0.000000,   0.632340]
    |<r_e - r_h>| [Ang]:                  2.382634
    Hole size [Ang]:                      1.086797
      Cartesian components [Ang]:       [  0.473716,   0.815337,   0.540321]
    Electron size [Ang]:                  5.967167
      Cartesian components [Ang]:       [  3.951027,   2.255888,   3.861015]
    RMS electron-hole separation [Ang]:   6.515152
      Cartesian components [Ang]:       [  3.979132,   2.398587,   4.567329]
    Covariance(r_h, r_e) [Ang^2]:         0.008971
    Correlation coefficient:              0.001383
    Center-of-mass size [Ang]:            3.033403
      Cartesian components [Ang]:       [  1.989758,   1.199415,   1.950334]

  Decomposition into state-averaged NTOs
    H- 0 -> L+ 1:  0.5993 ( 71.8%)
    H- 0 -> L+ 0: -0.2266 ( 10.3%)
    H- 0 -> L+ 3:  0.1075 (  2.3%)
                   omega =  84.8%
  ----------------------------------------------------------------------------


  Excited state 4 (singlet, A2)                                    [converged]
  ----------------------------------------------------------------------------
  Term symbol:  4 (1) A2                                    R^2 =  1.34417e-08

  Total energy:                                           -153.9754807449 a.u.
  Excitation energy:                                               4.904029 eV

  Osc. strength:                                                      0.000000
  Trans. dip. moment [a.u.]:           [   0.000000,   -0.000000,    0.000000]
  <i|r^2|0> [a.u.]:                    [  -0.000000,    0.000000,    0.000000]

  Dip. moment [a.u.]:                  [  -0.000000,   -0.000000,   -3.881204]
  Total dipole [Debye]:                                               9.865038
  <r^2> [a.u.]:                        [  94.817053,   30.777924,  214.249477]
  Total <r^2> [a.u.]:                                               339.844453

  V1^2 = 0.8646, V2^2 = 0.1354

  Important amplitudes:
      occ i      occ j       vir a       vir b          v   
    ---------------------------------------------------------
     2 (B2) A               7 (B1) A                 -0.5986
     2 (B2) A               8 (B1) A                  0.2405
    ---------------------------------------------------------

  Density matrix analysis:
  ------------------------
  NOs
    Occupation of frontier NOs:
       0.9627   0.9923
    Number of electrons: 26.000000
    Number of unpaired electrons: n_u =  2.81127, n_u,nl =  2.12507
    NO participation ratio (PR_NO):  4.063142
  
  
  Mulliken Population Analysis
  Atom      Charge (e)              h+              e-           Del q
  --------------------------------------------------------------------
   1 C       -1.042290        0.056000       -0.748419       -0.692419
   2 C       -1.042290        0.056000       -0.748419       -0.692419
   3 H        0.266179        0.006913        0.018779        0.025692
   4 H        0.266179        0.006913        0.018779        0.025692
   5 H        0.292149        0.029505        0.153791        0.183296
   6 H        0.292149        0.029505        0.153791        0.183296
   7 O       -0.258452        1.373348       -0.511100        0.862248
   8 H        0.226377        0.132853       -0.028239        0.104614
  --------------------------------------------------------------------
  Sum:       -1.000000        1.691037       -1.691037       -0.000000
  
  Multipole moment analysis of the density matrix
    Molecular charge:                      -1.000000
    Number of electrons:                   26.000000
      Center of electronic charge [Ang]: [  0.000000,   0.000000,   0.078994]
    Total nuclear charge:                  25.000000
      Center of nuclear charge [Ang]:    [  0.000000,   0.000000,  -0.000000]
    Dipole moment [D]:                     9.865035
      Cartesian components [D]:          [ -0.000000,  -0.000000,  -9.865035]
    RMS size of the density [Ang]:         1.911543
      Cartesian components [Ang]:        [  1.010550,   0.575750,   1.517003]
  
  Exciton analysis of the difference density matrix
    <r_h> [Ang]:                  [ -0.000000,   0.000000,  -1.452451]
    <r_e> [Ang]:                  [  0.000000,   0.000000,   0.428940]
    |<r_e - r_h>| [Ang]:            1.881392
    Hole size [Ang]:                1.772694
      Cartesian components [Ang]: [  0.855175,   0.861790,   1.291681]
    Electron size [Ang]:            3.746982
      Cartesian components [Ang]: [  2.663564,   1.583785,   2.106403]

  Transition density matrix analysis:
  -----------------------------------
  
  CT numbers (Mulliken)
    omega =     0.8468
    <Phe> =    -0.0001
  
  Exciton analysis of the transition density matrix
    Trans. dipole moment [D]:             0.000000
      Cartesian components [D]:         [  0.000000,  -0.000000,   0.000000]
    <r_h> [Ang]:                        [ -0.000000,   0.000000,  -1.736922]
    <r_e> [Ang]:                        [  0.000000,   0.000000,   1.558247]
    |<r_e - r_h>| [Ang]:                  3.295169
    Hole size [Ang]:                      1.103592
      Cartesian components [Ang]:       [  0.473845,   0.813411,   0.575976]
    Electron size [Ang]:                  4.306997
      Cartesian components [Ang]:       [  3.378959,   1.970935,   1.802296]
    RMS electron-hole separation [Ang]:   5.532127
      Cartesian components [Ang]:       [  3.411472,   2.129563,   3.798849]
    Covariance(r_h, r_e) [Ang^2]:         0.010923
    Correlation coefficient:              0.002298
    Center-of-mass size [Ang]:            2.224297
      Cartesian components [Ang]:       [  1.706286,   1.067404,   0.946959]

  Decomposition into state-averaged NTOs
    H- 0 -> L+ 7:  0.5289 ( 56.0%)
    H- 0 -> L+ 3: -0.3573 ( 25.5%)
    H- 0 -> L+ 0:  0.0917 (  1.7%)
                   omega =  84.7%
  ----------------------------------------------------------------------------


  Excited state 5 (singlet, A2)                                    [converged]
  ----------------------------------------------------------------------------
  Term symbol:  5 (1) A2                                    R^2 =  4.94491e-08

  Total energy:                                           -153.9483097717 a.u.
  Excitation energy:                                               5.643389 eV

  Osc. strength:                                                      0.000000
  Trans. dip. moment [a.u.]:           [   0.000000,    0.000000,    0.000000]
  <i|r^2|0> [a.u.]:                    [   0.000000,    0.000000,    0.000000]

  Dip. moment [a.u.]:                  [  -0.000000,   -0.000000,   -2.913864]
  Total dipole [Debye]:                                               7.406305
  <r^2> [a.u.]:                        [  71.493817,   41.264634,  216.358158]
  Total <r^2> [a.u.]:                                               329.116609

  V1^2 = 0.8688, V2^2 = 0.1312

  Important amplitudes:
      occ i      occ j       vir a       vir b          v   
    ---------------------------------------------------------
     4 (B1) A               4 (B2) A                  0.5246
     2 (B2) A               8 (B1) A                 -0.3583
    ---------------------------------------------------------

  Density matrix analysis:
  ------------------------
  NOs
    Occupation of frontier NOs:
       0.6385   1.3078
    Number of electrons: 26.000000
    Number of unpaired electrons: n_u =  2.87831, n_u,nl =  2.46450
    NO participation ratio (PR_NO):  6.797624
  
  
  Mulliken Population Analysis
  Atom      Charge (e)              h+              e-           Del q
  --------------------------------------------------------------------
   1 C       -0.954881        0.059929       -0.664938       -0.605010
   2 C       -0.954881        0.059929       -0.664938       -0.605010
   3 H        0.261071        0.001753        0.018832        0.020584
   4 H        0.261071        0.001753        0.018832        0.020584
   5 H        0.168625        0.020473        0.039299        0.059772
   6 H        0.168625        0.020473        0.039299        0.059772
   7 O       -0.175532        1.293138       -0.347970        0.945168
   8 H        0.225901        0.132833       -0.028695        0.104138
  --------------------------------------------------------------------
  Sum:       -1.000000        1.590281       -1.590281        0.000000
  
  Multipole moment analysis of the density matrix
    Molecular charge:                      -1.000000
    Number of electrons:                   26.000000
      Center of electronic charge [Ang]: [  0.000000,   0.000000,   0.059306]
    Total nuclear charge:                  25.000000
      Center of nuclear charge [Ang]:    [  0.000000,   0.000000,  -0.000000]
    Dipole moment [D]:                     7.406303
      Cartesian components [D]:          [ -0.000000,  -0.000000,  -7.406303]
    RMS size of the density [Ang]:         1.881801
      Cartesian components [Ang]:        [  0.877503,   0.666659,   1.525363]
  
  Exciton analysis of the difference density matrix
    <r_h> [Ang]:                  [ -0.000000,   0.000000,  -1.453249]
    <r_e> [Ang]:                  [  0.000000,   0.000000,   0.225453]
    |<r_e - r_h>| [Ang]:            1.678702
    Hole size [Ang]:                1.802017
      Cartesian components [Ang]: [  0.903780,   0.836451,   1.315598]
    Electron size [Ang]:            3.599940
      Cartesian components [Ang]: [  1.864482,   2.103281,   2.249329]

  Transition density matrix analysis:
  -----------------------------------
  
  CT numbers (Mulliken)
    omega =     0.8504
    <Phe> =     0.0001
  
  Exciton analysis of the transition density matrix
    Trans. dipole moment [D]:             0.000000
      Cartesian components [D]:         [  0.000000,   0.000000,   0.000000]
    <r_h> [Ang]:                        [ -0.000000,  -0.000000,  -1.717828]
    <r_e> [Ang]:                        [  0.000000,   0.000000,   1.064975]
    |<r_e - r_h>| [Ang]:                  2.782803
    Hole size [Ang]:                      1.136524
      Cartesian components [Ang]:       [  0.710864,   0.614201,   0.639622]
    Electron size [Ang]:                  4.101661
      Cartesian components [Ang]:       [  2.244478,   2.576675,   2.268631]
    RMS electron-hole separation [Ang]:   5.078133
      Cartesian components [Ang]:       [  2.352027,   2.648374,   3.638890]
    Covariance(r_h, r_e) [Ang^2]:         0.035936
    Correlation coefficient:              0.007709
    Center-of-mass size [Ang]:            2.132322
      Cartesian components [Ang]:       [  1.178345,   1.324680,   1.184703]

  Decomposition into state-averaged NTOs
    H- 1 -> L+ 4:  0.4896 ( 47.9%)
    H- 0 -> L+ 3:  0.3117 ( 19.4%)
    H- 0 -> L+ 7:  0.2183 (  9.5%)
    H- 1 -> L+ 6:  0.1772 (  6.3%)
                   omega =  85.0%
  ----------------------------------------------------------------------------


  Excited state 6 (singlet, A2)                                    [converged]
  ----------------------------------------------------------------------------
  Term symbol:  6 (1) A2                                    R^2 =  7.78894e-08

  Total energy:                                           -153.9478671876 a.u.
  Excitation energy:                                               5.655433 eV

  Osc. strength:                                                      0.000000
  Trans. dip. moment [a.u.]:           [   0.000000,   -0.000000,    0.000000]
  <i|r^2|0> [a.u.]:                    [  -0.000000,    0.000000,    0.000000]

  Dip. moment [a.u.]:                  [  -0.000000,   -0.000000,   -2.817842]
  Total dipole [Debye]:                                               7.162242
  <r^2> [a.u.]:                        [  77.618657,   35.505928,  220.465935]
  Total <r^2> [a.u.]:                                               333.590520

  V1^2 = 0.8690, V2^2 = 0.1310

  Important amplitudes:
      occ i      occ j       vir a       vir b          v   
    ---------------------------------------------------------
     2 (B2) A               8 (B1) A                  0.4805
     4 (B1) A               4 (B2) A                  0.3932
    ---------------------------------------------------------

  Density matrix analysis:
  ------------------------
  NOs
    Occupation of frontier NOs:
       0.6332   1.3126
    Number of electrons: 26.000000
    Number of unpaired electrons: n_u =  2.87894, n_u,nl =  2.46382
    NO participation ratio (PR_NO):  6.844529
  
  
  Mulliken Population Analysis
  Atom      Charge (e)              h+              e-           Del q
  --------------------------------------------------------------------
   1 C       -1.078495        0.045798       -0.774421       -0.728624
   2 C       -1.078495        0.045798       -0.774421       -0.728624
   3 H        0.332881        0.007283        0.085111        0.092394
   4 H        0.332881        0.007283        0.085111        0.092394
   5 H        0.207116        0.026161        0.072102        0.098263
   6 H        0.207116        0.026161        0.072102        0.098263
   7 O       -0.149242        1.294960       -0.323503        0.971458
   8 H        0.226238        0.132943       -0.028467        0.104475
  --------------------------------------------------------------------
  Sum:       -1.000000        1.586385       -1.586385       -0.000000
  
  Multipole moment analysis of the density matrix
    Molecular charge:                      -1.000000
    Number of electrons:                   26.000000
      Center of electronic charge [Ang]: [  0.000000,   0.000000,   0.057351]
    Total nuclear charge:                  25.000000
      Center of nuclear charge [Ang]:    [  0.000000,   0.000000,  -0.000000]
    Dipole moment [D]:                     7.162240
      Cartesian components [D]:          [ -0.000000,  -0.000000,  -7.162240]
    RMS size of the density [Ang]:         1.894621
      Cartesian components [Ang]:        [  0.914319,   0.618393,   1.539870]
  
  Exciton analysis of the difference density matrix
    <r_h> [Ang]:                  [ -0.000000,   0.000000,  -1.457120]
    <r_e> [Ang]:                  [  0.000000,   0.000000,   0.193674]
    |<r_e - r_h>| [Ang]:            1.650794
    Hole size [Ang]:                1.815698
      Cartesian components [Ang]: [  0.892202,   0.858614,   1.327975]
    Electron size [Ang]:            3.720507
      Cartesian components [Ang]: [  2.131475,   1.858489,   2.417644]

  Transition density matrix analysis:
  -----------------------------------
  
  CT numbers (Mulliken)
    omega =     0.8508
    <Phe> =     0.0001
  
  Exciton analysis of the transition density matrix
    Trans. dipole moment [D]:             0.000000
      Cartesian components [D]:         [  0.000000,  -0.000000,   0.000000]
    <r_h> [Ang]:                        [ -0.000000,  -0.000000,  -1.717177]
    <r_e> [Ang]:                        [  0.000000,   0.000000,   1.004752]
    |<r_e - r_h>| [Ang]:                  2.721929
    Hole size [Ang]:                      1.133827
      Cartesian components [Ang]:       [  0.619396,   0.708682,   0.632206]
    Electron size [Ang]:                  4.268293
      Cartesian components [Ang]:       [  2.587065,   2.260709,   2.532708]
    RMS electron-hole separation [Ang]:   5.177354
      Cartesian components [Ang]:       [  2.659675,   2.368895,   3.757587]
    Covariance(r_h, r_e) [Ang^2]:         0.053896
    Correlation coefficient:              0.011137
    Center-of-mass size [Ang]:            2.214254
      Cartesian components [Ang]:       [  1.330342,   1.184737,   1.315108]

  Decomposition into state-averaged NTOs
    H- 0 -> L+ 3: -0.4212 ( 35.5%)
    H- 1 -> L+ 4:  0.3677 ( 27.0%)
    H- 0 -> L+ 7: -0.2838 ( 16.1%)
    H- 1 -> L+ 6:  0.1294 (  3.3%)
    H- 0 -> L+ 1:  0.0770 (  1.2%)
                   omega =  85.1%
  ----------------------------------------------------------------------------


  Excited state 7 (singlet, A2)                                    [converged]
  ----------------------------------------------------------------------------
  Term symbol:  7 (1) A2                                    R^2 =  3.32628e-08

  Total energy:                                           -153.9387128813 a.u.
  Excitation energy:                                               5.904534 eV

  Osc. strength:                                                      0.000000
  Trans. dip. moment [a.u.]:           [  -0.000000,    0.000000,    0.000000]
  <i|r^2|0> [a.u.]:                    [  -0.000000,    0.000000,    0.000000]

  Dip. moment [a.u.]:                  [   0.000000,   -0.000000,   -1.291345]
  Total dipole [Debye]:                                               3.282271
  <r^2> [a.u.]:                        [ 105.840582,   33.668286,  240.967671]
  Total <r^2> [a.u.]:                                               380.476539

  V1^2 = 0.9380, V2^2 = 0.0620

  Important amplitudes:
      occ i      occ j       vir a       vir b          v   
    ---------------------------------------------------------
     1 (B2) A               5 (B1) A                  0.6489
     1 (B2) A               7 (B1) A                  0.1798
    ---------------------------------------------------------

  Density matrix analysis:
  ------------------------
  NOs
    Occupation of frontier NOs:
       0.9885   0.9912
    Number of electrons: 26.000000
    Number of unpaired electrons: n_u =  2.68472, n_u,nl =  2.07878
    NO participation ratio (PR_NO):  3.639625
  
  
  Mulliken Population Analysis
  Atom      Charge (e)              h+              e-           Del q
  --------------------------------------------------------------------
   1 C       -0.491928        0.541432       -0.683489       -0.142057
   2 C       -0.491928        0.541432       -0.683489       -0.142057
   3 H        0.303514        0.074653       -0.011625        0.063028
   4 H        0.303514        0.074653       -0.011625        0.063028
   5 H        0.178120        0.118451       -0.049184        0.069268
   6 H        0.178120        0.118451       -0.049184        0.069268
   7 O       -1.132850        0.067963       -0.080113       -0.012150
   8 H        0.153436        0.036695       -0.005023        0.031672
  --------------------------------------------------------------------
  Sum:       -1.000000        1.573730       -1.573730       -0.000000
  
  Multipole moment analysis of the density matrix
    Molecular charge:                      -1.000000
    Number of electrons:                   26.000000
      Center of electronic charge [Ang]: [ -0.000000,   0.000000,   0.026283]
    Total nuclear charge:                  25.000000
      Center of nuclear charge [Ang]:    [  0.000000,   0.000000,  -0.000000]
    Dipole moment [D]:                     3.282270
      Cartesian components [D]:          [  0.000000,  -0.000000,  -3.282270]
    RMS size of the density [Ang]:         2.024146
      Cartesian components [Ang]:        [  1.067679,   0.602178,   1.610779]
  
  Exciton analysis of the difference density matrix
    <r_h> [Ang]:                  [  0.000000,   0.000000,   0.857844]
    <r_e> [Ang]:                  [ -0.000000,   0.000000,   2.008618]
    |<r_e - r_h>| [Ang]:            1.150774
    Hole size [Ang]:                1.869566
      Cartesian components [Ang]: [  1.089861,   0.900270,   1.223517]
    Electron size [Ang]:            4.131252
      Cartesian components [Ang]: [  3.160203,   1.795022,   1.964245]

  Transition density matrix analysis:
  -----------------------------------
  
  CT numbers (Mulliken)
    omega =     0.9056
    <Phe> =    -0.0008
  
  Exciton analysis of the transition density matrix
    Trans. dipole moment [D]:             0.000000
      Cartesian components [D]:         [ -0.000000,   0.000000,   0.000000]
    <r_h> [Ang]:                        [ -0.000000,   0.000000,   1.012764]
    <r_e> [Ang]:                        [ -0.000000,   0.000000,   2.794002]
    |<r_e - r_h>| [Ang]:                  1.781238
    Hole size [Ang]:                      1.318419
      Cartesian components [Ang]:       [  0.762985,   0.885021,   0.610590]
    Electron size [Ang]:                  4.839220
      Cartesian components [Ang]:       [  3.888164,   2.198249,   1.862238]
    RMS electron-hole separation [Ang]:   5.315954
      Cartesian components [Ang]:       [  3.959773,   2.365451,   2.642765]
    Covariance(r_h, r_e) [Ang^2]:         0.034859
    Correlation coefficient:              0.005464
    Center-of-mass size [Ang]:            2.511274
      Cartesian components [Ang]:       [  1.982431,   1.186988,   0.983628]

  Decomposition into state-averaged NTOs
    H- 2 -> L+ 0:  0.6700 ( 89.8%)
                   omega =  90.6%
  ----------------------------------------------------------------------------


  Excited state 8 (singlet, A2)                                    [converged]
  ----------------------------------------------------------------------------
  Term symbol:  8 (1) A2                                    R^2 =  3.84918e-06

  Total energy:                                           -153.9185549245 a.u.
  Excitation energy:                                               6.453060 eV

  Osc. strength:                                                      0.000000
  Trans. dip. moment [a.u.]:           [  -0.000000,   -0.000000,   -0.000000]
  <i|r^2|0> [a.u.]:                    [  -0.000000,   -0.000000,   -0.000000]

  Dip. moment [a.u.]:                  [  -0.000000,    0.000000,   -2.579674]
  Total dipole [Debye]:                                               6.556879
  <r^2> [a.u.]:                        [ 100.771931,   64.571136,  212.262815]
  Total <r^2> [a.u.]:                                               377.605883

  V1^2 = 0.8680, V2^2 = 0.1320

  Important amplitudes:
      occ i      occ j       vir a       vir b          v   
    ---------------------------------------------------------
     7 (A1) A               1 (A2) A                  0.6327
     4 (B1) A               5 (B2) A                  0.1245
    ---------------------------------------------------------

  Density matrix analysis:
  ------------------------
  NOs
    Occupation of frontier NOs:
       0.9637   1.0128
    Number of electrons: 26.000000
    Number of unpaired electrons: n_u =  2.89556, n_u,nl =  2.17315
    NO participation ratio (PR_NO):  4.297913
  
  
  Mulliken Population Analysis
  Atom      Charge (e)              h+              e-           Del q
  --------------------------------------------------------------------
   1 C       -0.802772        0.075576       -0.528477       -0.452901
   2 C       -0.802772        0.075576       -0.528477       -0.452901
   3 H        0.200416        0.001547       -0.041618       -0.040070
   4 H        0.200416        0.001547       -0.041618       -0.040070
   5 H        0.137005        0.031584       -0.003432        0.028152
   6 H        0.137005        0.031584       -0.003432        0.028152
   7 O       -0.451775        1.191674       -0.522749        0.668925
   8 H        0.382477        0.281400       -0.020686        0.260714
  --------------------------------------------------------------------
  Sum:       -1.000000        1.690487       -1.690487       -0.000000
  
  Multipole moment analysis of the density matrix
    Molecular charge:                      -1.000000
    Number of electrons:                   26.000000
      Center of electronic charge [Ang]: [  0.000000,  -0.000000,   0.052504]
    Total nuclear charge:                  25.000000
      Center of nuclear charge [Ang]:    [  0.000000,   0.000000,  -0.000000]
    Dipole moment [D]:                     6.556877
      Cartesian components [D]:          [ -0.000000,   0.000000,  -6.556877]
    RMS size of the density [Ang]:         2.015982
      Cartesian components [Ang]:        [  1.041800,   0.833938,   1.511087]
  
  Exciton analysis of the difference density matrix
    <r_h> [Ang]:                  [  0.000000,   0.000000,  -1.388011]
    <r_e> [Ang]:                  [  0.000000,  -0.000000,   0.086571]
    |<r_e - r_h>| [Ang]:            1.474582
    Hole size [Ang]:                1.828667
      Cartesian components [Ang]: [  0.860362,   0.766967,   1.419705]
    Electron size [Ang]:            4.526919
      Cartesian components [Ang]: [  2.844637,   2.819989,   2.109193]

  Transition density matrix analysis:
  -----------------------------------
  
  CT numbers (Mulliken)
    omega =     0.8490
    <Phe> =    -0.0002
  
  Exciton analysis of the transition density matrix
    Trans. dipole moment [D]:             0.000000
      Cartesian components [D]:         [ -0.000000,  -0.000000,  -0.000000]
    <r_h> [Ang]:                        [  0.000000,   0.000000,  -1.702811]
    <r_e> [Ang]:                        [  0.000000,  -0.000000,   0.931536]
    |<r_e - r_h>| [Ang]:                  2.634347
    Hole size [Ang]:                      1.146648
      Cartesian components [Ang]:       [  0.472649,   0.405181,   0.962930]
    Electron size [Ang]:                  5.542041
      Cartesian components [Ang]:       [  3.618897,   3.606659,   2.147046]
    RMS electron-hole separation [Ang]:   6.244022
      Cartesian components [Ang]:       [  3.653019,   3.629548,   3.531239]
    Covariance(r_h, r_e) [Ang^2]:        -0.009502
    Correlation coefficient:             -0.001495
    Center-of-mass size [Ang]:            2.828870
      Cartesian components [Ang]:       [  1.823121,   1.814574,   1.177309]

  Decomposition into state-averaged NTOs
    H- 3 -> L+ 5: -0.6395 ( 81.8%)
    H- 1 -> L+ 2:  0.1208 (  2.9%)
                   omega =  84.9%
  ----------------------------------------------------------------------------


  Excited state 9 (singlet, A2)                                    [converged]
  ----------------------------------------------------------------------------
  Term symbol:  9 (1) A2                                    R^2 =  8.13414e-07

  Total energy:                                           -153.9172902144 a.u.
  Excitation energy:                                               6.487474 eV

  Osc. strength:                                                      0.000000
  Trans. dip. moment [a.u.]:           [   0.000000,   -0.000000,    0.000000]
  <i|r^2|0> [a.u.]:                    [   0.000000,    0.000000,    0.000000]

  Dip. moment [a.u.]:                  [  -0.000000,   -0.000000,    1.651939]
  Total dipole [Debye]:                                               4.198810
  <r^2> [a.u.]:                        [  60.427825,   35.973634,  211.864068]
  Total <r^2> [a.u.]:                                               308.265527

  V1^2 = 0.9095, V2^2 = 0.0905

  Important amplitudes:
      occ i      occ j       vir a       vir b          v   
    ---------------------------------------------------------
     4 (B1) A               5 (B2) A                 -0.6584
     7 (A1) A               1 (A2) A                  0.1214
    ---------------------------------------------------------

  Density matrix analysis:
  ------------------------
  NOs
    Occupation of frontier NOs:
       0.9738   1.0054
    Number of electrons: 26.000000
    Number of unpaired electrons: n_u =  2.79684, n_u,nl =  2.11550
    NO participation ratio (PR_NO):  3.973876
  
  
  Mulliken Population Analysis
  Atom      Charge (e)              h+              e-           Del q
  --------------------------------------------------------------------
   1 C       -0.337181        0.040249       -0.027559        0.012690
   2 C       -0.337181        0.040249       -0.027559        0.012690
   3 H        0.213246       -0.003150       -0.024091       -0.027241
   4 H        0.213246       -0.003150       -0.024091       -0.027241
   5 H        0.117570        0.010837       -0.002120        0.008717
   6 H        0.117570        0.010837       -0.002120        0.008717
   7 O       -1.202181        1.223037       -1.304518       -0.081481
   8 H        0.214911        0.119878       -0.026729        0.093148
  --------------------------------------------------------------------
  Sum:       -1.000000        1.438787       -1.438787       -0.000000
  
  Multipole moment analysis of the density matrix
    Molecular charge:                      -1.000000
    Number of electrons:                   26.000000
      Center of electronic charge [Ang]: [  0.000000,   0.000000,  -0.033622]
    Total nuclear charge:                  25.000000
      Center of nuclear charge [Ang]:    [  0.000000,   0.000000,  -0.000000]
    Dipole moment [D]:                     4.198809
      Cartesian components [D]:          [ -0.000000,  -0.000000,   4.198809]
    RMS size of the density [Ang]:         1.821810
      Cartesian components [Ang]:        [  0.806739,   0.622453,   1.510204]
  
  Exciton analysis of the difference density matrix
    <r_h> [Ang]:                  [ -0.000000,   0.000000,  -1.586858]
    <r_e> [Ang]:                  [  0.000000,   0.000000,  -1.410675]
    |<r_e - r_h>| [Ang]:            0.176182
    Hole size [Ang]:                1.638381
      Cartesian components [Ang]: [  0.902777,   0.739479,   1.149982]
    Electron size [Ang]:            2.758806
      Cartesian components [Ang]: [  1.265208,   1.906126,   1.541734]

  Transition density matrix analysis:
  -----------------------------------
  
  CT numbers (Mulliken)
    omega =     0.8857
    <Phe> =    -0.0028
  
  Exciton analysis of the transition density matrix
    Trans. dipole moment [D]:             0.000000
      Cartesian components [D]:         [  0.000000,  -0.000000,   0.000000]
    <r_h> [Ang]:                        [ -0.000000,  -0.000000,  -1.737135]
    <r_e> [Ang]:                        [ -0.000000,   0.000000,  -1.487745]
    |<r_e - r_h>| [Ang]:                  0.249389
    Hole size [Ang]:                      1.099246
      Cartesian components [Ang]:       [  0.792972,   0.460113,   0.606491]
    Electron size [Ang]:                  3.087298
      Cartesian components [Ang]:       [  1.405242,   2.212431,   1.631518]
    RMS electron-hole separation [Ang]:   3.276758
      Cartesian components [Ang]:       [  1.601392,   2.258660,   1.752468]
    Covariance(r_h, r_e) [Ang^2]:         0.032399
    Correlation coefficient:              0.009547
    Center-of-mass size [Ang]:            1.643513
      Cartesian components [Ang]:       [  0.812798,   1.130438,   0.873272]

  Decomposition into state-averaged NTOs
    H- 1 -> L+ 2: -0.6389 ( 81.6%)
    H- 1 -> L+ 6: -0.1350 (  3.6%)
    H- 3 -> L+ 5: -0.1211 (  2.9%)
                   omega =  88.6%
  ----------------------------------------------------------------------------


  Excited state 10 (singlet, A2)                                    [converged]
  ----------------------------------------------------------------------------
  Term symbol:  10 (1) A2                                   R^2 =  1.28045e-06

  Total energy:                                           -153.9007602646 a.u.
  Excitation energy:                                               6.937277 eV

  Osc. strength:                                                      0.000000
  Trans. dip. moment [a.u.]:           [   0.000000,   -0.000000,   -0.000000]
  <i|r^2|0> [a.u.]:                    [  -0.000000,   -0.000000,   -0.000000]

  Dip. moment [a.u.]:                  [  -0.000000,    0.000000,    2.705692]
  Total dipole [Debye]:                                               6.877185
  <r^2> [a.u.]:                        [  75.704595,   24.023209,  220.690099]
  Total <r^2> [a.u.]:                                               320.417903

  V1^2 = 0.9078, V2^2 = 0.0922

  Important amplitudes:
      occ i      occ j       vir a       vir b          v   
    ---------------------------------------------------------
     2 (B2) A               9 (B1) A                 -0.6313
     1 (B2) A               6 (B1) A                  0.1843
    ---------------------------------------------------------

  Density matrix analysis:
  ------------------------
  NOs
    Occupation of frontier NOs:
       0.9250   1.0491
    Number of electrons: 26.000000
    Number of unpaired electrons: n_u =  2.81328, n_u,nl =  2.16916
    NO participation ratio (PR_NO):  4.370445
  
  
  Mulliken Population Analysis
  Atom      Charge (e)              h+              e-           Del q
  --------------------------------------------------------------------
   1 C       -0.322441        0.061681       -0.034251        0.027430
   2 C       -0.322441        0.061681       -0.034251        0.027430
   3 H        0.304090        0.037722        0.025882        0.063604
   4 H        0.304090        0.037722        0.025882        0.063604
   5 H        0.125204        0.020251       -0.003899        0.016351
   6 H        0.125204        0.020251       -0.003899        0.016351
   7 O       -1.422858        1.093485       -1.395642       -0.302157
   8 H        0.209151        0.125961       -0.038573        0.087388
  --------------------------------------------------------------------
  Sum:       -1.000000        1.458752       -1.458752       -0.000000
  
  Multipole moment analysis of the density matrix
    Molecular charge:                      -1.000000
    Number of electrons:                   26.000000
      Center of electronic charge [Ang]: [  0.000000,  -0.000000,  -0.055069]
    Total nuclear charge:                  25.000000
      Center of nuclear charge [Ang]:    [  0.000000,   0.000000,  -0.000000]
    Dipole moment [D]:                     6.877183
      Cartesian components [D]:          [ -0.000000,   0.000000,   6.877183]
    RMS size of the density [Ang]:         1.856872
      Cartesian components [Ang]:        [  0.902975,   0.508663,   1.540738]
  
  Exciton analysis of the difference density matrix
    <r_h> [Ang]:                  [ -0.000000,   0.000000,  -1.418941]
    <r_e> [Ang]:                  [  0.000000,   0.000000,  -1.627430]
    |<r_e - r_h>| [Ang]:            0.208489
    Hole size [Ang]:                1.765882
      Cartesian components [Ang]: [  0.806475,   0.869045,   1.308700]
    Electron size [Ang]:            3.025629
      Cartesian components [Ang]: [  2.087580,   1.226959,   1.814115]

  Transition density matrix analysis:
  -----------------------------------
  
  CT numbers (Mulliken)
    omega =     0.8841
    <Phe> =    -0.0067
  
  Exciton analysis of the transition density matrix
    Trans. dipole moment [D]:             0.000000
      Cartesian components [D]:         [  0.000000,  -0.000000,  -0.000000]
    <r_h> [Ang]:                        [ -0.000000,   0.000000,  -1.511585]
    <r_e> [Ang]:                        [  0.000000,   0.000000,  -1.845190]
    |<r_e - r_h>| [Ang]:                  0.333605
    Hole size [Ang]:                      1.343372
      Cartesian components [Ang]:       [  0.500726,   0.811537,   0.946218]
    Electron size [Ang]:                  3.441474
      Cartesian components [Ang]:       [  2.452623,   1.407418,   1.961518]
    RMS electron-hole separation [Ang]:   3.596330
      Cartesian components [Ang]:       [  2.502337,   1.623018,   2.009406]
    Covariance(r_h, r_e) [Ang^2]:         0.413045
    Correlation coefficient:              0.089342
    Center-of-mass size [Ang]:            1.902267
      Cartesian components [Ang]:       [  1.252046,   0.813119,   1.178913]

  Decomposition into state-averaged NTOs
    H- 0 -> L+ 8: -0.6262 ( 78.4%)
    H- 2 -> L+ 1: -0.1920 (  7.4%)
    H- 0 -> L+ 3: -0.0973 (  1.9%)
                   omega =  88.4%
  ----------------------------------------------------------------------------


--------------------------------------------------------------------------------
  Time of ADC calculation:  CPU 949.82 s  wall 165.93 s
================================================================================
 
 --------------------------------------------------------------
             Orbital Energies (a.u.) and Symmetries
 --------------------------------------------------------------
 
 Alpha MOs, Restricted
 -- Occupied --                  
-20.202 -11.040 -11.038  -0.928  -0.852  -0.598  -0.473  -0.385
  1 A1    2 A1    1 B1    3 A1    4 A1    2 B1    5 A1    6 A1                 
 -0.329  -0.271  -0.195  -0.131  -0.130
  3 B1    7 A1    1 B2    4 B1    2 B2                                         
 -- Virtual --                   
  0.126   0.134   0.143   0.148   0.156   0.170   0.240   0.262
  5 B1    8 A1    3 B2    1 A2    6 B1    9 A1   10 A1    7 B1                 
  0.273   0.285   0.297   0.301   0.302   0.394   0.397   0.410
  2 A2   11 A1   12 A1    8 B1    4 B2    5 B2    3 A2    9 B1                 
  0.420   0.460   0.485   0.501   0.572   0.572   0.586   0.610
 13 A1   14 A1   10 B1   15 A1   16 A1   11 B1   12 B1   17 A1                 
  0.720   0.776   0.787   0.800   0.801   0.821   0.862   0.867
 18 A1   13 B1    6 B2   19 A1    7 B2   20 A1    4 A2   14 B1                 
  0.871   0.909   0.945   0.962   0.973   0.999   1.024   1.050
 21 A1    5 A2   15 B1   22 A1   23 A1   16 B1    8 B2   17 B1                 
  1.055   1.079   1.109   1.150   1.205   1.220   1.251   1.307
  6 A2    9 B2   18 B1   24 A1   25 A1   19 B1   10 B2   26 A1                 
  1.401   1.403   1.419   1.463   1.483   1.563   1.567   1.571
  7 A2   11 B2   20 B1   12 B2   27 A1   28 A1   21 B1    8 A2                 
  1.606   1.611   1.651   1.669   1.715   1.829   1.829   1.856
 13 B2   29 A1   30 A1   22 B1   23 B1    9 A2   31 A1   24 B1                 
  1.895   1.978   2.101   2.104   2.141   2.231   2.407   2.425
 25 B1   32 A1   33 A1   26 B1   34 A1   27 B1   14 B2   10 A2                 
  2.476   2.483   2.494   2.518   2.534   2.541   2.553   2.684
 28 B1   15 B2   35 A1   36 A1   11 A2   29 B1   37 A1   16 B2                 
  2.742   2.753   2.768   2.801   2.811   2.857   2.955   2.963
 38 A1   17 B2   39 A1   12 A2   30 B1   40 A1   18 B2   41 A1                 
  3.015   3.087   3.121   3.174   3.294   3.312   3.326   3.343
 31 B1   32 B1   42 A1   19 B2   20 B2   21 B2   43 A1   44 A1                 
  3.361   3.438   3.491   3.496   3.505   3.606   3.626   3.630
 13 A2   14 A2   45 A1   33 B1   34 B1   15 A2   16 A2   35 B1                 
  3.667   3.698   3.721   3.735   3.818   3.847   3.962   4.037
 36 B1   46 A1   37 B1   22 B2   47 A1   23 B2   48 A1   38 B1                 
  4.112   4.118   4.151   4.156   4.176   4.200   4.256   4.306
 49 A1   39 B1   17 A2   40 B1   18 A2   50 A1   24 B2   51 A1                 
  4.365   4.380   4.403   4.403   4.489   4.502   4.522   4.528
 19 A2   52 A1   41 B1   25 B2   26 B2   42 B1   43 B1   27 B2                 
  4.529   4.546   4.608   4.752   4.779   4.824   4.825   4.933
 53 A1   20 A2   28 B2   44 B1   54 A1   55 A1   21 A2   45 B1                 
  4.998   4.999   5.024   5.134   5.209   5.279   5.366   5.407
 22 A2   46 B1   56 A1   29 B2   57 A1   47 B1   58 A1   30 B2                 
  5.493   5.497   5.528   5.616   5.630   5.732   5.735   5.815
 48 B1   59 A1   60 A1   23 A2   31 B2   49 B1   24 A2   50 B1                 
  5.820   6.025   6.171   6.374   6.457   6.582   6.762   6.884
 61 A1   62 A1   51 B1   63 A1   52 B1   64 A1   53 B1   32 B2                 
  6.898   6.904   6.992   7.093   7.431   7.448   7.461   7.531
 25 A2   54 B1   65 A1   55 B1   26 A2   66 A1   33 B2   34 B2                 
  7.554   7.663   7.796   8.409  12.232  12.447  15.140
 56 B1   57 B1   67 A1   68 A1   69 A1   70 A1   58 B1                         
 
 Beta MOs, Restricted
 -- Occupied --                  
-20.202 -11.040 -11.038  -0.928  -0.852  -0.598  -0.473  -0.385
  1 A1    2 A1    1 B1    3 A1    4 A1    2 B1    5 A1    6 A1                 
 -0.329  -0.271  -0.195  -0.131  -0.130
  3 B1    7 A1    1 B2    4 B1    2 B2                                         
 -- Virtual --                   
  0.126   0.134   0.143   0.148   0.156   0.170   0.240   0.262
  5 B1    8 A1    3 B2    1 A2    6 B1    9 A1   10 A1    7 B1                 
  0.273   0.285   0.297   0.301   0.302   0.394   0.397   0.410
  2 A2   11 A1   12 A1    8 B1    4 B2    5 B2    3 A2    9 B1                 
  0.420   0.460   0.485   0.501   0.572   0.572   0.586   0.610
 13 A1   14 A1   10 B1   15 A1   16 A1   11 B1   12 B1   17 A1                 
  0.720   0.776   0.787   0.800   0.801   0.821   0.862   0.867
 18 A1   13 B1    6 B2   19 A1    7 B2   20 A1    4 A2   14 B1                 
  0.871   0.909   0.945   0.962   0.973   0.999   1.024   1.050
 21 A1    5 A2   15 B1   22 A1   23 A1   16 B1    8 B2   17 B1                 
  1.055   1.079   1.109   1.150   1.205   1.220   1.251   1.307
  6 A2    9 B2   18 B1   24 A1   25 A1   19 B1   10 B2   26 A1                 
  1.401   1.403   1.419   1.463   1.483   1.563   1.567   1.571
  7 A2   11 B2   20 B1   12 B2   27 A1   28 A1   21 B1    8 A2                 
  1.606   1.611   1.651   1.669   1.715   1.829   1.829   1.856
 13 B2   29 A1   30 A1   22 B1   23 B1    9 A2   31 A1   24 B1                 
  1.895   1.978   2.101   2.104   2.141   2.231   2.407   2.425
 25 B1   32 A1   33 A1   26 B1   34 A1   27 B1   14 B2   10 A2                 
  2.476   2.483   2.494   2.518   2.534   2.541   2.553   2.684
 28 B1   15 B2   35 A1   36 A1   11 A2   29 B1   37 A1   16 B2                 
  2.742   2.753   2.768   2.801   2.811   2.857   2.955   2.963
 38 A1   17 B2   39 A1   12 A2   30 B1   40 A1   18 B2   41 A1                 
  3.015   3.087   3.121   3.174   3.294   3.312   3.326   3.343
 31 B1   32 B1   42 A1   19 B2   20 B2   21 B2   43 A1   44 A1                 
  3.361   3.438   3.491   3.496   3.505   3.606   3.626   3.630
 13 A2   14 A2   45 A1   33 B1   34 B1   15 A2   16 A2   35 B1                 
  3.667   3.698   3.721   3.735   3.818   3.847   3.962   4.037
 36 B1   46 A1   37 B1   22 B2   47 A1   23 B2   48 A1   38 B1                 
  4.112   4.118   4.151   4.156   4.176   4.200   4.256   4.306
 49 A1   39 B1   17 A2   40 B1   18 A2   50 A1   24 B2   51 A1                 
  4.365   4.380   4.403   4.403   4.489   4.502   4.522   4.528
 19 A2   52 A1   41 B1   25 B2   26 B2   42 B1   43 B1   27 B2                 
  4.529   4.546   4.608   4.752   4.779   4.824   4.825   4.933
 53 A1   20 A2   28 B2   44 B1   54 A1   55 A1   21 A2   45 B1                 
  4.998   4.999   5.024   5.134   5.209   5.279   5.366   5.407
 22 A2   46 B1   56 A1   29 B2   57 A1   47 B1   58 A1   30 B2                 
  5.493   5.497   5.528   5.616   5.630   5.732   5.735   5.815
 48 B1   59 A1   60 A1   23 A2   31 B2   49 B1   24 A2   50 B1                 
  5.820   6.025   6.171   6.374   6.457   6.582   6.762   6.884
 61 A1   62 A1   51 B1   63 A1   52 B1   64 A1   53 B1   32 B2                 
  6.898   6.904   6.992   7.093   7.431   7.448   7.461   7.531
 25 A2   54 B1   65 A1   55 B1   26 A2   66 A1   33 B2   34 B2                 
  7.554   7.663   7.796   8.409  12.232  12.447  15.140
 56 B1   57 B1   67 A1   68 A1   69 A1   70 A1   58 B1                         
 --------------------------------------------------------------
 
          Ground-State Mulliken Net Atomic Charges

     Atom                 Charge (a.u.)
  ----------------------------------------
      1 C                    -0.322446
      2 C                    -0.322446
      3 H                     0.224332
      4 H                     0.224332
      5 H                     0.092937
      6 H                     0.092937
      7 O                    -1.124570
      8 H                     0.134922
  ----------------------------------------
  Sum of atomic charges =    -1.000000

 -----------------------------------------------------------------
                    Cartesian Multipole Moments
 -----------------------------------------------------------------
    Charge (ESU x 10^10)
                -4.8032
    Dipole Moment (Debye)
         X      -0.0000      Y      -0.0000      Z       5.2222
       Tot       5.2222
    Quadrupole Moments (Debye-Ang)
        XX     -23.6049     XY       0.0000     YY     -26.4145
        XZ      -0.0000     YZ      -0.0000     ZZ     -33.0050
    Octopole Moments (Debye-Ang^2)
       XXX      -0.0000    XXY       0.0000    XYY       0.0000
       YYY      -0.0000    XXZ       1.0143    XYZ      -0.0000
       YYZ      -0.2866    XZZ      -0.0000    YZZ       0.0000
       ZZZ       6.5196
    Hexadecapole Moments (Debye-Ang^3)
      XXXX     -87.7967   XXXY      -0.0000   XXYY     -21.5641
      XYYY       0.0000   YYYY     -39.1913   XXXZ      -0.0000
      XXYZ      -0.0000   XYYZ       0.0000   YYYZ      -0.0000
      XXZZ     -70.1315   XYZZ       0.0000   YYZZ     -65.3976
      XZZZ      -0.0000   YZZZ      -0.0000   ZZZZ    -292.1310
 -----------------------------------------------------------------
 Total job time:  279.48s(wall), 1039.63s(cpu) 
 Thu Mar  3 02:21:50 2022

        *************************************************************
        *                                                           *
        *  Thank you very much for using Q-Chem.  Have a nice day.  *
        *                                                           *
        *************************************************************


