/src/tsommerfeld/qchem/exe/qcprog.exe .input2.206061.2345.qcin.1 /src/jdavis/qchem.scratch/qchem2345/

                  Welcome to Q-Chem
     A Quantum Leap Into The Future Of Chemistry


 Q-Chem 5.4 (devel), Q-Chem, Inc., Pleasanton, CA (2021)

 E. Epifanovsky,  A. T. B. Gilbert,  Xintian Feng,  Joonho Lee,  Yuezhi Mao,  
 N. Mardirossian,  P. Pokhilko,  A. White,  M. Wormit,  M. P. Coons,  
 A. L. Dempwolff,  Zhengting Gan,  D. Hait,  P. R. Horn,  L. D. Jacobson,  
 I. Kaliman,  J. Kussmann,  A. W. Lange,  Ka Un Lao,  D. S. Levine,  Jie Liu,  
 S. C. McKenzie,  A. F. Morrison,  K. Nanda,  F. Plasser,  D. R. Rehn,  
 M. L. Vidal,  Zhi-Qiang You,  Ying Zhu,  B. Alam,  B. Albrecht,  
 A. Aldossary,  E. Alguire,  J. H. Andersen,  D. Barton,  K. Begam,  A. Behn,  
 Y. A. Bernard,  E. J. Berquist,  H. Burton,  A. Carreras,  K. Carter-Fenk,  
 R. Chakraborty,  A. D. Chien,  K. D. Closser,  V. Cofer-Shabica,  
 S. Dasgupta,  Jia Deng,  M. de Wergifosse,  M. Diedenhofen,  Hainam Do,  
 S. Ehlert,  Po-Tung Fang,  S. Fatehi,  Qingguo Feng,  T. Friedhoff,  
 J. Gayvert,  Qinghui Ge,  G. Gidofalvi,  M. Goldey,  J. Gomes,  
 C. Gonzalez-Espinoza,  S. Gulania,  A. Gunina,  M. W. D. Hanson-Heine,  
 P. H. P. Harbach,  A. W. Hauser,  M. F. Herbst,  M. Hernandez Vera,  
 M. Hodecker,  Z. C. Holden,  S. Houck,  Xunkun Huang,  Kerwin Hui,  
 B. C. Huynh,  M. Ivanov,  Hyunjun Ji,  Hanjie Jiang,  B. Kaduk,  S. Kaehler,  
 K. Khistyaev,  Jaehoon Kim,  P. Klunzinger,  Z. Koczor-Benda,  
 Joong Hoon Koh,  D. Kosenkov,  L. Koulias,  T. Kowalczyk,  C. M. Krauter,  
 K. Kue,  A. Kunitsa,  T. Kus,  A. Landau,  K. V. Lawler,  D. Lefrancois,  
 S. Lehtola,  Rain Li,  Yi-Pei Li,  Jiashu Liang,  M. Liebenthal,  
 Hung-Hsuan Lin,  You-Sheng Lin,  Fenglai Liu,  Kuan-Yu Liu,  
 M. Loipersberger,  A. Luenser,  A. Manjanath,  P. Manohar,  E. Mansoor,  
 S. F. Manzer,  Shan-Ping Mao,  A. V. Marenich,  T. Markovich,  S. Mason,  
 S. A. Maurer,  P. F. McLaughlin,  M. F. S. J. Menger,  J.-M. Mewes,  
 S. A. Mewes,  P. Morgante,  J. W. Mullinax,  K. J. Oosterbaan,  G. Paran,  
 Alexander C. Paul,  Suranjan K. Paul,  F. Pavosevic,  Zheng Pei,  S. Prager,  
 E. I. Proynov,  E. Ramos,  B. Rana,  A. E. Rask,  A. Rettig,  R. M. Richard,  
 F. Rob,  E. Rossomme,  T. Scheele,  M. Scheurer,  M. Schneider,  
 N. Sergueev,  S. M. Sharada,  W. Skomorowski,  D. W. Small,  C. J. Stein,  
 Yu-Chuan Su,  E. J. Sundstrom,  Zhen Tao,  J. Thirman,  T. Tsuchimochi,  
 N. M. Tubman,  S. P. Veccham,  O. Vydrov,  J. Wenzel,  J. Witte,  A. Yamada,  
 Kun Yao,  S. Yeganeh,  S. R. Yost,  A. Zech,  Igor Ying Zhang,  Xing Zhang,  
 Yu Zhang,  D. Zuev,  A. Aspuru-Guzik,  A. T. Bell,  N. A. Besley,  
 K. B. Bravaya,  B. R. Brooks,  D. Casanova,  Jeng-Da Chai,  S. Coriani,  
 C. J. Cramer,  A. E. DePrince, III,  R. A. DiStasio Jr.,  A. Dreuw,  
 B. D. Dunietz,  T. R. Furlani,  W. A. Goddard III,  S. Grimme,  
 S. Hammes-Schiffer,  T. Head-Gordon,  W. J. Hehre,  Chao-Ping Hsu,  
 T.-C. Jagau,  Yousung Jung,  A. Klamt,  Jing Kong,  D. S. Lambrecht,  
 WanZhen Liang,  N. J. Mayhall,  C. W. McCurdy,  J. B. Neaton,  
 C. Ochsenfeld,  J. A. Parkhill,  R. Peverati,  V. A. Rassolov,  Yihan Shao,  
 L. V. Slipchenko,  T. Stauch,  R. P. Steele,  J. E. Subotnik,  
 A. J. W. Thom,  A. Tkatchenko,  D. G. Truhlar,  T. Van Voorhis,  
 T. A. Wesolowski,  K. B. Whaley,  H. L. Woodcock III,  P. M. Zimmerman,  
 S. Faraji,  P. M. W. Gill,  M. Head-Gordon,  J. M. Herbert,  A. I. Krylov

 Additional authors for Version 5.4.1: 
 S. Kotaru,  Shaozhi Li,  Xiangyuan Li,  F. Matz,  A. Molle,  Haisheng Ren,  
 Yingli Su,  Hung-Yi Tsai,  C. Utku,  Fang Wang

 Contributors to earlier versions of Q-Chem not listed above: 
 R. D. Adamson,  B. Austin,  R. Baer,  J. Baker,  G. J. O. Beran,  
 K. Brandhorst,  S. T. Brown,  E. F. C. Byrd,  A. K. Chakraborty,  
 G. K. L. Chan,  Chun-Min Chang,  Yunqing Chen,  C.-L. Cheng,  
 Siu Hung Chien,  D. M. Chipman,  D. L. Crittenden,  H. Dachsel,  
 R. J. Doerksen,  A. D. Dutoi,  R. G. Edgar,  J. Fosso-Tande,  
 L. Fusti-Molnar,  D. Ghosh,  A. Ghysels,  A. Golubeva-Zadorozhnaya,  
 J. Gonthier,  M. S. Gordon,  S. R. Gwaltney,  G. Hawkins,  J. E. Herr,  
 A. Heyden,  S. Hirata,  E. G. Hohenstein,  G. Kedziora,  F. J. Keil,  
 C. Kelley,  Jihan Kim,  R. A. King,  R. Z. Khaliullin,  P. P. Korambath,  
 W. Kurlancheek,  A. Laurent,  A. M. Lee,  M. S. Lee,  S. V. Levchenko,  
 Ching Yeh Lin,  D. Liotard,  E. Livshits,  R. C. Lochan,  I. Lotan,  
 L. A. Martinez-Martinez,  P. E. Maslen,  N. Nair,  D. P. O'Neill,  
 D. Neuhauser,  E. Neuscamman,  C. M. Oana,  R. Olivares-Amaya,  R. Olson,  
 T. M. Perrine,  B. Peters,  P. A. Pieniazek,  A. Prociuk,  Y. M. Rhee,  
 J. Ritchie,  M. A. Rohrdanz,  E. Rosta,  N. J. Russ,  H. F. Schaefer III,  
 M. W. Schmidt,  N. E. Schultz,  S. Sharma,  N. Shenvi,  C. D. Sherrill,  
 A. C. Simmonett,  A. Sodt,  T. Stein,  D. Stuck,  K. S. Thanthiriwatte,  
 V. Vanovschi,  L. Vogt,  Tao Wang,  A. Warshel,  M. A. Watson,  
 C. F. Williams,  Q. Wu,  X. Xu,  Jun Yang,  W. Zhang,  Yan Zhao

 Please cite Q-Chem as follows:
 Y. Shao et al., Mol. Phys. 113, 184-215 (2015)
 DOI: 10.1080/00268976.2014.952696

 Q-Chem 5.4.1 for Intel X86 EM64T Linux

 Parts of Q-Chem use Armadillo 9.900.5 (Nocturnal Misbehaviour).
 http://arma.sourceforge.net/

 Q-Chem begins on Thu Mar  3 04:15:29 2022  

 Host: node01
0

     Scratch files written to /src/jdavis/qchem.scratch/qchem2345//
 Processing $rem in /src/tsommerfeld/qchem/config/preferences:
 Processing $rem in /home/jdavis/.qchemrc:

 Checking the input file for inconsistencies... 	...done.

--------------------------------------------------------------
User input:
--------------------------------------------------------------
$molecule
-1 1
C        -0.6645000000    0.0000000000    1.1619088658
C         0.6645000000    0.0000000000    1.1619088658
H        -1.1590800000    0.0000000000    0.1995598658
H         1.1590800000    0.0000000000    0.1995598658
H        -1.1590800000    0.0000000000    2.1242568658
H         1.1590800000    0.0000000000    2.1242568658
O         0.0000000000    0.0000000000   -1.5841414040
H         0.0000000000    0.0000000000   -2.5471307683
$end
$rem
   METHOD adc(2)
   BASIS gen
   PURECART 11
   EE_STATES [0,10,0,0]
   scf_convergence 8
   ADC_DAVIDSON_MAXITER 120
   ADC_DAVIDSON_MAXSUBSPACE 200
   adc_nguess_singles 100
   THRESH 14
   S2THRESH 14
   adc_davidson_conv 5
   adc_davidson_thresh 14
   THREADS 10
   MEM_TOTAL 95000
   STATE_ANALYSIS TRUE
$end
$basis
C     1
S    10   1.00
      8.236000D+03           5.310000D-04
      1.235000D+03           4.108000D-03
      2.808000D+02           2.108700D-02
      7.927000D+01           8.185300D-02
      2.559000D+01           2.348170D-01
      8.997000D+00           4.344010D-01
      3.319000D+00           3.461290D-01
      9.059000D-01           3.937800D-02
      3.643000D-01          -8.983000D-03
      1.285000D-01           2.385000D-03
S    1   1.00
      9.059000D-01           1.000000D+00
S    10   1.00
      8.236000D+03          -1.130000D-04
      1.235000D+03          -8.780000D-04
      2.808000D+02          -4.540000D-03
      7.927000D+01          -1.813300D-02
      2.559000D+01          -5.576000D-02
      8.997000D+00          -1.268950D-01
      3.319000D+00          -1.703520D-01
      9.059000D-01           1.403820D-01
      3.643000D-01           5.986840D-01
      1.285000D-01           3.953890D-01
S    1   1.00
      1.285000D-01           1.000000D+00
P    1   1.00
      3.827000D-01           1.000000D+00
P    5   1.00
      1.871000D+01           1.403100D-02
      4.133000D+00           8.686600D-02
      1.200000D+00           2.902160D-01
      3.827000D-01           5.010080D-01
      1.209000D-01           3.434060D-01
P    1   1.00
      1.209000D-01           1.000000D+00
P   1   1.00
      0.0762036      1.0000000
P   1   1.00
      0.0381018      1.0000000
D    1   1.00
      1.097000D+00           1.000000D+00
D    1   1.00
      3.180000D-01           1.000000D+00
F    1   1.00
      7.610000D-01           1.0000000
****
C     2
S    10   1.00
      8.236000D+03           5.310000D-04
      1.235000D+03           4.108000D-03
      2.808000D+02           2.108700D-02
      7.927000D+01           8.185300D-02
      2.559000D+01           2.348170D-01
      8.997000D+00           4.344010D-01
      3.319000D+00           3.461290D-01
      9.059000D-01           3.937800D-02
      3.643000D-01          -8.983000D-03
      1.285000D-01           2.385000D-03
S    1   1.00
      9.059000D-01           1.000000D+00
S    10   1.00
      8.236000D+03          -1.130000D-04
      1.235000D+03          -8.780000D-04
      2.808000D+02          -4.540000D-03
      7.927000D+01          -1.813300D-02
      2.559000D+01          -5.576000D-02
      8.997000D+00          -1.268950D-01
      3.319000D+00          -1.703520D-01
      9.059000D-01           1.403820D-01
      3.643000D-01           5.986840D-01
      1.285000D-01           3.953890D-01
S    1   1.00
      1.285000D-01           1.000000D+00
P    1   1.00
      3.827000D-01           1.000000D+00
P    5   1.00
      1.871000D+01           1.403100D-02
      4.133000D+00           8.686600D-02
      1.200000D+00           2.902160D-01
      3.827000D-01           5.010080D-01
      1.209000D-01           3.434060D-01
P    1   1.00
      1.209000D-01           1.000000D+00
P   1   1.00
      0.0762036      1.0000000
P   1   1.00
      0.0381018      1.0000000
D    1   1.00
      1.097000D+00           1.000000D+00
D    1   1.00
      3.180000D-01           1.000000D+00
F    1   1.00
      7.610000D-01           1.0000000
****
H 3
cc-pVTZ
****
H 4
cc-pVTZ
****
H 5
cc-pVTZ
****
H 6
cc-pVTZ
****
O 7
aug-cc-pVTZ
****
H 8
cc-pVTZ
****
$end
--------------------------------------------------------------
 ----------------------------------------------------------------
             Standard Nuclear Orientation (Angstroms)
    I     Atom           X                Y                Z
 ----------------------------------------------------------------
    1      C      -0.6645000000    -0.0000000000     1.0270977517
    2      C       0.6645000000     0.0000000000     1.0270977517
    3      H      -1.1590800000    -0.0000000000     0.0647487517
    4      H       1.1590800000     0.0000000000     0.0647487517
    5      H      -1.1590800000    -0.0000000000     1.9894457517
    6      H       1.1590800000     0.0000000000     1.9894457517
    7      O       0.0000000000    -0.0000000000    -1.7189525181
    8      H       0.0000000000    -0.0000000000    -2.6819418824
 ----------------------------------------------------------------
 Molecular Point Group                 C2v   NOp =  4
 Largest Abelian Subgroup              C2v   NOp =  4
 Nuclear Repulsion Energy =          64.38561153 hartrees
 There are       13 alpha and       13 beta electrons
 Requested basis set is non-standard
 There are 68 shells and 188 basis functions
 Total memory of 95000 MB is distributed as follows: 
   MEM_STATIC is set to 192 MB
   QALLOC/CCMAN JOB total memory use is  94808 MB
 Warning: actual memory use might exceed 95000 MB

 Total QAlloc Memory Limit  95000 MB
 Mega-Array Size       188 MB
 MEM_STATIC part       192 MB

                       Distance Matrix (Angstroms)
             C (  1)   C (  2)   H (  3)   H (  4)   H (  5)   H (  6)
   C (  2)  1.329000
   H (  3)  1.082000  2.061931
   H (  4)  2.061931  1.082000  2.318160
   H (  5)  1.082000  2.061931  1.924697  3.013026
   H (  6)  2.061931  1.082000  3.013026  1.924697  2.318160
   O (  7)  2.825306  2.825306  2.127218  2.127218  3.885316  3.885316
   H (  8)  3.768094  3.768094  2.981237  2.981237  4.813037  4.813037
             O (  7)
   H (  8)  0.962989
 
 A cutoff of  1.0D-14 yielded   2306 shell pairs
 There are     17662 function pairs (     22530 Cartesian)
 Smallest overlap matrix eigenvalue = 3.79E-04

 Scale SEOQF with 1.000000e-01/1.000000e-01/1.000000e-01

 Standard Electronic Orientation quadrupole field applied
 Nucleus-field energy     =    -0.0000000051 hartrees
 ================ Generating on-the-fly SAD Guess ================
Attempting to make child job directory: /src/jdavis/qchem.scratch/qchem2345//Frg1/
Attempting to make child job directory: /src/jdavis/qchem.scratch/qchem2345//Frg2/
Attempting to make child job directory: /src/jdavis/qchem.scratch/qchem2345//Frg3/
Creating input file /src/jdavis/qchem.scratch/qchem2345/Frg1.input
using default PutDataFrgm: nothing
calling putenv with: QCSCRATCH=/src/jdavis/qchem.scratch/qchem2345/ 
Spawning Job For Fragment 0
Done Job For Fragment 0
calling putenv with: QCSCRATCH=/src/jdavis/qchem.scratch 
calling putenv with: QCTHREADS=1 
Creating input file /src/jdavis/qchem.scratch/qchem2345/Frg2.input
using default PutDataFrgm: nothing
calling putenv with: QCSCRATCH=/src/jdavis/qchem.scratch/qchem2345/ 
Spawning Job For Fragment 1
Done Job For Fragment 1
calling putenv with: QCSCRATCH=/src/jdavis/qchem.scratch 
calling putenv with: QCTHREADS=1 
Creating input file /src/jdavis/qchem.scratch/qchem2345/Frg3.input
using default PutDataFrgm: nothing
calling putenv with: QCSCRATCH=/src/jdavis/qchem.scratch/qchem2345/ 
Spawning Job For Fragment 2
Done Job For Fragment 2
calling putenv with: QCSCRATCH=/src/jdavis/qchem.scratch 
calling putenv with: QCTHREADS=1 
 Time for running child jobs:  CPU 1.72 s  wall 82.18 s
 ============= Method Specific SAD Guess Constructed =============
 Guess from on-the-fly superposition of atomic densities
 Warning: Energy on first SCF cycle will be non-variational
 A restricted Hartree-Fock SCF calculation will be
 performed using Pulay DIIS extrapolation
 SCF converges when DIIS error is below 1.0E-08
 using 10 threads for integral computing
 -------------------------------------------------------
 OpenMP Integral computing Module                
 Release: version 1.0, May 2013, Q-Chem Inc. Pittsburgh 
 -------------------------------------------------------
 ---------------------------------------
  Cycle       Energy         DIIS Error
 ---------------------------------------
    1    -153.5938354562      2.89E-02
    2    -153.3266708919      5.98E-03
    3    -153.3915137806      5.24E-03
    4    -153.4797598735      3.65E-04
    5    -153.4806890024      1.13E-04
    6    -153.4807714047      2.53E-05
    7    -153.4807773236      6.12E-06
    8    -153.4807778535      1.97E-06
    9    -153.4807779145      4.49E-07
   10    -153.4807779169      7.30E-08
   11    -153.4807779170      1.69E-08
   12    -153.4807779169      5.45E-09 Convergence criterion met
 ---------------------------------------
 SCF time:  CPU 55.76 s  wall 5.58 s
 SCF   energy in the final basis set = -153.48077792
 Total energy in the final basis set = -153.48077792
================================================================================
|                                                                              |
|                                 A D C  M A N                                 |
|                                                                              |
 ------------------------------------------------------------------------------ 
|                                                                              |
| Components:                                                                  |
|                                                                              |
| - libvmm - 1.3-trunk                                                         |
|   Authors:                                                                   |
|   Evgeny Epifanovsky, Ilya Kaliman                                           |
|                                                                              |
| - libtensor - 2.5-trunk                                                      |
|   Authors:                                                                   |
|   Evgeny Epifanovsky, Michael Wormit, Dmitry Zuev, Sam Manzer,               |
|   Ilya Kaliman                                                               |
|                                                                              |
| - libwfa - 1.1-trunk                                                         |
|   Authors:                                                                   |
|   Felix Plasser, Stefanie Mewes (Baeppler), Benjamin Thomitzni,              |
|   Michael Wormit, Feng Chen, Anna I. Krylov, Pavel Pokhilko                  |
|                                                                              |
| - libadc - 1.1-trunk                                                         |
|   Authors:                                                                   |
|   Michael Wormit, Adrian L. Dempwolff, Philipp H. P. Harbach,                |
|   Caroline Krauter, Dirk Rehn, Matthias Schneider, Jan Wenzel                |
|                                                                              |
| - adcman - 2.6-trunk                                                         |
|   Authors:                                                                   |
|   Michael Wormit, Adrian L. Dempwolff, Philipp H. P. Harbach,                |
|   Caroline Krauter, Daniel Lefrancois, Jan-Michael Mewes, Dirk Rehn,         |
|   Matthias Schneider, Jan Wenzel, Andreas Dreuw                              |
|                                                                              |
| Authors of earlier versions of ADCMAN:                                       |
| Andreas Dreuw, Jan Hendrik Starcke, Dirk Rehn, Michael Wormit                |
|                                                                              |
================================================================================

 
 Alpha MOs, Restricted
 -- Occupied --                  
-20.202 -11.040 -11.038  -0.928  -0.852  -0.597  -0.473  -0.384
  1 A1    2 A1    1 B1    3 A1    4 A1    2 B1    5 A1    6 A1                 
 -0.329  -0.271  -0.195  -0.131  -0.130
  3 B1    7 A1    1 B2    4 B1    2 B2                                         
 -- Virtual --                   
  0.182   0.190   0.207   0.216   0.223   0.233   0.278   0.332
  5 B1    8 A1    3 B2    1 A2    9 A1    6 B1   10 A1    2 A2                 
  0.351   0.386   0.399   0.400   0.430   0.447   0.465   0.469
 11 A1    4 B2    7 B1    8 B1   12 A1   13 A1    5 B2    9 B1                 
  0.498   0.521   0.527   0.543   0.601   0.622   0.642   0.647
 14 A1   10 B1   15 A1    3 A2   16 A1   11 B1   17 A1   12 B1                 
  0.795   0.807   0.853   0.865   0.879   0.909   0.920   0.921
  6 B2   18 A1   13 B1   19 A1   14 B1    4 A2   20 A1   21 A1                 
  0.944   0.974   0.991   0.998   1.033   1.052   1.061   1.064
 15 B1   22 A1    7 B2   23 A1    8 B2    5 A2   16 B1   17 B1                 
  1.078   1.096   1.182   1.220   1.221   1.248   1.251   1.330
  6 A2    9 B2   24 A1   18 B1   25 A1   19 B1   10 B2   26 A1                 
  1.405   1.412   1.423   1.465   1.565   1.587   1.588   1.592
 11 B2    7 A2   20 B1   12 B2   27 A1   28 A1   21 B1    8 A2                 
  1.609   1.645   1.666   1.686   1.804   1.829   1.839   1.883
 13 B2   29 A1   22 B1   30 A1   23 B1    9 A2   31 A1   24 B1                 
  1.938   1.979   2.113   2.123   2.154   2.253   2.408   2.426
 25 B1   32 A1   26 B1   33 A1   34 A1   27 B1   14 B2   10 A2                 
  2.485   2.493   2.499   2.532   2.534   2.547   2.566   2.739
 15 B2   35 A1   28 B1   36 A1   11 A2   29 B1   37 A1   16 B2                 
  2.744   2.824   2.877   2.882   2.892   2.944   2.967   3.055
 38 A1   30 B1   39 A1   17 B2   40 A1   12 A2   18 B2   41 A1                 
  3.091   3.166   3.175   3.190   3.296   3.314   3.343   3.362
 31 B1   42 A1   19 B2   32 B1   20 B2   21 B2   43 A1   13 A2                 
  3.372   3.461   3.492   3.519   3.532   3.612   3.627   3.655
 44 A1   14 A2   45 A1   33 B1   34 B1   15 A2   16 A2   35 B1                 
  3.709   3.719   3.728   3.735   3.841   3.847   3.957   4.039
 46 A1   36 B1   37 B1   22 B2   47 A1   23 B2   48 A1   38 B1                 
  4.126   4.137   4.157   4.178   4.189   4.199   4.258   4.311
 49 A1   39 B1   17 A2   18 A2   40 B1   50 A1   24 B2   51 A1                 
  4.366   4.381   4.403   4.403   4.491   4.503   4.523   4.529
 19 A2   52 A1   41 B1   25 B2   26 B2   42 B1   43 B1   27 B2                 
  4.540   4.547   4.609   4.760   4.811   4.825   4.826   4.940
 53 A1   20 A2   28 B2   44 B1   54 A1   21 A2   55 A1   45 B1                 
  5.001   5.007   5.027   5.143   5.211   5.274   5.365   5.407
 22 A2   46 B1   56 A1   29 B2   57 A1   47 B1   58 A1   30 B2                 
  5.493   5.509   5.538   5.616   5.632   5.732   5.740   5.817
 48 B1   59 A1   60 A1   23 A2   31 B2   49 B1   24 A2   50 B1                 
  5.825   6.067   6.243   6.427   6.492   6.587   6.815   6.884
 61 A1   62 A1   51 B1   63 A1   52 B1   64 A1   53 B1   32 B2                 
  6.898   6.904   6.992   7.104   7.431   7.448   7.461   7.532
 25 A2   54 B1   65 A1   55 B1   26 A2   66 A1   33 B2   34 B2                 
  7.555   7.664   7.798   8.410  12.242  12.735  15.141
 56 B1   57 B1   67 A1   68 A1   69 A1   70 A1   58 B1                         
 
 Beta MOs, Restricted
 -- Occupied --                  
-20.202 -11.040 -11.038  -0.928  -0.852  -0.597  -0.473  -0.384
  1 A1    2 A1    1 B1    3 A1    4 A1    2 B1    5 A1    6 A1                 
 -0.329  -0.271  -0.195  -0.131  -0.130
  3 B1    7 A1    1 B2    4 B1    2 B2                                         
 -- Virtual --                   
  0.182   0.190   0.207   0.216   0.223   0.233   0.278   0.332
  5 B1    8 A1    3 B2    1 A2    9 A1    6 B1   10 A1    2 A2                 
  0.351   0.386   0.399   0.400   0.430   0.447   0.465   0.469
 11 A1    4 B2    7 B1    8 B1   12 A1   13 A1    5 B2    9 B1                 
  0.498   0.521   0.527   0.543   0.601   0.622   0.642   0.647
 14 A1   10 B1   15 A1    3 A2   16 A1   11 B1   17 A1   12 B1                 
  0.795   0.807   0.853   0.865   0.879   0.909   0.920   0.921
  6 B2   18 A1   13 B1   19 A1   14 B1    4 A2   20 A1   21 A1                 
  0.944   0.974   0.991   0.998   1.033   1.052   1.061   1.064
 15 B1   22 A1    7 B2   23 A1    8 B2    5 A2   16 B1   17 B1                 
  1.078   1.096   1.182   1.220   1.221   1.248   1.251   1.330
  6 A2    9 B2   24 A1   18 B1   25 A1   19 B1   10 B2   26 A1                 
  1.405   1.412   1.423   1.465   1.565   1.587   1.588   1.592
 11 B2    7 A2   20 B1   12 B2   27 A1   28 A1   21 B1    8 A2                 
  1.609   1.645   1.666   1.686   1.804   1.829   1.839   1.883
 13 B2   29 A1   22 B1   30 A1   23 B1    9 A2   31 A1   24 B1                 
  1.938   1.979   2.113   2.123   2.154   2.253   2.408   2.426
 25 B1   32 A1   26 B1   33 A1   34 A1   27 B1   14 B2   10 A2                 
  2.485   2.493   2.499   2.532   2.534   2.547   2.566   2.739
 15 B2   35 A1   28 B1   36 A1   11 A2   29 B1   37 A1   16 B2                 
  2.744   2.824   2.877   2.882   2.892   2.944   2.967   3.055
 38 A1   30 B1   39 A1   17 B2   40 A1   12 A2   18 B2   41 A1                 
  3.091   3.166   3.175   3.190   3.296   3.314   3.343   3.362
 31 B1   42 A1   19 B2   32 B1   20 B2   21 B2   43 A1   13 A2                 
  3.372   3.461   3.492   3.519   3.532   3.612   3.627   3.655
 44 A1   14 A2   45 A1   33 B1   34 B1   15 A2   16 A2   35 B1                 
  3.709   3.719   3.728   3.735   3.841   3.847   3.957   4.039
 46 A1   36 B1   37 B1   22 B2   47 A1   23 B2   48 A1   38 B1                 
  4.126   4.137   4.157   4.178   4.189   4.199   4.258   4.311
 49 A1   39 B1   17 A2   18 A2   40 B1   50 A1   24 B2   51 A1                 
  4.366   4.381   4.403   4.403   4.491   4.503   4.523   4.529
 19 A2   52 A1   41 B1   25 B2   26 B2   42 B1   43 B1   27 B2                 
  4.540   4.547   4.609   4.760   4.811   4.825   4.826   4.940
 53 A1   20 A2   28 B2   44 B1   54 A1   21 A2   55 A1   45 B1                 
  5.001   5.007   5.027   5.143   5.211   5.274   5.365   5.407
 22 A2   46 B1   56 A1   29 B2   57 A1   47 B1   58 A1   30 B2                 
  5.493   5.509   5.538   5.616   5.632   5.732   5.740   5.817
 48 B1   59 A1   60 A1   23 A2   31 B2   49 B1   24 A2   50 B1                 
  5.825   6.067   6.243   6.427   6.492   6.587   6.815   6.884
 61 A1   62 A1   51 B1   63 A1   52 B1   64 A1   53 B1   32 B2                 
  6.898   6.904   6.992   7.104   7.431   7.448   7.461   7.532
 25 A2   54 B1   65 A1   55 B1   26 A2   66 A1   33 B2   34 B2                 
  7.555   7.664   7.798   8.410  12.242  12.735  15.141
 56 B1   57 B1   67 A1   68 A1   69 A1   70 A1   58 B1                         

--------------------------------------------------------------------------------
                                   HF Summary                                   
--------------------------------------------------------------------------------
  Energy:                                                 -153.4807779169 a.u.
  Dip. moment [a.u.]:                  [   0.000000,    0.000000,    2.052666]
  Total dipole [Debye]:                                               5.217357
  <r^2> [a.u.]:                        [  55.651126,   19.627286,  208.130403]
  Total <r^2> [a.u.]:                                               283.408815
--------------------------------------------------------------------------------

--------------------------------------------------------------------------------
                                 MP(2) Summary                                  
--------------------------------------------------------------------------------
  MP energy contribution:                                   -0.6755603945 a.u.
  Total energy:                                           -154.1563383114 a.u.
  Dip. moment [a.u.]:                  [   0.000000,   -0.000000,    2.126740]
  Total dipole [Debye]:                                               5.405634
  <r^2> [a.u.]:                        [  56.350551,   20.080965,  209.117371]
  Total <r^2> [a.u.]:                                               285.548887

  Density matrix analysis:
  ------------------------
  NOs
    Occupation of frontier NOs:
       0.0452   1.9307
    Number of electrons: 26.000000
    Number of unpaired electrons: n_u =  0.78669, n_u,nl =  0.09729
    NO participation ratio (PR_NO): 24.356434
  
  
  Mulliken Population Analysis
  Atom      Charge (e)              h+              e-           Del q
  --------------------------------------------------------------------
   1 C       -0.334109        0.095099       -0.117356       -0.022256
   2 C       -0.334109        0.095099       -0.117356       -0.022256
   3 H        0.233189        0.024548       -0.011642        0.012906
   4 H        0.233189        0.024548       -0.011642        0.012906
   5 H        0.102777        0.025765       -0.010527        0.015238
   6 H        0.102777        0.025765       -0.010527        0.015238
   7 O       -1.130568        0.262984       -0.262962        0.000022
   8 H        0.126855        0.020456       -0.032254       -0.011798
  --------------------------------------------------------------------
  Sum:       -1.000000        0.574265       -0.574265       -0.000000
  
  Multipole moment analysis of the density matrix
    Molecular charge:                      -1.000000
    Number of electrons:                   26.000000
      Center of electronic charge [Ang]: [ -0.000000,   0.000000,  -0.043285]
    Total nuclear charge:                  25.000000
      Center of nuclear charge [Ang]:    [  0.000000,   0.000000,  -0.000000]
    Dipole moment [D]:                     5.405632
      Cartesian components [D]:          [  0.000000,  -0.000000,   5.405632]
    RMS size of the density [Ang]:         1.753163
      Cartesian components [Ang]:        [  0.779047,   0.465058,   1.500130]
  
  Exciton analysis of the difference density matrix
    <r_h> [Ang]:                  [ -0.000000,   0.000000,  -0.365527]
    <r_e> [Ang]:                  [ -0.000000,   0.000000,  -0.433784]
    |<r_e - r_h>| [Ang]:            0.068258
    Hole size [Ang]:                1.957799
      Cartesian components [Ang]: [  0.859983,   0.746127,   1.592703]
    Electron size [Ang]:            2.195901
      Cartesian components [Ang]: [  1.039534,   0.882005,   1.721458]
--------------------------------------------------------------------------------
  Starting Davidson for singlet states of irrep A2 ... 
--------------------------------------------------------------------------------
   It NVec Conv  Avg. Norm  Max. Norm  Conv. states           Remark
--------------------------------------------------------------------------------
       100    0  1.612e-01  5.620e-01  0.2864 n n n n n n n n Guess.
    1  110    0  1.504e-02  8.005e-02  0.1098 n n n n n n n n 
    2  120    0  1.077e-02  9.507e-02  0.1084 n n n n n n n n 
    3  130    0  1.634e-02  1.323e-01  0.1083 n n n n n n n n 
    4  140    0  3.161e-03  2.705e-02  0.1083 n n n n n n n n 
    5  150    0  5.135e-04  4.390e-03  0.1083 n n n n n n n n 
    6  160    4  9.175e-05  7.616e-04  0.1083 y y y n y n n n 
    7  170    8  1.526e-05  1.244e-04  0.1083 y y y y y y y n 
    8  180    8  1.879e-06  1.568e-05  0.1083 y y y y y y y n 
    9  190   10  2.539e-07  1.987e-06  0.1083 y y y y y y y y Converged.
--------------------------------------------------------------------------------
  Davidson Summary: 
 ------------------------------------------------------------
  State  0: excitation energy =   0.1083 a.u.   (converged)
  State  1: excitation energy =   0.1261 a.u.   (converged)
  State  2: excitation energy =   0.1456 a.u.   (converged)
  State  3: excitation energy =   0.2348 a.u.   (converged)
  State  4: excitation energy =   0.2397 a.u.   (converged)
  State  5: excitation energy =   0.2504 a.u.   (converged)
  State  6: excitation energy =   0.2699 a.u.   (converged)
  State  7: excitation energy =   0.2930 a.u.   (converged)
  State  8: excitation energy =   0.3003 a.u.   (converged)
  State  9: excitation energy =   0.3298 a.u.   (converged)
 ------------------------------------------------------------


--------------------------------------------------------------------------------
                   State-averaged natural transition orbitals
--------------------------------------------------------------------------------
--------------------------------------------------------------------------------

--------------------------------------------------------------------------------
                             Excited State Summary
--------------------------------------------------------------------------------
--------------------------------------------------------------------------------

  Excited state 1 (singlet, A2)                                    [converged]
  ----------------------------------------------------------------------------
  Term symbol:  1 (1) A2                                    R^2 =  3.46259e-09

  Total energy:                                           -154.0479908927 a.u.
  Excitation energy:                                               2.948283 eV

  Osc. strength:                                                      0.000000
  Trans. dip. moment [a.u.]:           [   0.000000,   -0.000000,    0.000000]
  <i|r^2|0> [a.u.]:                    [  -0.000000,   -0.000000,   -0.000000]

  Dip. moment [a.u.]:                  [  -0.000000,    0.000000,   -3.656984]
  Total dipole [Debye]:                                               9.295128
  <r^2> [a.u.]:                        [  91.851387,   28.855069,  211.904473]
  Total <r^2> [a.u.]:                                               332.610930

  V1^2 = 0.8671, V2^2 = 0.1329

  Important amplitudes:
      occ i      occ j       vir a       vir b          v   
    ---------------------------------------------------------
     2 (B2) A               5 (B1) A                  0.6176
     2 (B2) A               6 (B1) A                 -0.2071
    ---------------------------------------------------------

  Density matrix analysis:
  ------------------------
  NOs
    Occupation of frontier NOs:
       0.9622   0.9972
    Number of electrons: 26.000000
    Number of unpaired electrons: n_u =  2.80309, n_u,nl =  2.12136
    NO participation ratio (PR_NO):  4.023247
  
  
  Mulliken Population Analysis
  Atom      Charge (e)              h+              e-           Del q
  --------------------------------------------------------------------
   1 C       -0.797887        0.042329       -0.506107       -0.463777
   2 C       -0.797887        0.042329       -0.506107       -0.463777
   3 H        0.191522        0.008144       -0.049811       -0.041667
   4 H        0.191522        0.008144       -0.049811       -0.041667
   5 H        0.093235        0.035269       -0.044810       -0.009542
   6 H        0.093235        0.035269       -0.044810       -0.009542
   7 O       -0.204888        1.389756       -0.464076        0.925680
   8 H        0.231146        0.132773       -0.028481        0.104291
  --------------------------------------------------------------------
  Sum:       -1.000000        1.694013       -1.694013        0.000000
  
  Multipole moment analysis of the density matrix
    Molecular charge:                      -1.000000
    Number of electrons:                   26.000000
      Center of electronic charge [Ang]: [  0.000000,  -0.000000,   0.074430]
    Total nuclear charge:                  25.000000
      Center of nuclear charge [Ang]:    [  0.000000,   0.000000,  -0.000000]
    Dipole moment [D]:                     9.295125
      Cartesian components [D]:          [ -0.000000,   0.000000,  -9.295125]
    RMS size of the density [Ang]:         1.891240
      Cartesian components [Ang]:        [  0.994620,   0.557475,   1.508887]
  
  Exciton analysis of the difference density matrix
    <r_h> [Ang]:                  [  0.000000,   0.000000,  -1.447274]
    <r_e> [Ang]:                  [  0.000000,  -0.000000,   0.359451]
    |<r_e - r_h>| [Ang]:            1.806724
    Hole size [Ang]:                1.776044
      Cartesian components [Ang]: [  0.839372,   0.858606,   1.308657]
    Electron size [Ang]:            3.591561
      Cartesian components [Ang]: [  2.563787,   1.479056,   2.034380]

  Transition density matrix analysis:
  -----------------------------------
  
  CT numbers (Mulliken)
    omega =     0.8497
    <Phe> =     0.0001
  
  Exciton analysis of the transition density matrix
    Trans. dipole moment [D]:             0.000000
      Cartesian components [D]:         [  0.000000,  -0.000000,   0.000000]
    <r_h> [Ang]:                        [ -0.000000,   0.000000,  -1.743572]
    <r_e> [Ang]:                        [  0.000000,  -0.000000,   1.420115]
    |<r_e - r_h>| [Ang]:                  3.163687
    Hole size [Ang]:                      1.091273
      Cartesian components [Ang]:       [  0.472087,   0.811534,   0.556260]
    Electron size [Ang]:                  4.129458
      Cartesian components [Ang]:       [  3.259129,   1.836816,   1.748317]
    RMS electron-hole separation [Ang]:   5.312818
      Cartesian components [Ang]:       [  3.292623,   2.005275,   3.655618]
    Covariance(r_h, r_e) [Ang^2]:         0.013092
    Correlation coefficient:              0.002905
    Center-of-mass size [Ang]:            2.137141
      Cartesian components [Ang]:       [  1.646831,   1.005464,   0.918892]

  Decomposition into state-averaged NTOs
    H- 0 -> L+ 0:  0.4948 ( 49.0%)
    H- 0 -> L+ 1:  0.4182 ( 35.0%)
                   omega =  85.0%
  ----------------------------------------------------------------------------


  Excited state 2 (singlet, A2)                                    [converged]
  ----------------------------------------------------------------------------
  Term symbol:  2 (1) A2                                    R^2 =  3.27995e-09

  Total energy:                                           -154.0302448266 a.u.
  Excitation energy:                                               3.431178 eV

  Osc. strength:                                                      0.000000
  Trans. dip. moment [a.u.]:           [   0.000000,    0.000000,    0.000000]
  <i|r^2|0> [a.u.]:                    [   0.000000,    0.000000,   -0.000000]

  Dip. moment [a.u.]:                  [   0.000000,    0.000000,   -3.232597]
  Total dipole [Debye]:                                               8.216445
  <r^2> [a.u.]:                        [  64.833669,   51.389057,  208.855461]
  Total <r^2> [a.u.]:                                               325.078187

  V1^2 = 0.8698, V2^2 = 0.1302

  Important amplitudes:
      occ i      occ j       vir a       vir b          v   
    ---------------------------------------------------------
     4 (B1) A               3 (B2) A                  0.6543
     4 (B1) A               5 (B2) A                  0.0604
    ---------------------------------------------------------

  Density matrix analysis:
  ------------------------
  NOs
    Occupation of frontier NOs:
       0.9632   0.9990
    Number of electrons: 26.000000
    Number of unpaired electrons: n_u =  2.79805, n_u,nl =  2.11972
    NO participation ratio (PR_NO):  3.998397
  
  
  Mulliken Population Analysis
  Atom      Charge (e)              h+              e-           Del q
  --------------------------------------------------------------------
   1 C       -0.811741        0.064348       -0.541979       -0.477632
   2 C       -0.811741        0.064348       -0.541979       -0.477632
   3 H        0.181507       -0.002478       -0.049204       -0.051682
   4 H        0.181507       -0.002478       -0.049204       -0.051682
   5 H        0.116725        0.018926       -0.004978        0.013948
   6 H        0.116725        0.018926       -0.004978        0.013948
   7 O       -0.203469        1.389267       -0.462168        0.927099
   8 H        0.230488        0.131225       -0.027592        0.103633
  --------------------------------------------------------------------
  Sum:       -1.000000        1.682084       -1.682084       -0.000000
  
  Multipole moment analysis of the density matrix
    Molecular charge:                      -1.000000
    Number of electrons:                   26.000000
      Center of electronic charge [Ang]: [ -0.000000,  -0.000000,   0.065793]
    Total nuclear charge:                  25.000000
      Center of nuclear charge [Ang]:    [  0.000000,   0.000000,  -0.000000]
    Dipole moment [D]:                     8.216442
      Cartesian components [D]:          [  0.000000,   0.000000,  -8.216442]
    RMS size of the density [Ang]:         1.869992
      Cartesian components [Ang]:        [  0.835631,   0.743960,   1.498370]
  
  Exciton analysis of the difference density matrix
    <r_h> [Ang]:                  [  0.000000,   0.000000,  -1.450296]
    <r_e> [Ang]:                  [ -0.000000,  -0.000000,   0.235730]
    |<r_e - r_h>| [Ang]:            1.686027
    Hole size [Ang]:                1.764283
      Cartesian components [Ang]: [  0.903244,   0.769745,   1.305502]
    Electron size [Ang]:            3.426545
      Cartesian components [Ang]: [  1.492681,   2.409271,   1.925753]

  Transition density matrix analysis:
  -----------------------------------
  
  CT numbers (Mulliken)
    omega =     0.8517
    <Phe> =     0.0000
  
  Exciton analysis of the transition density matrix
    Trans. dipole moment [D]:             0.000000
      Cartesian components [D]:         [  0.000000,   0.000000,   0.000000]
    <r_h> [Ang]:                        [  0.000000,  -0.000000,  -1.722822]
    <r_e> [Ang]:                        [  0.000000,  -0.000000,   1.222654]
    |<r_e - r_h>| [Ang]:                  2.945476
    Hole size [Ang]:                      1.128135
      Cartesian components [Ang]:       [  0.809445,   0.463266,   0.634722]
    Electron size [Ang]:                  3.925403
      Cartesian components [Ang]:       [  1.816862,   3.062000,   1.652862]
    RMS electron-hole separation [Ang]:   5.033669
      Cartesian components [Ang]:       [  1.985614,   3.096748,   3.435886]
    Covariance(r_h, r_e) [Ang^2]:         0.009739
    Correlation coefficient:              0.002199
    Center-of-mass size [Ang]:            2.043340
      Cartesian components [Ang]:       [  0.996207,   1.548473,   0.886026]

  Decomposition into state-averaged NTOs
    H- 2 -> L+ 5: -0.6296 ( 79.3%)
    H- 2 -> L+ 3:  0.1703 (  5.8%)
                   omega =  85.2%
  ----------------------------------------------------------------------------


  Excited state 3 (singlet, A2)                                    [converged]
  ----------------------------------------------------------------------------
  Term symbol:  3 (1) A2                                    R^2 =  3.65278e-09

  Total energy:                                           -154.0107353113 a.u.
  Excitation energy:                                               3.962059 eV

  Osc. strength:                                                      0.000000
  Trans. dip. moment [a.u.]:           [   0.000000,    0.000000,    0.000000]
  <i|r^2|0> [a.u.]:                    [   0.000000,    0.000000,    0.000000]

  Dip. moment [a.u.]:                  [  -0.000000,    0.000000,   -2.811239]
  Total dipole [Debye]:                                               7.145458
  <r^2> [a.u.]:                        [  86.110462,   26.687167,  223.905475]
  Total <r^2> [a.u.]:                                               336.703104

  V1^2 = 0.8719, V2^2 = 0.1281

  Important amplitudes:
      occ i      occ j       vir a       vir b          v   
    ---------------------------------------------------------
     2 (B2) A               6 (B1) A                  0.6146
     2 (B2) A               5 (B1) A                  0.2047
    ---------------------------------------------------------

  Density matrix analysis:
  ------------------------
  NOs
    Occupation of frontier NOs:
       0.9629   1.0003
    Number of electrons: 26.000000
    Number of unpaired electrons: n_u =  2.79398, n_u,nl =  2.11742
    NO participation ratio (PR_NO):  3.986490
  
  
  Mulliken Population Analysis
  Atom      Charge (e)              h+              e-           Del q
  --------------------------------------------------------------------
   1 C       -0.753758        0.033912       -0.453561       -0.419649
   2 C       -0.753758        0.033912       -0.453561       -0.419649
   3 H        0.135107        0.003130       -0.101212       -0.098082
   4 H        0.135107        0.003130       -0.101212       -0.098082
   5 H        0.069980        0.035846       -0.068642       -0.032797
   6 H        0.069980        0.035846       -0.068642       -0.032797
   7 O       -0.133526        1.392649       -0.395607        0.997042
   8 H        0.230867        0.132913       -0.028901        0.104012
  --------------------------------------------------------------------
  Sum:       -1.000000        1.671337       -1.671337       -0.000000
  
  Multipole moment analysis of the density matrix
    Molecular charge:                      -1.000000
    Number of electrons:                   26.000000
      Center of electronic charge [Ang]: [  0.000000,  -0.000000,   0.057217]
    Total nuclear charge:                  25.000000
      Center of nuclear charge [Ang]:    [  0.000000,   0.000000,  -0.000000]
    Dipole moment [D]:                     7.145456
      Cartesian components [D]:          [ -0.000000,   0.000000,  -7.145456]
    RMS size of the density [Ang]:         1.903452
      Cartesian components [Ang]:        [  0.963036,   0.536125,   1.551857]
  
  Exciton analysis of the difference density matrix
    <r_h> [Ang]:                  [  0.000000,   0.000000,  -1.443722]
    <r_e> [Ang]:                  [  0.000000,  -0.000000,   0.119737]
    |<r_e - r_h>| [Ang]:            1.563458
    Hole size [Ang]:                1.797289
      Cartesian components [Ang]: [  0.824800,   0.860681,   1.345058]
    Electron size [Ang]:            3.724380
      Cartesian components [Ang]: [  2.380440,   1.359274,   2.521287]

  Transition density matrix analysis:
  -----------------------------------
  
  CT numbers (Mulliken)
    omega =     0.8540
    <Phe> =    -0.0004
  
  Exciton analysis of the transition density matrix
    Trans. dipole moment [D]:             0.000000
      Cartesian components [D]:         [  0.000000,   0.000000,   0.000000]
    <r_h> [Ang]:                        [ -0.000000,   0.000000,  -1.746494]
    <r_e> [Ang]:                        [  0.000000,  -0.000000,   0.935342]
    |<r_e - r_h>| [Ang]:                  2.681837
    Hole size [Ang]:                      1.085967
      Cartesian components [Ang]:       [  0.471471,   0.811070,   0.546996]
    Electron size [Ang]:                  4.392468
      Cartesian components [Ang]:       [  2.997515,   1.662444,   2.746808]
    RMS electron-hole separation [Ang]:   5.256897
      Cartesian components [Ang]:       [  3.033956,   1.849291,   3.874300]
    Covariance(r_h, r_e) [Ang^2]:         0.015190
    Correlation coefficient:              0.003184
    Center-of-mass size [Ang]:            2.264038
      Cartesian components [Ang]:       [  1.517389,   0.925099,   1.402709]

  Decomposition into state-averaged NTOs
    H- 0 -> L+ 1:  0.4894 ( 47.9%)
    H- 0 -> L+ 0: -0.4162 ( 34.7%)
    H- 0 -> L+ 4: -0.1132 (  2.6%)
                   omega =  85.4%
  ----------------------------------------------------------------------------


  Excited state 4 (singlet, A2)                                    [converged]
  ----------------------------------------------------------------------------
  Term symbol:  4 (1) A2                                    R^2 =  2.74747e-08

  Total energy:                                           -153.9215778924 a.u.
  Excitation energy:                                               6.388156 eV

  Osc. strength:                                                      0.000000
  Trans. dip. moment [a.u.]:           [  -0.000000,   -0.000000,    0.000000]
  <i|r^2|0> [a.u.]:                    [   0.000000,    0.000000,    0.000000]

  Dip. moment [a.u.]:                  [   0.000000,    0.000000,    1.930871]
  Total dipole [Debye]:                                               4.907784
  <r^2> [a.u.]:                        [  58.148169,   32.704107,  214.099197]
  Total <r^2> [a.u.]:                                               304.951472

  V1^2 = 0.9088, V2^2 = 0.0912

  Important amplitudes:
      occ i      occ j       vir a       vir b          v   
    ---------------------------------------------------------
     4 (B1) A               4 (B2) A                  0.6633
     4 (B1) A               5 (B2) A                  0.0860
    ---------------------------------------------------------

  Density matrix analysis:
  ------------------------
  NOs
    Occupation of frontier NOs:
       0.9732   1.0065
    Number of electrons: 26.000000
    Number of unpaired electrons: n_u =  2.73040, n_u,nl =  2.09466
    NO participation ratio (PR_NO):  3.804990
  
  
  Mulliken Population Analysis
  Atom      Charge (e)              h+              e-           Del q
  --------------------------------------------------------------------
   1 C       -0.316148        0.042761       -0.024799        0.017962
   2 C       -0.316148        0.042761       -0.024799        0.017962
   3 H        0.206419       -0.003466       -0.023304       -0.026770
   4 H        0.206419       -0.003466       -0.023304       -0.026770
   5 H        0.113160        0.013448       -0.003065        0.010383
   6 H        0.113160        0.013448       -0.003065        0.010383
   7 O       -1.224760        1.242337       -1.336529       -0.094192
   8 H        0.217896        0.119969       -0.028927        0.091041
  --------------------------------------------------------------------
  Sum:       -1.000000        1.467792       -1.467792       -0.000000
  
  Multipole moment analysis of the density matrix
    Molecular charge:                      -1.000000
    Number of electrons:                   26.000000
      Center of electronic charge [Ang]: [ -0.000000,  -0.000000,  -0.039299]
    Total nuclear charge:                  25.000000
      Center of nuclear charge [Ang]:    [  0.000000,   0.000000,  -0.000000]
    Dipole moment [D]:                     4.907783
      Cartesian components [D]:          [  0.000000,   0.000000,   4.907783]
    RMS size of the density [Ang]:         1.811873
      Cartesian components [Ang]:        [  0.791375,   0.593493,   1.518016]
  
  Exciton analysis of the difference density matrix
    <r_h> [Ang]:                  [  0.000000,   0.000000,  -1.571734]
    <r_e> [Ang]:                  [ -0.000000,   0.000000,  -1.501118]
    |<r_e - r_h>| [Ang]:            0.070616
    Hole size [Ang]:                1.589230
      Cartesian components [Ang]: [  0.876839,   0.658906,   1.150064]
    Electron size [Ang]:            2.538564
      Cartesian components [Ang]: [  1.054419,   1.685950,   1.578000]

  Transition density matrix analysis:
  -----------------------------------
  
  CT numbers (Mulliken)
    omega =     0.8851
    <Phe> =    -0.0026
  
  Exciton analysis of the transition density matrix
    Trans. dipole moment [D]:             0.000000
      Cartesian components [D]:         [ -0.000000,  -0.000000,   0.000000]
    <r_h> [Ang]:                        [  0.000000,  -0.000000,  -1.734560]
    <r_e> [Ang]:                        [  0.000000,   0.000000,  -1.628065]
    |<r_e - r_h>| [Ang]:                  0.106495
    Hole size [Ang]:                      1.097150
      Cartesian components [Ang]:       [  0.798923,   0.460220,   0.594692]
    Electron size [Ang]:                  2.879518
      Cartesian components [Ang]:       [  1.175867,   2.006838,   1.697515]
    RMS electron-hole separation [Ang]:   3.075702
      Cartesian components [Ang]:       [  1.419868,   2.057970,   1.791276]
    Covariance(r_h, r_e) [Ang^2]:         0.023380
    Correlation coefficient:              0.007401
    Center-of-mass size [Ang]:            1.544516
      Cartesian components [Ang]:       [  0.711663,   1.029947,   0.904586]

  Decomposition into state-averaged NTOs
    H- 2 -> L+ 3:  0.6425 ( 82.6%)
    H- 2 -> L+ 5:  0.1666 (  5.6%)
                   omega =  88.5%
  ----------------------------------------------------------------------------


  Excited state 5 (singlet, A2)                                    [converged]
  ----------------------------------------------------------------------------
  Term symbol:  5 (1) A2                                    R^2 =  6.85180e-09

  Total energy:                                           -153.9166035393 a.u.
  Excitation energy:                                               6.523515 eV

  Osc. strength:                                                      0.000000
  Trans. dip. moment [a.u.]:           [   0.000000,   -0.000000,   -0.000000]
  <i|r^2|0> [a.u.]:                    [   0.000000,    0.000000,    0.000000]

  Dip. moment [a.u.]:                  [   0.000000,    0.000000,   -0.265961]
  Total dipole [Debye]:                                               0.676005
  <r^2> [a.u.]:                        [  84.922052,   26.761548,  227.605530]
  Total <r^2> [a.u.]:                                               339.289130

  V1^2 = 0.9408, V2^2 = 0.0592

  Important amplitudes:
      occ i      occ j       vir a       vir b          v   
    ---------------------------------------------------------
     1 (B2) A               5 (B1) A                  0.6677
     1 (B2) A               8 (B1) A                  0.1275
    ---------------------------------------------------------

  Density matrix analysis:
  ------------------------
  NOs
    Occupation of frontier NOs:
       0.9846   0.9919
    Number of electrons: 26.000000
    Number of unpaired electrons: n_u =  2.66923, n_u,nl =  2.07518
    NO participation ratio (PR_NO):  3.611193
  
  
  Mulliken Population Analysis
  Atom      Charge (e)              h+              e-           Del q
  --------------------------------------------------------------------
   1 C       -0.442752        0.534132       -0.642775       -0.108643
   2 C       -0.442752        0.534132       -0.642775       -0.108643
   3 H        0.307803        0.073131        0.001482        0.074614
   4 H        0.307803        0.073131        0.001482        0.074614
   5 H        0.133720        0.118442       -0.087499        0.030943
   6 H        0.133720        0.118442       -0.087499        0.030943
   7 O       -1.148408        0.054062       -0.071902       -0.017839
   8 H        0.150867        0.027704       -0.003692        0.024012
  --------------------------------------------------------------------
  Sum:       -1.000000        1.533178       -1.533178       -0.000000
  
  Multipole moment analysis of the density matrix
    Molecular charge:                      -1.000000
    Number of electrons:                   26.000000
      Center of electronic charge [Ang]: [ -0.000000,  -0.000000,   0.005413]
    Total nuclear charge:                  25.000000
      Center of nuclear charge [Ang]:    [  0.000000,   0.000000,  -0.000000]
    Dipole moment [D]:                     0.676005
      Cartesian components [D]:          [  0.000000,   0.000000,  -0.676005]
    RMS size of the density [Ang]:         1.911603
      Cartesian components [Ang]:        [  0.956367,   0.536871,   1.565681]
  
  Exciton analysis of the difference density matrix
    <r_h> [Ang]:                  [ -0.000000,  -0.000000,   0.902854]
    <r_e> [Ang]:                  [ -0.000000,  -0.000000,   1.728695]
    |<r_e - r_h>| [Ang]:            0.825842
    Hole size [Ang]:                1.806755
      Cartesian components [Ang]: [  1.071420,   0.889252,   1.151370]
    Electron size [Ang]:            3.302506
      Cartesian components [Ang]: [  2.523173,   1.418080,   1.590344]

  Transition density matrix analysis:
  -----------------------------------
  
  CT numbers (Mulliken)
    omega =     0.9078
    <Phe> =    -0.0024
  
  Exciton analysis of the transition density matrix
    Trans. dipole moment [D]:             0.000000
      Cartesian components [D]:         [  0.000000,  -0.000000,  -0.000000]
    <r_h> [Ang]:                        [ -0.000000,  -0.000000,   1.031413]
    <r_e> [Ang]:                        [ -0.000000,  -0.000000,   2.293762]
    |<r_e - r_h>| [Ang]:                  1.262349
    Hole size [Ang]:                      1.299625
      Cartesian components [Ang]:       [  0.764576,   0.884306,   0.567849]
    Electron size [Ang]:                  3.786823
      Cartesian components [Ang]:       [  3.040520,   1.698984,   1.486174]
    RMS electron-hole separation [Ang]:   4.186301
      Cartesian components [Ang]:       [  3.130111,   1.908558,   2.021120]
    Covariance(r_h, r_e) [Ang^2]:         0.048732
    Correlation coefficient:              0.009902
    Center-of-mass size [Ang]:            2.007892
      Cartesian components [Ang]:       [  1.570118,   0.961054,   0.801706]

  Decomposition into state-averaged NTOs
    H- 1 -> L+ 1:  0.5645 ( 63.7%)
    H- 1 -> L+ 0:  0.3654 ( 26.7%)
                   omega =  90.8%
  ----------------------------------------------------------------------------


  Excited state 6 (singlet, A2)                                    [converged]
  ----------------------------------------------------------------------------
  Term symbol:  6 (1) A2                                    R^2 =  4.07811e-08

  Total energy:                                           -153.9059761105 a.u.
  Excitation energy:                                               6.812702 eV

  Osc. strength:                                                      0.000000
  Trans. dip. moment [a.u.]:           [   0.000000,    0.000000,   -0.000000]
  <i|r^2|0> [a.u.]:                    [  -0.000000,   -0.000000,   -0.000000]

  Dip. moment [a.u.]:                  [   0.000000,    0.000000,    2.288638]
  Total dipole [Debye]:                                               5.817140
  <r^2> [a.u.]:                        [  71.079662,   22.304038,  220.562715]
  Total <r^2> [a.u.]:                                               313.946415

  V1^2 = 0.8996, V2^2 = 0.1004

  Important amplitudes:
      occ i      occ j       vir a       vir b          v   
    ---------------------------------------------------------
     2 (B2) A               7 (B1) A                  0.6397
     2 (B2) A               8 (B1) A                 -0.1097
    ---------------------------------------------------------

  Density matrix analysis:
  ------------------------
  NOs
    Occupation of frontier NOs:
       0.9713   1.0026
    Number of electrons: 26.000000
    Number of unpaired electrons: n_u =  2.75669, n_u,nl =  2.10233
    NO participation ratio (PR_NO):  3.866090
  
  
  Mulliken Population Analysis
  Atom      Charge (e)              h+              e-           Del q
  --------------------------------------------------------------------
   1 C       -0.303040        0.040569       -0.009499        0.031070
   2 C       -0.303040        0.040569       -0.009499        0.031070
   3 H        0.232675        0.034688       -0.035202       -0.000514
   4 H        0.232675        0.034688       -0.035202       -0.000514
   5 H        0.120267        0.015790        0.001700        0.017490
   6 H        0.120267        0.015790        0.001700        0.017490
   7 O       -1.321221        1.203711       -1.394364       -0.190653
   8 H        0.221417        0.138193       -0.043631        0.094562
  --------------------------------------------------------------------
  Sum:       -1.000000        1.523999       -1.523999       -0.000000
  
  Multipole moment analysis of the density matrix
    Molecular charge:                      -1.000000
    Number of electrons:                   26.000000
      Center of electronic charge [Ang]: [ -0.000000,  -0.000000,  -0.046581]
    Total nuclear charge:                  25.000000
      Center of nuclear charge [Ang]:    [  0.000000,   0.000000,  -0.000000]
    Dipole moment [D]:                     5.817138
      Cartesian components [D]:          [  0.000000,   0.000000,   5.817138]
    RMS size of the density [Ang]:         1.838243
      Cartesian components [Ang]:        [  0.874958,   0.490124,   1.540572]
  
  Exciton analysis of the difference density matrix
    <r_h> [Ang]:                  [  0.000000,   0.000000,  -1.568021]
    <r_e> [Ang]:                  [ -0.000000,  -0.000000,  -1.624237]
    |<r_e - r_h>| [Ang]:            0.056216
    Hole size [Ang]:                1.637773
      Cartesian components [Ang]: [  0.795434,   0.857573,   1.146365]
    Electron size [Ang]:            2.778628
      Cartesian components [Ang]: [  1.827328,   1.069538,   1.799370]

  Transition density matrix analysis:
  -----------------------------------
  
  CT numbers (Mulliken)
    omega =     0.8777
    <Phe> =    -0.0060
  
  Exciton analysis of the transition density matrix
    Trans. dipole moment [D]:             0.000000
      Cartesian components [D]:         [  0.000000,   0.000000,  -0.000000]
    <r_h> [Ang]:                        [ -0.000000,   0.000000,  -1.748554]
    <r_e> [Ang]:                        [ -0.000000,  -0.000000,  -1.849886]
    |<r_e - r_h>| [Ang]:                  0.101333
    Hole size [Ang]:                      1.073428
      Cartesian components [Ang]:       [  0.468937,   0.804812,   0.533501]
    Electron size [Ang]:                  3.190639
      Cartesian components [Ang]:       [  2.164642,   1.224637,   1.998691]
    RMS electron-hole separation [Ang]:   3.361593
      Cartesian components [Ang]:       [  2.214116,   1.464238,   2.062523]
    Covariance(r_h, r_e) [Ang^2]:         0.021194
    Correlation coefficient:              0.006188
    Center-of-mass size [Ang]:            1.686328
      Cartesian components [Ang]:       [  1.107795,   0.733301,   1.038635]

  Decomposition into state-averaged NTOs
    H- 0 -> L+ 4:  0.6512 ( 84.8%)
    H- 0 -> L+ 0: -0.0821 (  1.3%)
                   omega =  87.8%
  ----------------------------------------------------------------------------


  Excited state 7 (singlet, A2)                                    [converged]
  ----------------------------------------------------------------------------
  Term symbol:  7 (1) A2                                    R^2 =  1.11181e-07

  Total energy:                                           -153.8863955133 a.u.
  Excitation energy:                                               7.345517 eV

  Osc. strength:                                                      0.000000
  Trans. dip. moment [a.u.]:           [   0.000000,   -0.000000,    0.000000]
  <i|r^2|0> [a.u.]:                    [   0.000000,    0.000000,    0.000000]

  Dip. moment [a.u.]:                  [   0.000000,   -0.000000,   -2.607976]
  Total dipole [Debye]:                                               6.628815
  <r^2> [a.u.]:                        [  71.743809,   34.753607,  203.059436]
  Total <r^2> [a.u.]:                                               309.556852

  V1^2 = 0.8733, V2^2 = 0.1267

  Important amplitudes:
      occ i      occ j       vir a       vir b          v   
    ---------------------------------------------------------
     7 (A1) A               1 (A2) A                  0.5911
     7 (A1) A               2 (A2) A                  0.2833
    ---------------------------------------------------------

  Density matrix analysis:
  ------------------------
  NOs
    Occupation of frontier NOs:
       0.9852   0.9914
    Number of electrons: 26.000000
    Number of unpaired electrons: n_u =  2.84807, n_u,nl =  2.13217
    NO participation ratio (PR_NO):  4.078626
  
  
  Mulliken Population Analysis
  Atom      Charge (e)              h+              e-           Del q
  --------------------------------------------------------------------
   1 C       -0.762478        0.088575       -0.516943       -0.428368
   2 C       -0.762478        0.088575       -0.516943       -0.428368
   3 H        0.186891        0.008016       -0.054314       -0.046298
   4 H        0.186891        0.008016       -0.054314       -0.046298
   5 H        0.108831        0.010336       -0.004282        0.006054
   6 H        0.108831        0.010336       -0.004282        0.006054
   7 O       -0.440602        1.154854       -0.464888        0.689966
   8 H        0.374113        0.266599       -0.019341        0.247258
  --------------------------------------------------------------------
  Sum:       -1.000000        1.635309       -1.635309        0.000000
  
  Multipole moment analysis of the density matrix
    Molecular charge:                      -1.000000
    Number of electrons:                   26.000000
      Center of electronic charge [Ang]: [ -0.000000,   0.000000,   0.053080]
    Total nuclear charge:                  25.000000
      Center of nuclear charge [Ang]:    [  0.000000,   0.000000,  -0.000000]
    Dipole moment [D]:                     6.628813
      Cartesian components [D]:          [  0.000000,  -0.000000,  -6.628813]
    RMS size of the density [Ang]:         1.825161
      Cartesian components [Ang]:        [  0.879036,   0.611807,   1.477904]
  
  Exciton analysis of the difference density matrix
    <r_h> [Ang]:                  [  0.000000,   0.000000,  -1.406037]
    <r_e> [Ang]:                  [ -0.000000,   0.000000,   0.126092]
    |<r_e - r_h>| [Ang]:            1.532129
    Hole size [Ang]:                1.705106
      Cartesian components [Ang]: [  0.796436,   0.719331,   1.325005]
    Electron size [Ang]:            2.996586
      Cartesian components [Ang]: [  1.808379,   1.740680,   1.636865]

  Transition density matrix analysis:
  -----------------------------------
  
  CT numbers (Mulliken)
    omega =     0.8483
    <Phe> =    -0.0010
  
  Exciton analysis of the transition density matrix
    Trans. dipole moment [D]:             0.000000
      Cartesian components [D]:         [  0.000000,  -0.000000,   0.000000]
    <r_h> [Ang]:                        [  0.000000,   0.000000,  -1.624211]
    <r_e> [Ang]:                        [ -0.000000,   0.000000,   1.023223]
    |<r_e - r_h>| [Ang]:                  2.647434
    Hole size [Ang]:                      1.225406
      Cartesian components [Ang]:       [  0.483519,   0.401353,   1.052020]
    Electron size [Ang]:                  3.325847
      Cartesian components [Ang]:       [  2.211383,   2.146340,   1.250706]
    RMS electron-hole separation [Ang]:   4.421969
      Cartesian components [Ang]:       [  2.261175,   2.183857,   3.109930]
    Covariance(r_h, r_e) [Ang^2]:         0.008988
    Correlation coefficient:              0.002205
    Center-of-mass size [Ang]:            1.773475
      Cartesian components [Ang]:       [  1.133038,   1.091614,   0.818423]

  Decomposition into state-averaged NTOs
    H- 3 -> L+ 2: -0.6416 ( 82.3%)
    H- 3 -> L+ 7:  0.0958 (  1.8%)
                   omega =  84.8%
  ----------------------------------------------------------------------------


  Excited state 8 (singlet, A2)                                    [converged]
  ----------------------------------------------------------------------------
  Term symbol:  8 (1) A2                                    R^2 =  1.98688e-06

  Total energy:                                           -153.8633047873 a.u.
  Excitation energy:                                               7.973848 eV

  Osc. strength:                                                      0.000000
  Trans. dip. moment [a.u.]:           [   0.000000,    0.000000,   -0.000000]
  <i|r^2|0> [a.u.]:                    [   0.000000,   -0.000000,   -0.000000]

  Dip. moment [a.u.]:                  [   0.000000,   -0.000000,   -3.266220]
  Total dipole [Debye]:                                               8.301905
  <r^2> [a.u.]:                        [  82.043413,   25.493226,  207.787240]
  Total <r^2> [a.u.]:                                               315.323880

  V1^2 = 0.8653, V2^2 = 0.1347

  Important amplitudes:
      occ i      occ j       vir a       vir b          v   
    ---------------------------------------------------------
     2 (B2) A               8 (B1) A                 -0.6228
     2 (B2) A              10 (B1) A                  0.1445
    ---------------------------------------------------------

  Density matrix analysis:
  ------------------------
  NOs
    Occupation of frontier NOs:
       0.9664   0.9830
    Number of electrons: 26.000000
    Number of unpaired electrons: n_u =  2.82152, n_u,nl =  2.12817
    NO participation ratio (PR_NO):  4.114574
  
  
  Mulliken Population Analysis
  Atom      Charge (e)              h+              e-           Del q
  --------------------------------------------------------------------
   1 C       -0.837955        0.057961       -0.561807       -0.503846
   2 C       -0.837955        0.057961       -0.561807       -0.503846
   3 H        0.190432        0.011648       -0.054405       -0.042757
   4 H        0.190432        0.011648       -0.054405       -0.042757
   5 H        0.168346        0.018120        0.047450        0.065569
   6 H        0.168346        0.018120        0.047450        0.065569
   7 O       -0.265166        1.359841       -0.494439        0.865402
   8 H        0.223520        0.124025       -0.027360        0.096665
  --------------------------------------------------------------------
  Sum:       -1.000000        1.659325       -1.659325        0.000000
  
  Multipole moment analysis of the density matrix
    Molecular charge:                      -1.000000
    Number of electrons:                   26.000000
      Center of electronic charge [Ang]: [ -0.000000,   0.000000,   0.066477]
    Total nuclear charge:                  25.000000
      Center of nuclear charge [Ang]:    [  0.000000,   0.000000,  -0.000000]
    Dipole moment [D]:                     8.301903
      Cartesian components [D]:          [  0.000000,  -0.000000,  -8.301903]
    RMS size of the density [Ang]:         1.841663
      Cartesian components [Ang]:        [  0.940018,   0.523995,   1.494496]
  
  Exciton analysis of the difference density matrix
    <r_h> [Ang]:                  [  0.000000,   0.000000,  -1.464876]
    <r_e> [Ang]:                  [ -0.000000,   0.000000,   0.254999]
    |<r_e - r_h>| [Ang]:            1.719875
    Hole size [Ang]:                1.714516
      Cartesian components [Ang]: [  0.827527,   0.844239,   1.241782]
    Electron size [Ang]:            3.169423
      Cartesian components [Ang]: [  2.240701,   1.275192,   1.843471]

  Transition density matrix analysis:
  -----------------------------------
  
  CT numbers (Mulliken)
    omega =     0.8464
    <Phe> =    -0.0001
  
  Exciton analysis of the transition density matrix
    Trans. dipole moment [D]:             0.000000
      Cartesian components [D]:         [  0.000000,   0.000000,  -0.000000]
    <r_h> [Ang]:                        [ -0.000000,   0.000000,  -1.727877]
    <r_e> [Ang]:                        [ -0.000000,   0.000000,   1.232633]
    |<r_e - r_h>| [Ang]:                  2.960510
    Hole size [Ang]:                      1.110158
      Cartesian components [Ang]:       [  0.472927,   0.809753,   0.594214]
    Electron size [Ang]:                  3.529459
      Cartesian components [Ang]:       [  2.799244,   1.541562,   1.498298]
    RMS electron-hole separation [Ang]:   4.730476
      Cartesian components [Ang]:       [  2.838146,   1.737259,   3.362181]
    Covariance(r_h, r_e) [Ang^2]:         0.038374
    Correlation coefficient:              0.009794
    Center-of-mass size [Ang]:            1.855147
      Cartesian components [Ang]:       [  1.419840,   0.872662,   0.814914]

  Decomposition into state-averaged NTOs
    H- 0 -> L+ 6: -0.6449 ( 83.2%)
                   omega =  84.6%
  ----------------------------------------------------------------------------


  Excited state 9 (singlet, A2)                                    [converged]
  ----------------------------------------------------------------------------
  Term symbol:  9 (1) A2                                    R^2 =  1.30062e-07

  Total energy:                                           -153.8560205041 a.u.
  Excitation energy:                                               8.172063 eV

  Osc. strength:                                                      0.000000
  Trans. dip. moment [a.u.]:           [   0.000000,   -0.000000,    0.000000]
  <i|r^2|0> [a.u.]:                    [   0.000000,    0.000000,    0.000000]

  Dip. moment [a.u.]:                  [  -0.000000,    0.000000,    2.927192]
  Total dipole [Debye]:                                               7.440181
  <r^2> [a.u.]:                        [  85.800501,   26.678540,  221.497221]
  Total <r^2> [a.u.]:                                               333.976262

  V1^2 = 0.9405, V2^2 = 0.0595

  Important amplitudes:
      occ i      occ j       vir a       vir b          v   
    ---------------------------------------------------------
     1 (B2) A               6 (B1) A                 -0.6707
     1 (B2) A               9 (B1) A                  0.0932
    ---------------------------------------------------------

  Density matrix analysis:
  ------------------------
  NOs
    Occupation of frontier NOs:
       0.9857   0.9927
    Number of electrons: 26.000000
    Number of unpaired electrons: n_u =  2.66813, n_u,nl =  2.07445
    NO participation ratio (PR_NO):  3.601728
  
  
  Mulliken Population Analysis
  Atom      Charge (e)              h+              e-           Del q
  --------------------------------------------------------------------
   1 C       -0.490487        0.538485       -0.694863       -0.156378
   2 C       -0.490487        0.538485       -0.694863       -0.156378
   3 H        0.219680        0.090113       -0.103623       -0.013509
   4 H        0.219680        0.090113       -0.103623       -0.013509
   5 H        0.161007        0.100816       -0.042586        0.058231
   6 H        0.161007        0.100816       -0.042586        0.058231
   7 O       -0.926985        0.071786        0.131797        0.203583
   8 H        0.146585        0.024078       -0.004348        0.019730
  --------------------------------------------------------------------
  Sum:       -1.000000        1.554694       -1.554694       -0.000000
  
  Multipole moment analysis of the density matrix
    Molecular charge:                      -1.000000
    Number of electrons:                   26.000000
      Center of electronic charge [Ang]: [  0.000000,  -0.000000,  -0.059577]
    Total nuclear charge:                  25.000000
      Center of nuclear charge [Ang]:    [  0.000000,   0.000000,  -0.000000]
    Dipole moment [D]:                     7.440179
      Cartesian components [D]:          [ -0.000000,   0.000000,   7.440179]
    RMS size of the density [Ang]:         1.895649
      Cartesian components [Ang]:        [  0.961301,   0.536038,   1.543389]
  
  Exciton analysis of the difference density matrix
    <r_h> [Ang]:                  [  0.000000,  -0.000000,   0.846234]
    <r_e> [Ang]:                  [  0.000000,  -0.000000,   0.573781]
    |<r_e - r_h>| [Ang]:            0.272453
    Hole size [Ang]:                1.813586
      Cartesian components [Ang]: [  1.073155,   0.884657,   1.163966]
    Electron size [Ang]:            3.521169
      Cartesian components [Ang]: [  2.540892,   1.403909,   1.992872]

  Transition density matrix analysis:
  -----------------------------------
  
  CT numbers (Mulliken)
    omega =     0.9074
    <Phe> =    -0.0006
  
  Exciton analysis of the transition density matrix
    Trans. dipole moment [D]:             0.000000
      Cartesian components [D]:         [  0.000000,  -0.000000,   0.000000]
    <r_h> [Ang]:                        [ -0.000000,   0.000000,   1.031946]
    <r_e> [Ang]:                        [  0.000000,  -0.000000,   0.530506]
    |<r_e - r_h>| [Ang]:                  0.501440
    Hole size [Ang]:                      1.298719
      Cartesian components [Ang]:       [  0.764159,   0.884462,   0.566091]
    Electron size [Ang]:                  4.214510
      Cartesian components [Ang]:       [  3.083634,   1.693020,   2.320987]
    RMS electron-hole separation [Ang]:   4.439780
      Cartesian components [Ang]:       [  3.173309,   1.908277,   2.449537]
    Covariance(r_h, r_e) [Ang^2]:        -0.005719
    Correlation coefficient:             -0.001045
    Center-of-mass size [Ang]:            2.204389
      Cartesian components [Ang]:       [  1.590250,   0.955989,   1.190177]

  Decomposition into state-averaged NTOs
    H- 1 -> L+ 0:  0.5644 ( 63.7%)
    H- 1 -> L+ 1: -0.3642 ( 26.5%)
                   omega =  90.7%
  ----------------------------------------------------------------------------


  Excited state 10 (singlet, A2)                                    [converged]
  ----------------------------------------------------------------------------
  Term symbol:  10 (1) A2                                   R^2 =  1.57061e-06

  Total energy:                                           -153.8265394151 a.u.
  Excitation energy:                                               8.974284 eV

  Osc. strength:                                                      0.000000
  Trans. dip. moment [a.u.]:           [  -0.000000,   -0.000000,    0.000000]
  <i|r^2|0> [a.u.]:                    [  -0.000000,    0.000000,    0.000000]

  Dip. moment [a.u.]:                  [   0.000000,   -0.000000,   -2.149415]
  Total dipole [Debye]:                                               5.463269
  <r^2> [a.u.]:                        [  71.273595,   34.540977,  204.363980]
  Total <r^2> [a.u.]:                                               310.178553

  V1^2 = 0.8780, V2^2 = 0.1220

  Important amplitudes:
      occ i      occ j       vir a       vir b          v   
    ---------------------------------------------------------
     7 (A1) A               2 (A2) A                  0.5502
     7 (A1) A               1 (A2) A                 -0.2827
    ---------------------------------------------------------

  Density matrix analysis:
  ------------------------
  NOs
    Occupation of frontier NOs:
       0.9337   1.0444
    Number of electrons: 26.000000
    Number of unpaired electrons: n_u =  2.87317, n_u,nl =  2.16992
    NO participation ratio (PR_NO):  4.501017
  
  
  Mulliken Population Analysis
  Atom      Charge (e)              h+              e-           Del q
  --------------------------------------------------------------------
   1 C       -0.694235        0.140474       -0.500600       -0.360126
   2 C       -0.694235        0.140474       -0.500600       -0.360126
   3 H        0.185335        0.007266       -0.055120       -0.047854
   4 H        0.185335        0.007266       -0.055120       -0.047854
   5 H        0.091439        0.005416       -0.016754       -0.011338
   6 H        0.091439        0.005416       -0.016754       -0.011338
   7 O       -0.512828        1.024135       -0.406395        0.617740
   8 H        0.347749        0.238222       -0.017328        0.220894
  --------------------------------------------------------------------
  Sum:       -1.000000        1.568671       -1.568671        0.000000
  
  Multipole moment analysis of the density matrix
    Molecular charge:                      -1.000000
    Number of electrons:                   26.000000
      Center of electronic charge [Ang]: [ -0.000000,   0.000000,   0.043747]
    Total nuclear charge:                  25.000000
      Center of nuclear charge [Ang]:    [  0.000000,   0.000000,  -0.000000]
    Dipole moment [D]:                     5.463268
      Cartesian components [D]:          [  0.000000,  -0.000000,  -5.463268]
    RMS size of the density [Ang]:         1.827241
      Cartesian components [Ang]:        [  0.876151,   0.609932,   1.482954]
  
  Exciton analysis of the difference density matrix
    <r_h> [Ang]:                  [  0.000000,   0.000000,  -1.235845]
    <r_e> [Ang]:                  [ -0.000000,   0.000000,   0.206678]
    |<r_e - r_h>| [Ang]:            1.442523
    Hole size [Ang]:                1.773218
      Cartesian components [Ang]: [  0.806917,   0.698458,   1.416102]
    Electron size [Ang]:            3.004267
      Cartesian components [Ang]: [  1.820735,   1.751898,   1.625238]

  Transition density matrix analysis:
  -----------------------------------
  
  CT numbers (Mulliken)
    omega =     0.8500
    <Phe> =    -0.0038
  
  Exciton analysis of the transition density matrix
    Trans. dipole moment [D]:             0.000000
      Cartesian components [D]:         [ -0.000000,  -0.000000,   0.000000]
    <r_h> [Ang]:                        [  0.000000,   0.000000,  -1.338508]
    <r_e> [Ang]:                        [  0.000000,   0.000000,   1.029365]
    |<r_e - r_h>| [Ang]:                  2.367873
    Hole size [Ang]:                      1.465169
      Cartesian components [Ang]:       [  0.588047,   0.400542,   1.280815]
    Electron size [Ang]:                  3.278369
      Cartesian components [Ang]:       [  2.179262,   2.116837,   1.231879]
    RMS electron-hole separation [Ang]:   4.296727
      Cartesian components [Ang]:       [  2.250679,   2.155406,   2.958129]
    Covariance(r_h, r_e) [Ang^2]:         0.019696
    Correlation coefficient:              0.004100
    Center-of-mass size [Ang]:            1.798181
      Cartesian components [Ang]:       [  1.131858,   1.076695,   0.890550]

  Decomposition into state-averaged NTOs
    H- 3 -> L+ 7: -0.6211 ( 77.1%)
    H- 4 -> L+ 2:  0.1666 (  5.6%)
    H- 3 -> L+ 2: -0.0968 (  1.9%)
                   omega =  85.0%
  ----------------------------------------------------------------------------


--------------------------------------------------------------------------------
  Time of ADC calculation:  CPU 958.63 s  wall 166.56 s
================================================================================
 
 --------------------------------------------------------------
             Orbital Energies (a.u.) and Symmetries
 --------------------------------------------------------------
 
 Alpha MOs, Restricted
 -- Occupied --                  
-20.202 -11.040 -11.038  -0.928  -0.852  -0.597  -0.473  -0.384
  1 A1    2 A1    1 B1    3 A1    4 A1    2 B1    5 A1    6 A1                 
 -0.329  -0.271  -0.195  -0.131  -0.130
  3 B1    7 A1    1 B2    4 B1    2 B2                                         
 -- Virtual --                   
  0.182   0.190   0.207   0.216   0.223   0.233   0.278   0.332
  5 B1    8 A1    3 B2    1 A2    9 A1    6 B1   10 A1    2 A2                 
  0.351   0.386   0.399   0.400   0.430   0.447   0.465   0.469
 11 A1    4 B2    7 B1    8 B1   12 A1   13 A1    5 B2    9 B1                 
  0.498   0.521   0.527   0.543   0.601   0.622   0.642   0.647
 14 A1   10 B1   15 A1    3 A2   16 A1   11 B1   17 A1   12 B1                 
  0.795   0.807   0.853   0.865   0.879   0.909   0.920   0.921
  6 B2   18 A1   13 B1   19 A1   14 B1    4 A2   20 A1   21 A1                 
  0.944   0.974   0.991   0.998   1.033   1.052   1.061   1.064
 15 B1   22 A1    7 B2   23 A1    8 B2    5 A2   16 B1   17 B1                 
  1.078   1.096   1.182   1.220   1.221   1.248   1.251   1.330
  6 A2    9 B2   24 A1   18 B1   25 A1   19 B1   10 B2   26 A1                 
  1.405   1.412   1.423   1.465   1.565   1.587   1.588   1.592
 11 B2    7 A2   20 B1   12 B2   27 A1   28 A1   21 B1    8 A2                 
  1.609   1.645   1.666   1.686   1.804   1.829   1.839   1.883
 13 B2   29 A1   22 B1   30 A1   23 B1    9 A2   31 A1   24 B1                 
  1.938   1.979   2.113   2.123   2.154   2.253   2.408   2.426
 25 B1   32 A1   26 B1   33 A1   34 A1   27 B1   14 B2   10 A2                 
  2.485   2.493   2.499   2.532   2.534   2.547   2.566   2.739
 15 B2   35 A1   28 B1   36 A1   11 A2   29 B1   37 A1   16 B2                 
  2.744   2.824   2.877   2.882   2.892   2.944   2.967   3.055
 38 A1   30 B1   39 A1   17 B2   40 A1   12 A2   18 B2   41 A1                 
  3.091   3.166   3.175   3.190   3.296   3.314   3.343   3.362
 31 B1   42 A1   19 B2   32 B1   20 B2   21 B2   43 A1   13 A2                 
  3.372   3.461   3.492   3.519   3.532   3.612   3.627   3.655
 44 A1   14 A2   45 A1   33 B1   34 B1   15 A2   16 A2   35 B1                 
  3.709   3.719   3.728   3.735   3.841   3.847   3.957   4.039
 46 A1   36 B1   37 B1   22 B2   47 A1   23 B2   48 A1   38 B1                 
  4.126   4.137   4.157   4.178   4.189   4.199   4.258   4.311
 49 A1   39 B1   17 A2   18 A2   40 B1   50 A1   24 B2   51 A1                 
  4.366   4.381   4.403   4.403   4.491   4.503   4.523   4.529
 19 A2   52 A1   41 B1   25 B2   26 B2   42 B1   43 B1   27 B2                 
  4.540   4.547   4.609   4.760   4.811   4.825   4.826   4.940
 53 A1   20 A2   28 B2   44 B1   54 A1   21 A2   55 A1   45 B1                 
  5.001   5.007   5.027   5.143   5.211   5.274   5.365   5.407
 22 A2   46 B1   56 A1   29 B2   57 A1   47 B1   58 A1   30 B2                 
  5.493   5.509   5.538   5.616   5.632   5.732   5.740   5.817
 48 B1   59 A1   60 A1   23 A2   31 B2   49 B1   24 A2   50 B1                 
  5.825   6.067   6.243   6.427   6.492   6.587   6.815   6.884
 61 A1   62 A1   51 B1   63 A1   52 B1   64 A1   53 B1   32 B2                 
  6.898   6.904   6.992   7.104   7.431   7.448   7.461   7.532
 25 A2   54 B1   65 A1   55 B1   26 A2   66 A1   33 B2   34 B2                 
  7.555   7.664   7.798   8.410  12.242  12.735  15.141
 56 B1   57 B1   67 A1   68 A1   69 A1   70 A1   58 B1                         
 
 Beta MOs, Restricted
 -- Occupied --                  
-20.202 -11.040 -11.038  -0.928  -0.852  -0.597  -0.473  -0.384
  1 A1    2 A1    1 B1    3 A1    4 A1    2 B1    5 A1    6 A1                 
 -0.329  -0.271  -0.195  -0.131  -0.130
  3 B1    7 A1    1 B2    4 B1    2 B2                                         
 -- Virtual --                   
  0.182   0.190   0.207   0.216   0.223   0.233   0.278   0.332
  5 B1    8 A1    3 B2    1 A2    9 A1    6 B1   10 A1    2 A2                 
  0.351   0.386   0.399   0.400   0.430   0.447   0.465   0.469
 11 A1    4 B2    7 B1    8 B1   12 A1   13 A1    5 B2    9 B1                 
  0.498   0.521   0.527   0.543   0.601   0.622   0.642   0.647
 14 A1   10 B1   15 A1    3 A2   16 A1   11 B1   17 A1   12 B1                 
  0.795   0.807   0.853   0.865   0.879   0.909   0.920   0.921
  6 B2   18 A1   13 B1   19 A1   14 B1    4 A2   20 A1   21 A1                 
  0.944   0.974   0.991   0.998   1.033   1.052   1.061   1.064
 15 B1   22 A1    7 B2   23 A1    8 B2    5 A2   16 B1   17 B1                 
  1.078   1.096   1.182   1.220   1.221   1.248   1.251   1.330
  6 A2    9 B2   24 A1   18 B1   25 A1   19 B1   10 B2   26 A1                 
  1.405   1.412   1.423   1.465   1.565   1.587   1.588   1.592
 11 B2    7 A2   20 B1   12 B2   27 A1   28 A1   21 B1    8 A2                 
  1.609   1.645   1.666   1.686   1.804   1.829   1.839   1.883
 13 B2   29 A1   22 B1   30 A1   23 B1    9 A2   31 A1   24 B1                 
  1.938   1.979   2.113   2.123   2.154   2.253   2.408   2.426
 25 B1   32 A1   26 B1   33 A1   34 A1   27 B1   14 B2   10 A2                 
  2.485   2.493   2.499   2.532   2.534   2.547   2.566   2.739
 15 B2   35 A1   28 B1   36 A1   11 A2   29 B1   37 A1   16 B2                 
  2.744   2.824   2.877   2.882   2.892   2.944   2.967   3.055
 38 A1   30 B1   39 A1   17 B2   40 A1   12 A2   18 B2   41 A1                 
  3.091   3.166   3.175   3.190   3.296   3.314   3.343   3.362
 31 B1   42 A1   19 B2   32 B1   20 B2   21 B2   43 A1   13 A2                 
  3.372   3.461   3.492   3.519   3.532   3.612   3.627   3.655
 44 A1   14 A2   45 A1   33 B1   34 B1   15 A2   16 A2   35 B1                 
  3.709   3.719   3.728   3.735   3.841   3.847   3.957   4.039
 46 A1   36 B1   37 B1   22 B2   47 A1   23 B2   48 A1   38 B1                 
  4.126   4.137   4.157   4.178   4.189   4.199   4.258   4.311
 49 A1   39 B1   17 A2   18 A2   40 B1   50 A1   24 B2   51 A1                 
  4.366   4.381   4.403   4.403   4.491   4.503   4.523   4.529
 19 A2   52 A1   41 B1   25 B2   26 B2   42 B1   43 B1   27 B2                 
  4.540   4.547   4.609   4.760   4.811   4.825   4.826   4.940
 53 A1   20 A2   28 B2   44 B1   54 A1   21 A2   55 A1   45 B1                 
  5.001   5.007   5.027   5.143   5.211   5.274   5.365   5.407
 22 A2   46 B1   56 A1   29 B2   57 A1   47 B1   58 A1   30 B2                 
  5.493   5.509   5.538   5.616   5.632   5.732   5.740   5.817
 48 B1   59 A1   60 A1   23 A2   31 B2   49 B1   24 A2   50 B1                 
  5.825   6.067   6.243   6.427   6.492   6.587   6.815   6.884
 61 A1   62 A1   51 B1   63 A1   52 B1   64 A1   53 B1   32 B2                 
  6.898   6.904   6.992   7.104   7.431   7.448   7.461   7.532
 25 A2   54 B1   65 A1   55 B1   26 A2   66 A1   33 B2   34 B2                 
  7.555   7.664   7.798   8.410  12.242  12.735  15.141
 56 B1   57 B1   67 A1   68 A1   69 A1   70 A1   58 B1                         
 --------------------------------------------------------------
 
          Ground-State Mulliken Net Atomic Charges

     Atom                 Charge (a.u.)
  ----------------------------------------
      1 C                    -0.311853
      2 C                    -0.311853
      3 H                     0.220283
      4 H                     0.220283
      5 H                     0.087539
      6 H                     0.087539
      7 O                    -1.130590
      8 H                     0.138653
  ----------------------------------------
  Sum of atomic charges =    -1.000000

 -----------------------------------------------------------------
                    Cartesian Multipole Moments
 -----------------------------------------------------------------
    Charge (ESU x 10^10)
                -4.8032
    Dipole Moment (Debye)
         X       0.0000      Y       0.0000      Z       5.2174
       Tot       5.2174
    Quadrupole Moments (Debye-Ang)
        XX     -23.5900     XY      -0.0000     YY     -26.3994
        XZ       0.0000     YZ      -0.0000     ZZ     -32.9880
    Octopole Moments (Debye-Ang^2)
       XXX       0.0000    XXY      -0.0000    XYY       0.0000
       YYY      -0.0000    XXZ       0.9607    XYZ       0.0000
       YYZ      -0.3259    XZZ       0.0000    YZZ      -0.0000
       ZZZ       6.3845
    Hexadecapole Moments (Debye-Ang^3)
      XXXX     -87.4055   XXXY      -0.0000   XXYY     -21.4860
      XYYY      -0.0000   YYYY     -39.1269   XXXZ       0.0000
      XXYZ      -0.0000   XYYZ       0.0000   YYYZ      -0.0000
      XXZZ     -69.9828   XYZZ      -0.0000   YYZZ     -65.2832
      XZZZ       0.0000   YZZZ      -0.0000   ZZZZ    -291.7814
 -----------------------------------------------------------------
 Total job time:  281.38s(wall), 1048.76s(cpu) 
 Thu Mar  3 04:20:11 2022

        *************************************************************
        *                                                           *
        *  Thank you very much for using Q-Chem.  Have a nice day.  *
        *                                                           *
        *************************************************************


