This is a multi-thread run using 8 threads
/src/tsommerfeld/qchem/exe/qcprog.exe .input0.777778.9416.qcin.1 /src/jdavis/qchem.scratch/qchem9416/

                  Welcome to Q-Chem
     A Quantum Leap Into The Future Of Chemistry


 Q-Chem 5.4 (devel), Q-Chem, Inc., Pleasanton, CA (2021)

 E. Epifanovsky,  A. T. B. Gilbert,  Xintian Feng,  Joonho Lee,  Yuezhi Mao,  
 N. Mardirossian,  P. Pokhilko,  A. White,  M. Wormit,  M. P. Coons,  
 A. L. Dempwolff,  Zhengting Gan,  D. Hait,  P. R. Horn,  L. D. Jacobson,  
 I. Kaliman,  J. Kussmann,  A. W. Lange,  Ka Un Lao,  D. S. Levine,  Jie Liu,  
 S. C. McKenzie,  A. F. Morrison,  K. Nanda,  F. Plasser,  D. R. Rehn,  
 M. L. Vidal,  Zhi-Qiang You,  Ying Zhu,  B. Alam,  B. Albrecht,  
 A. Aldossary,  E. Alguire,  J. H. Andersen,  D. Barton,  K. Begam,  A. Behn,  
 Y. A. Bernard,  E. J. Berquist,  H. Burton,  A. Carreras,  K. Carter-Fenk,  
 R. Chakraborty,  A. D. Chien,  K. D. Closser,  V. Cofer-Shabica,  
 S. Dasgupta,  Jia Deng,  M. de Wergifosse,  M. Diedenhofen,  Hainam Do,  
 S. Ehlert,  Po-Tung Fang,  S. Fatehi,  Qingguo Feng,  T. Friedhoff,  
 J. Gayvert,  Qinghui Ge,  G. Gidofalvi,  M. Goldey,  J. Gomes,  
 C. Gonzalez-Espinoza,  S. Gulania,  A. Gunina,  M. W. D. Hanson-Heine,  
 P. H. P. Harbach,  A. W. Hauser,  M. F. Herbst,  M. Hernandez Vera,  
 M. Hodecker,  Z. C. Holden,  S. Houck,  Xunkun Huang,  Kerwin Hui,  
 B. C. Huynh,  M. Ivanov,  Hyunjun Ji,  Hanjie Jiang,  B. Kaduk,  S. Kaehler,  
 K. Khistyaev,  Jaehoon Kim,  P. Klunzinger,  Z. Koczor-Benda,  
 Joong Hoon Koh,  D. Kosenkov,  L. Koulias,  T. Kowalczyk,  C. M. Krauter,  
 K. Kue,  A. Kunitsa,  T. Kus,  A. Landau,  K. V. Lawler,  D. Lefrancois,  
 S. Lehtola,  Rain Li,  Yi-Pei Li,  Jiashu Liang,  M. Liebenthal,  
 Hung-Hsuan Lin,  You-Sheng Lin,  Fenglai Liu,  Kuan-Yu Liu,  
 M. Loipersberger,  A. Luenser,  A. Manjanath,  P. Manohar,  E. Mansoor,  
 S. F. Manzer,  Shan-Ping Mao,  A. V. Marenich,  T. Markovich,  S. Mason,  
 S. A. Maurer,  P. F. McLaughlin,  M. F. S. J. Menger,  J.-M. Mewes,  
 S. A. Mewes,  P. Morgante,  J. W. Mullinax,  K. J. Oosterbaan,  G. Paran,  
 Alexander C. Paul,  Suranjan K. Paul,  F. Pavosevic,  Zheng Pei,  S. Prager,  
 E. I. Proynov,  E. Ramos,  B. Rana,  A. E. Rask,  A. Rettig,  R. M. Richard,  
 F. Rob,  E. Rossomme,  T. Scheele,  M. Scheurer,  M. Schneider,  
 N. Sergueev,  S. M. Sharada,  W. Skomorowski,  D. W. Small,  C. J. Stein,  
 Yu-Chuan Su,  E. J. Sundstrom,  Zhen Tao,  J. Thirman,  T. Tsuchimochi,  
 N. M. Tubman,  S. P. Veccham,  O. Vydrov,  J. Wenzel,  J. Witte,  A. Yamada,  
 Kun Yao,  S. Yeganeh,  S. R. Yost,  A. Zech,  Igor Ying Zhang,  Xing Zhang,  
 Yu Zhang,  D. Zuev,  A. Aspuru-Guzik,  A. T. Bell,  N. A. Besley,  
 K. B. Bravaya,  B. R. Brooks,  D. Casanova,  Jeng-Da Chai,  S. Coriani,  
 C. J. Cramer,  A. E. DePrince, III,  R. A. DiStasio Jr.,  A. Dreuw,  
 B. D. Dunietz,  T. R. Furlani,  W. A. Goddard III,  S. Grimme,  
 S. Hammes-Schiffer,  T. Head-Gordon,  W. J. Hehre,  Chao-Ping Hsu,  
 T.-C. Jagau,  Yousung Jung,  A. Klamt,  Jing Kong,  D. S. Lambrecht,  
 WanZhen Liang,  N. J. Mayhall,  C. W. McCurdy,  J. B. Neaton,  
 C. Ochsenfeld,  J. A. Parkhill,  R. Peverati,  V. A. Rassolov,  Yihan Shao,  
 L. V. Slipchenko,  T. Stauch,  R. P. Steele,  J. E. Subotnik,  
 A. J. W. Thom,  A. Tkatchenko,  D. G. Truhlar,  T. Van Voorhis,  
 T. A. Wesolowski,  K. B. Whaley,  H. L. Woodcock III,  P. M. Zimmerman,  
 S. Faraji,  P. M. W. Gill,  M. Head-Gordon,  J. M. Herbert,  A. I. Krylov

 Additional authors for Version 5.4.1: 
 S. Kotaru,  Shaozhi Li,  Xiangyuan Li,  F. Matz,  A. Molle,  Haisheng Ren,  
 Yingli Su,  Hung-Yi Tsai,  C. Utku,  Fang Wang

 Contributors to earlier versions of Q-Chem not listed above: 
 R. D. Adamson,  B. Austin,  R. Baer,  J. Baker,  G. J. O. Beran,  
 K. Brandhorst,  S. T. Brown,  E. F. C. Byrd,  A. K. Chakraborty,  
 G. K. L. Chan,  Chun-Min Chang,  Yunqing Chen,  C.-L. Cheng,  
 Siu Hung Chien,  D. M. Chipman,  D. L. Crittenden,  H. Dachsel,  
 R. J. Doerksen,  A. D. Dutoi,  R. G. Edgar,  J. Fosso-Tande,  
 L. Fusti-Molnar,  D. Ghosh,  A. Ghysels,  A. Golubeva-Zadorozhnaya,  
 J. Gonthier,  M. S. Gordon,  S. R. Gwaltney,  G. Hawkins,  J. E. Herr,  
 A. Heyden,  S. Hirata,  E. G. Hohenstein,  G. Kedziora,  F. J. Keil,  
 C. Kelley,  Jihan Kim,  R. A. King,  R. Z. Khaliullin,  P. P. Korambath,  
 W. Kurlancheek,  A. Laurent,  A. M. Lee,  M. S. Lee,  S. V. Levchenko,  
 Ching Yeh Lin,  D. Liotard,  E. Livshits,  R. C. Lochan,  I. Lotan,  
 L. A. Martinez-Martinez,  P. E. Maslen,  N. Nair,  D. P. O'Neill,  
 D. Neuhauser,  E. Neuscamman,  C. M. Oana,  R. Olivares-Amaya,  R. Olson,  
 T. M. Perrine,  B. Peters,  P. A. Pieniazek,  A. Prociuk,  Y. M. Rhee,  
 J. Ritchie,  M. A. Rohrdanz,  E. Rosta,  N. J. Russ,  H. F. Schaefer III,  
 M. W. Schmidt,  N. E. Schultz,  S. Sharma,  N. Shenvi,  C. D. Sherrill,  
 A. C. Simmonett,  A. Sodt,  T. Stein,  D. Stuck,  K. S. Thanthiriwatte,  
 V. Vanovschi,  L. Vogt,  Tao Wang,  A. Warshel,  M. A. Watson,  
 C. F. Williams,  Q. Wu,  X. Xu,  Jun Yang,  W. Zhang,  Yan Zhao

 Please cite Q-Chem as follows:
 Y. Shao et al., Mol. Phys. 113, 184-215 (2015)
 DOI: 10.1080/00268976.2014.952696

 Q-Chem 5.4.1 for Intel X86 EM64T Linux

 Parts of Q-Chem use Armadillo 9.900.5 (Nocturnal Misbehaviour).
 http://arma.sourceforge.net/

 Q-Chem begins on Sun Mar 27 21:31:06 2022  

 Host: node01
0

     Scratch files written to /src/jdavis/qchem.scratch/qchem9416//
 Processing $rem in /src/tsommerfeld/qchem/config/preferences:
 Processing $rem in /home/jdavis/.qchemrc:

 Checking the input file for inconsistencies... 	...done.

--------------------------------------------------------------
User input:
--------------------------------------------------------------
$molecule
0 1
C        -0.6645000000    0.0000000000   -0.2082049804
C         0.6645000000    0.0000000000   -0.2082049804
H        -1.1590800000    0.0000000000    0.7541440196
H         1.1590800000    0.0000000000    0.7541440196
H        -1.1590800000    0.0000000000   -1.1705529804
H         1.1590800000    0.0000000000   -1.1705529804
$end

$rem
   METHOD adc(3)
   BASIS gen
   PURECART 11
   EA_STATES [0,0,10,0,0,0,0,0]
   scf_convergence 8
   ADC_DAVIDSON_MAXITER 120
   ADC_DAVIDSON_MAXSUBSPACE 200
   adc_nguess_singles 100
   THRESH 14
   S2THRESH 14
   adc_davidson_conv 5
   adc_davidson_thresh 14
   THREADS 10
   MEM_TOTAL 95000
   STATE_ANALYSIS TRUE
$end
$basis
C 1
S   9   1.00
      6.665000D+03           6.920000D-04
      1.000000D+03           5.329000D-03
      2.280000D+02           2.707700D-02
      6.471000D+01           1.017180D-01
      2.106000D+01           2.747400D-01
      7.495000D+00           4.485640D-01
      2.797000D+00           2.850740D-01
      5.215000D-01           1.520400D-02
      1.596000D-01          -3.191000D-03
S   9   1.00
      6.665000D+03          -1.460000D-04
      1.000000D+03          -1.154000D-03
      2.280000D+02          -5.725000D-03
      6.471000D+01          -2.331200D-02
      2.106000D+01          -6.395500D-02
      7.495000D+00          -1.499810D-01
      2.797000D+00          -1.272620D-01
      5.215000D-01           5.445290D-01
      1.596000D-01           5.804960D-01
S   1   1.00
      1.596000D-01           1.000000D+00
S   1   1.00
      0.0469000              1.0000000
P   4   1.00
      9.439000D+00           3.810900D-02
      2.002000D+00           2.094800D-01
      5.456000D-01           5.085570D-01
      1.517000D-01           4.688420D-01
P   1   1.00
      1.517000D-01           1.000000D+00
P   1   1.00
      0.0471956      1.0000000
P   1   1.00
      0.0235978      1.0000000
D   1   1.00
      5.500000D-01           1.0000000
****
C 2
S   9   1.00
      6.665000D+03           6.920000D-04
      1.000000D+03           5.329000D-03
      2.280000D+02           2.707700D-02
      6.471000D+01           1.017180D-01
      2.106000D+01           2.747400D-01
      7.495000D+00           4.485640D-01
      2.797000D+00           2.850740D-01
      5.215000D-01           1.520400D-02
      1.596000D-01          -3.191000D-03
S   9   1.00
      6.665000D+03          -1.460000D-04
      1.000000D+03          -1.154000D-03
      2.280000D+02          -5.725000D-03
      6.471000D+01          -2.331200D-02
      2.106000D+01          -6.395500D-02
      7.495000D+00          -1.499810D-01
      2.797000D+00          -1.272620D-01
      5.215000D-01           5.445290D-01
      1.596000D-01           5.804960D-01
S   1   1.00
      1.596000D-01           1.000000D+00
S   1   1.00
      0.0469000              1.0000000
P   4   1.00
      9.439000D+00           3.810900D-02
      2.002000D+00           2.094800D-01
      5.456000D-01           5.085570D-01
      1.517000D-01           4.688420D-01
P   1   1.00
      1.517000D-01           1.000000D+00
P   1   1.00
      0.0471956      1.0000000
P   1   1.00
      0.0235978      1.0000000
D   1   1.00
      5.500000D-01           1.0000000
****
H 3
cc-pVDZ
****
H 4
cc-pVDZ
****
H 5
cc-pVDZ
****
H 6
cc-pVDZ
****
H 7
aug-cc-pVDZ
****
$end
--------------------------------------------------------------
 Atom   2: ( -0.6645000000, -0.0000001250,  0.0000000000)
         ->( -0.6645000000,  0.0000001250, -0.0000000000)
 Atom   1: (  0.6645000000, -0.0000001250, -0.0000000000)
         ->(  0.6645000000,  0.0000000000,  0.0000000000)
 Atom   6: ( -1.1590800000, -0.9623481250, -0.0000000000)
         ->( -1.1590800000, -0.9623488750,  0.0000000000)
 Atom   5: (  1.1590800000, -0.9623481250, -0.0000000000)
         ->(  1.1590800000, -0.9623488750, -0.0000000000)
 ----------------------------------------------------------------
             Standard Nuclear Orientation (Angstroms)
    I     Atom           X                Y                Z
 ----------------------------------------------------------------
    1      C       0.6645000000     0.0000000000     0.0000000000
    2      C      -0.6645000000     0.0000001250    -0.0000000000
    3      H       1.1590800000     0.9623488750     0.0000000000
    4      H      -1.1590800000     0.9623488750     0.0000000000
    5      H       1.1590800000    -0.9623488750    -0.0000000000
    6      H      -1.1590800000    -0.9623488750     0.0000000000
 ----------------------------------------------------------------
 Molecular Point Group                 D2h   NOp =  8
 Largest Abelian Subgroup              D2h   NOp =  8
 Nuclear Repulsion Energy =          33.58921667 hartrees
 There are        8 alpha and        8 beta electrons
 Requested basis set is non-standard
 There are 30 shells and 62 basis functions
 Total memory of 95000 MB is distributed as follows: 
   MEM_STATIC is set to 192 MB
   QALLOC/CCMAN JOB total memory use is  94808 MB
 Warning: actual memory use might exceed 95000 MB

 Total QAlloc Memory Limit  95000 MB
 Mega-Array Size       188 MB
 MEM_STATIC part       192 MB

                       Distance Matrix (Angstroms)
             C (  1)   C (  2)   H (  3)   H (  4)   H (  5)
   C (  2)  1.329000
   H (  3)  1.082000  2.061931
   H (  4)  2.061931  1.082000  2.318160
   H (  5)  1.082000  2.061931  1.924698  3.013026
   H (  6)  2.061931  1.082000  3.013026  1.924698  2.318160
 
 A cutoff of  1.0D-14 yielded    465 shell pairs
 There are      2009 function pairs (      2146 Cartesian)
 Smallest overlap matrix eigenvalue = 1.73E-04

 Scale SEOQF with 1.000000e-01/1.000000e-01/1.000000e-01

 Standard Electronic Orientation quadrupole field applied
 Nucleus-field energy     =     0.0000000006 hartrees
 ================ Generating on-the-fly SAD Guess ================
Attempting to make child job directory: /src/jdavis/qchem.scratch/qchem9416//Frg1/
Attempting to make child job directory: /src/jdavis/qchem.scratch/qchem9416//Frg2/
Creating input file /src/jdavis/qchem.scratch/qchem9416/Frg1.input
using default PutDataFrgm: nothing
calling putenv with: QCSCRATCH=/src/jdavis/qchem.scratch/qchem9416/ 
Spawning Job For Fragment 0
Done Job For Fragment 0
calling putenv with: QCSCRATCH=/src/jdavis/qchem.scratch 
calling putenv with: QCTHREADS=8 
Creating input file /src/jdavis/qchem.scratch/qchem9416/Frg2.input
using default PutDataFrgm: nothing
calling putenv with: QCSCRATCH=/src/jdavis/qchem.scratch/qchem9416/ 
Spawning Job For Fragment 1
Done Job For Fragment 1
calling putenv with: QCSCRATCH=/src/jdavis/qchem.scratch 
calling putenv with: QCTHREADS=8 
 Time for running child jobs:  CPU 1.77 s  wall 55.51 s
 ============= Method Specific SAD Guess Constructed =============
 Guess from on-the-fly superposition of atomic densities
 Warning: Energy on first SCF cycle will be non-variational
 A restricted Hartree-Fock SCF calculation will be
 performed using Pulay DIIS extrapolation
 SCF converges when DIIS error is below 1.0E-08
 using 10 threads for integral computing
 -------------------------------------------------------
 OpenMP Integral computing Module                
 Release: version 1.0, May 2013, Q-Chem Inc. Pittsburgh 
 -------------------------------------------------------
 ---------------------------------------
  Cycle       Energy         DIIS Error
 ---------------------------------------
    1     -78.4569441285      7.95E-02
    2     -78.0142229218      5.76E-03
    3     -78.0355580770      1.51E-03
    4     -78.0371952121      5.01E-04
    5     -78.0373650840      6.06E-05
    6     -78.0373699742      1.27E-05
    7     -78.0373703702      3.00E-06
    8     -78.0373704407      2.71E-07
    9     -78.0373704476      3.31E-08
   10     -78.0373704481      3.56E-09 Convergence criterion met
 ---------------------------------------
 SCF time:  CPU 8.69 s  wall 0.87 s
 SCF   energy in the final basis set = -78.03737045
 Total energy in the final basis set = -78.03737045
================================================================================
|                                                                              |
|                                 A D C  M A N                                 |
|                                                                              |
 ------------------------------------------------------------------------------ 
|                                                                              |
| Components:                                                                  |
|                                                                              |
| - libvmm - 1.3-trunk                                                         |
|   Authors:                                                                   |
|   Evgeny Epifanovsky, Ilya Kaliman                                           |
|                                                                              |
| - libtensor - 2.5-trunk                                                      |
|   Authors:                                                                   |
|   Evgeny Epifanovsky, Michael Wormit, Dmitry Zuev, Sam Manzer,               |
|   Ilya Kaliman                                                               |
|                                                                              |
| - libwfa - 1.1-trunk                                                         |
|   Authors:                                                                   |
|   Felix Plasser, Stefanie Mewes (Baeppler), Benjamin Thomitzni,              |
|   Michael Wormit, Feng Chen, Anna I. Krylov, Pavel Pokhilko                  |
|                                                                              |
| - libadc - 1.1-trunk                                                         |
|   Authors:                                                                   |
|   Michael Wormit, Adrian L. Dempwolff, Philipp H. P. Harbach,                |
|   Caroline Krauter, Dirk Rehn, Matthias Schneider, Jan Wenzel                |
|                                                                              |
| - adcman - 2.6-trunk                                                         |
|   Authors:                                                                   |
|   Michael Wormit, Adrian L. Dempwolff, Philipp H. P. Harbach,                |
|   Caroline Krauter, Daniel Lefrancois, Jan-Michael Mewes, Dirk Rehn,         |
|   Matthias Schneider, Jan Wenzel, Andreas Dreuw                              |
|                                                                              |
| Authors of earlier versions of ADCMAN:                                       |
| Andreas Dreuw, Jan Hendrik Starcke, Dirk Rehn, Michael Wormit                |
|                                                                              |
================================================================================

 
 Alpha MOs, Restricted
 -- Occupied --                  
-11.237 -11.235  -1.042  -0.782  -0.660  -0.567  -0.515  -0.377
  1 Ag    1 B3u   2 Ag    2 B3u   1 B2u   3 Ag    1 B1g   1 B1u                
 -- Virtual --                   
  0.047   0.048   0.055   0.067   0.068   0.069   0.106   0.139
  3 B3u   2 B2u   2 B1u   2 B1g   1 B2g   4 Ag    5 Ag    2 B2g                
  0.176   0.195   0.212   0.222   0.226   0.230   0.266   0.298
  4 B3u   3 B2u   3 B1g   3 B1u   6 Ag    5 B3u   7 Ag    3 B2g                
  0.342   0.350   0.497   0.536   0.729   0.815   0.863   0.893
  4 B2u   6 B3u   4 B1g   7 B3u   8 Ag    5 B2u   9 Ag    6 B2u                
  0.915   0.931   0.966   0.980   1.031   1.064   1.114   1.284
  4 B1u   8 B3u   4 B2g   9 B3u  10 Ag    5 B1g   1 B3g   5 B1u                
  1.284   1.326   1.347   1.609   1.615   1.703   1.854   1.913
  1 Au   10 B3u   6 B1g  11 Ag    7 B1g   7 B2u   5 B2g  11 B3u                
  1.939   2.002   2.017   2.054   2.173   2.310   2.412   2.447
  6 B1u  12 Ag    2 B3g   8 B2u   6 B2g  12 B3u   2 Au   13 Ag                 
  2.563   2.570   2.799   2.803   3.248   3.340
  8 B1g  13 B3u   9 B2u  14 Ag   14 B3u   9 B1g                                
 
 Beta MOs, Restricted
 -- Occupied --                  
-11.237 -11.235  -1.042  -0.782  -0.660  -0.567  -0.515  -0.377
  1 Ag    1 B3u   2 Ag    2 B3u   1 B2u   3 Ag    1 B1g   1 B1u                
 -- Virtual --                   
  0.047   0.048   0.055   0.067   0.068   0.069   0.106   0.139
  3 B3u   2 B2u   2 B1u   2 B1g   1 B2g   4 Ag    5 Ag    2 B2g                
  0.176   0.195   0.212   0.222   0.226   0.230   0.266   0.298
  4 B3u   3 B2u   3 B1g   3 B1u   6 Ag    5 B3u   7 Ag    3 B2g                
  0.342   0.350   0.497   0.536   0.729   0.815   0.863   0.893
  4 B2u   6 B3u   4 B1g   7 B3u   8 Ag    5 B2u   9 Ag    6 B2u                
  0.915   0.931   0.966   0.980   1.031   1.064   1.114   1.284
  4 B1u   8 B3u   4 B2g   9 B3u  10 Ag    5 B1g   1 B3g   5 B1u                
  1.284   1.326   1.347   1.609   1.615   1.703   1.854   1.913
  1 Au   10 B3u   6 B1g  11 Ag    7 B1g   7 B2u   5 B2g  11 B3u                
  1.939   2.002   2.017   2.054   2.173   2.310   2.412   2.447
  6 B1u  12 Ag    2 B3g   8 B2u   6 B2g  12 B3u   2 Au   13 Ag                 
  2.563   2.570   2.799   2.803   3.248   3.340
  8 B1g  13 B3u   9 B2u  14 Ag   14 B3u   9 B1g                                

--------------------------------------------------------------------------------
                                   HF Summary                                   
--------------------------------------------------------------------------------
  Energy:                                                  -78.0373704481 a.u.
  Dip. moment [a.u.]:                  [   0.000000,   -0.000001,   -0.000000]
  Total dipole [Debye]:                                               0.000001
  <r^2> [a.u.]:                        [  47.724035,   22.123540,   11.984615]
  Total <r^2> [a.u.]:                                                81.832189
--------------------------------------------------------------------------------

--------------------------------------------------------------------------------
                                 MP(2) Summary                                  
--------------------------------------------------------------------------------
  MP energy contribution:                                   -0.2818936808 a.u.
  Total energy:                                            -78.3192641289 a.u.
  Dip. moment [a.u.]:                  [   0.000000,   -0.000001,    0.000000]
  Total dipole [Debye]:                                               0.000002
  <r^2> [a.u.]:                        [  47.832868,   22.156763,   11.838869]
  Total <r^2> [a.u.]:                                                81.828501

  Density matrix analysis:
  ------------------------
  NOs (alpha)
    Occupation of frontier NOs:
       0.0223   0.9686
    Number of electrons:  8.000000
  NOs (beta)
    Occupation of frontier NOs:
       0.0223   0.9686
    Number of electrons:  8.000000
  NOs (spin-traced)
    Occupation of frontier NOs:
       0.0447   1.9372
    Number of electrons: 16.000000
    Number of unpaired electrons: n_u =  0.40885, n_u,nl =  0.04594
    NO participation ratio (PR_NO): 13.958926
  
  
  Mulliken Population Analysis
  Atom  Charge (e)    Spin (e)  h+ (alpha)   h+ (beta)  e- (alpha)   e- (beta)
  ----------------------------------------------------------------------------
   1 C   -0.168025   -0.000000    0.043974    0.043974   -0.051159   -0.051159
   2 C   -0.168025   -0.000000    0.043974    0.043974   -0.051159   -0.051159
   3 H    0.084011    0.000000    0.008806    0.008806   -0.005213   -0.005213
   4 H    0.084017   -0.000000    0.008806    0.008806   -0.005213   -0.005213
   5 H    0.084014   -0.000000    0.008806    0.008806   -0.005213   -0.005213
   6 H    0.084008   -0.000000    0.008806    0.008806   -0.005213   -0.005213
  ----------------------------------------------------------------------------
  Sum:    0.000000   -0.000000    0.123171    0.123171   -0.123171   -0.123171
  
  Multipole moment analysis of the density matrix
    Molecular charge:                      0.000000
    Number of electrons:                   16.000000
      Center of electronic charge [Ang]: [ -0.000000,   0.000000,  -0.000000]
    Total nuclear charge:                  16.000000
      Center of nuclear charge [Ang]:    [  0.000000,   0.000000,   0.000000]
    Dipole moment [D]:                     0.000002
      Cartesian components [D]:          [  0.000000,  -0.000002,   0.000000]
    RMS size of the density [Ang]:         1.196722
      Cartesian components [Ang]:        [  0.914965,   0.622722,   0.455194]
  
  Exciton analysis of the difference density matrix
  Total:
    <r_h> [Ang]:                  [  0.000000,   0.000000,   0.000000]
    <r_e> [Ang]:                  [  0.000000,   0.000000,  -0.000000]
    |<r_e - r_h>| [Ang]:            0.000000
    Hole size [Ang]:                1.421260
      Cartesian components [Ang]: [  0.966974,   0.727161,   0.745774]
    Electron size [Ang]:            1.419784
      Cartesian components [Ang]: [  1.028958,   0.752682,   0.624903]
  
  Alpha spin:
    <r_h> [Ang]:                  [  0.000000,   0.000000,   0.000000]
    <r_e> [Ang]:                  [  0.000000,   0.000000,  -0.000000]
    |<r_e - r_h>| [Ang]:            0.000000
    Hole size [Ang]:                1.421260
      Cartesian components [Ang]: [  0.966974,   0.727161,   0.745774]
    Electron size [Ang]:            1.419784
      Cartesian components [Ang]: [  1.028958,   0.752682,   0.624903]
  
  Beta spin:
    <r_h> [Ang]:                  [  0.000000,   0.000000,   0.000000]
    <r_e> [Ang]:                  [  0.000000,   0.000000,  -0.000000]
    |<r_e - r_h>| [Ang]:            0.000000
    Hole size [Ang]:                1.421260
      Cartesian components [Ang]: [  0.966974,   0.727161,   0.745774]
    Electron size [Ang]:            1.419784
      Cartesian components [Ang]: [  1.028958,   0.752682,   0.624903]
--------------------------------------------------------------------------------

--------------------------------------------------------------------------------
                                 MP(3) Summary                                  
--------------------------------------------------------------------------------
  MP energy contribution:                                   -0.0245391398 a.u.
  Total energy:                                            -78.3438032687 a.u.
--------------------------------------------------------------------------------
Less particle guess vectors found than requested: 6 (found), 100 (requested).
Adjusting number of hole-2particle guess vectors to 94.
  Starting Davidson for electron-attached states of irrep B2g ... 
--------------------------------------------------------------------------------
   It NVec Conv  Avg. Norm  Max. Norm  Conv. states           Remark
--------------------------------------------------------------------------------
       100    0  4.172e-02  2.606e-01  0.0674 n n n n n n n n Guess.
    1  110    0  6.867e-03  3.819e-02  0.0637 n n n n n n n n 
    2  120    0  1.833e-03  1.127e-02  0.0635 n n n n n n n n 
    3  130    0  5.449e-04  3.506e-03  0.0635 n n n n n n n n 
    4  140    0  2.323e-04  2.071e-03  0.0635 n n n n n n n n 
    5  150    0  6.803e-05  6.283e-04  0.0635 n n n n n n n n 
    6  160    1  1.977e-05  1.882e-04  0.0635 y n n n n n n n 
    7  170    9  5.744e-06  5.576e-05  0.0635 y y y y y y y y 
    8  180    9  1.844e-06  1.815e-05  0.0635 y y y y y y y y 
    9  190   10  5.372e-07  5.323e-06  0.0635 y y y y y y y y Converged.
--------------------------------------------------------------------------------
  Davidson Summary: 
 ------------------------------------------------------------
  State  0: electron attachment energy =   0.0635 a.u.   (converged)
  State  1: electron attachment energy =   0.1089 a.u.   (converged)
  State  2: electron attachment energy =   0.1931 a.u.   (converged)
  State  3: electron attachment energy =   0.2623 a.u.   (converged)
  State  4: electron attachment energy =   0.2959 a.u.   (converged)
  State  5: electron attachment energy =   0.3081 a.u.   (converged)
  State  6: electron attachment energy =   0.3206 a.u.   (converged)
  State  7: electron attachment energy =   0.3267 a.u.   (converged)
  State  8: electron attachment energy =   0.3392 a.u.   (converged)
  State  9: electron attachment energy =   0.3571 a.u.   (converged)
 ------------------------------------------------------------


--------------------------------------------------------------------------------
                        Electron-Attached State Summary
--------------------------------------------------------------------------------

  Electron-attached state 1 (B2g)                                  [converged]
  ----------------------------------------------------------------------------
  Term symbol:  1 (2) B2g                                   R^2 =  1.63749e-08

  Total energy:                                            -78.2802811798 a.u.
  Electron attachment energy:                                      1.728524 eV

  Pole strength:                                                      0.985015

  Dip. moment [a.u.]:                  [   0.000000,   -0.000001,   -0.000000]
  Total dipole [Debye]:                                               0.000002
  <r^2> [a.u.]:                        [  81.598099,   33.422033,   44.894935]
  Total <r^2> [a.u.]:                                               159.915067

  V1^2 = 0.9873, V2^2 = 0.0127

  Important amplitudes:
       occ i       vir a        vir b           v   
    -------------------------------------------------
                               1 (B2g) B      0.9821
                               2 (B2g) B      0.1465
    -------------------------------------------------

  Density matrix analysis:
  ------------------------
  NOs (alpha)
    Occupation of frontier NOs:
       0.0215   0.9659
    Number of electrons:  8.000000
  NOs (beta)
    Occupation of frontier NOs:
       0.0268   0.9676
    Number of electrons:  9.000000
  NOs (spin-traced)
    Occupation of frontier NOs:
       0.0459   0.9914
    Number of electrons: 17.000000
    Number of unpaired electrons: n_u =  1.42312, n_u,nl =  1.04960
    NO participation ratio (PR_NO):  2.033579
  
  
  Mulliken Population Analysis
  Atom  Charge (e)    Spin (e)  h+ (alpha)   h+ (beta)  e- (alpha)   e- (beta)
  ----------------------------------------------------------------------------
   1 C   -0.644967    0.513090    0.024675    0.023460   -0.006602   -0.518477
   2 C   -0.644967    0.513090    0.024675    0.023460   -0.006602   -0.518477
   3 H    0.072482   -0.006545   -0.000218    0.001782   -0.008819   -0.004274
   4 H    0.072488   -0.006545   -0.000218    0.001782   -0.008819   -0.004274
   5 H    0.072485   -0.006545   -0.000218    0.001782   -0.008819   -0.004274
   6 H    0.072480   -0.006545   -0.000218    0.001782   -0.008819   -0.004274
  ----------------------------------------------------------------------------
  Sum:   -1.000000    1.000000    0.048479    0.054048   -0.048479   -1.054048
  
  Multipole moment analysis of the density matrix
    Molecular charge:                      -1.000000
    Number of electrons:                   17.000000
      Center of electronic charge [Ang]: [ -0.000000,   0.000000,   0.000000]
    Total nuclear charge:                  16.000000
      Center of nuclear charge [Ang]:    [  0.000000,   0.000000,   0.000000]
    Dipole moment [D]:                     0.000002
      Cartesian components [D]:          [  0.000000,  -0.000002,  -0.000000]
    RMS size of the density [Ang]:         1.623011
      Cartesian components [Ang]:        [  1.159356,   0.741982,   0.859954]
  
  Exciton analysis of the difference density matrix
  Total:
    <r_h> [Ang]:                  [ -0.000000,  -0.000000,  -0.000000]
    <r_e> [Ang]:                  [ -0.000000,   0.000000,  -0.000000]
    |<r_e - r_h>| [Ang]:            0.000000
    Hole size [Ang]:                2.095032
      Cartesian components [Ang]: [  1.275820,   1.046304,   1.291004]
    Electron size [Ang]:            4.499022
      Cartesian components [Ang]: [  2.954205,   1.721350,   2.924180]
  
  Alpha spin:
    <r_h> [Ang]:                  [ -0.000000,   0.000000,  -0.000000]
    <r_e> [Ang]:                  [ -0.000000,  -0.000000,  -0.000000]
    |<r_e - r_h>| [Ang]:            0.000000
    Hole size [Ang]:                1.916615
      Cartesian components [Ang]: [  1.198806,   0.969984,   1.138160]
    Electron size [Ang]:            2.567004
      Cartesian components [Ang]: [  1.497288,   1.418380,   1.528344]
  
  Beta spin:
    <r_h> [Ang]:                  [ -0.000000,  -0.000000,  -0.000000]
    <r_e> [Ang]:                  [ -0.000000,   0.000000,  -0.000000]
    |<r_e - r_h>| [Ang]:            0.000000
    Hole size [Ang]:                2.243023
      Cartesian components [Ang]: [  1.341140,   1.110306,   1.414113]
    Electron size [Ang]:            4.568269
      Cartesian components [Ang]: [  3.004266,   1.734012,   2.972655]
  ----------------------------------------------------------------------------


  Electron-attached state 2 (B2g)                                  [converged]
  ----------------------------------------------------------------------------
  Term symbol:  2 (2) B2g                                   R^2 =  6.61925e-08

  Total energy:                                            -78.2349345507 a.u.
  Electron attachment energy:                                      2.962468 eV

  Pole strength:                                                      0.913631

  Dip. moment [a.u.]:                  [   0.000000,   -0.000001,   -0.000000]
  Total dipole [Debye]:                                               0.000002
  <r^2> [a.u.]:                        [  65.564735,   29.013955,   29.077520]
  Total <r^2> [a.u.]:                                               123.656210

  V1^2 = 0.9254, V2^2 = 0.0746

  Important amplitudes:
       occ i       vir a        vir b           v   
    -------------------------------------------------
                               2 (B2g) B     -0.9354
                               1 (B2g) B      0.1718
    -------------------------------------------------

  Density matrix analysis:
  ------------------------
  NOs (alpha)
    Occupation of frontier NOs:
       0.0231   0.9528
    Number of electrons:  8.000000
  NOs (beta)
    Occupation of frontier NOs:
       0.0281   0.9644
    Number of electrons:  9.000000
  NOs (spin-traced)
    Occupation of frontier NOs:
       0.0370   0.9788
    Number of electrons: 17.000000
    Number of unpaired electrons: n_u =  1.45885, n_u,nl =  1.05847
    NO participation ratio (PR_NO):  2.186047
  
  
  Mulliken Population Analysis
  Atom  Charge (e)    Spin (e)  h+ (alpha)   h+ (beta)  e- (alpha)   e- (beta)
  ----------------------------------------------------------------------------
   1 C   -0.553517    0.543775    0.136981    0.077718   -0.057839   -0.542351
   2 C   -0.553517    0.543775    0.136981    0.077718   -0.057839   -0.542351
   3 H    0.026757   -0.021887    0.001488    0.007645   -0.041059   -0.025328
   4 H    0.026762   -0.021887    0.001488    0.007645   -0.041059   -0.025328
   5 H    0.026760   -0.021887    0.001488    0.007645   -0.041059   -0.025328
   6 H    0.026754   -0.021887    0.001488    0.007645   -0.041059   -0.025328
  ----------------------------------------------------------------------------
  Sum:   -1.000000    1.000000    0.279914    0.186015   -0.279914   -1.186015
  
  Multipole moment analysis of the density matrix
    Molecular charge:                      -1.000000
    Number of electrons:                   17.000000
      Center of electronic charge [Ang]: [ -0.000000,   0.000000,   0.000000]
    Total nuclear charge:                  16.000000
      Center of nuclear charge [Ang]:    [  0.000000,   0.000000,   0.000000]
    Dipole moment [D]:                     0.000002
      Cartesian components [D]:          [  0.000000,  -0.000002,  -0.000000]
    RMS size of the density [Ang]:         1.427199
      Cartesian components [Ang]:        [  1.039230,   0.691322,   0.692078]
  
  Exciton analysis of the difference density matrix
  Total:
    <r_h> [Ang]:                  [ -0.000000,  -0.000000,  -0.000000]
    <r_e> [Ang]:                  [ -0.000000,   0.000000,   0.000000]
    |<r_e - r_h>| [Ang]:            0.000000
    Hole size [Ang]:                1.882188
      Cartesian components [Ang]: [  1.188176,   0.939479,   1.117251]
    Electron size [Ang]:            3.019289
      Cartesian components [Ang]: [  1.958555,   1.261120,   1.920872]
  
  Alpha spin:
    <r_h> [Ang]:                  [ -0.000000,   0.000000,  -0.000000]
    <r_e> [Ang]:                  [ -0.000000,  -0.000000,  -0.000000]
    |<r_e - r_h>| [Ang]:            0.000000
    Hole size [Ang]:                1.894632
      Cartesian components [Ang]: [  1.173605,   0.926538,   1.163534]
    Electron size [Ang]:            2.674524
      Cartesian components [Ang]: [  1.551054,   1.400753,   1.668893]
  
  Beta spin:
    <r_h> [Ang]:                  [ -0.000000,  -0.000000,  -0.000000]
    <r_e> [Ang]:                  [ -0.000000,   0.000000,   0.000000]
    |<r_e - r_h>| [Ang]:            0.000000
    Hole size [Ang]:                1.863306
      Cartesian components [Ang]: [  1.209772,   0.958623,   1.043745]
    Electron size [Ang]:            3.095062
      Cartesian components [Ang]: [  2.042908,   1.225847,   1.975660]
  ----------------------------------------------------------------------------


  Electron-attached state 3 (B2g)                                  [converged]
  ----------------------------------------------------------------------------
  Term symbol:  3 (2) B2g                                   R^2 =  1.02724e-07

  Total energy:                                            -78.1507522700 a.u.
  Electron attachment energy:                                      5.253185 eV

  Pole strength:                                                      0.042791

  Dip. moment [a.u.]:                  [  -0.000000,   -0.000001,    0.000000]
  Total dipole [Debye]:                                               0.000002
  <r^2> [a.u.]:                        [  66.270977,   37.580598,   57.760265]
  Total <r^2> [a.u.]:                                               161.611840

  V1^2 = 0.0429, V2^2 = 0.9571

  Important amplitudes:
       occ i       vir a        vir b           v   
    -------------------------------------------------
     1 (B1u) A    2 (B1u) A    2 (B2g) B     -0.4705
     1 (B1u) A    2 (B1u) A    3 (B2g) B      0.2456
    -------------------------------------------------

  Density matrix analysis:
  ------------------------
  NOs (alpha)
    Occupation of frontier NOs:
       0.1859   0.6527
    Number of electrons:  8.000000
  NOs (beta)
    Occupation of frontier NOs:
       0.3140   0.8168
    Number of electrons:  9.000000
  NOs (spin-traced)
    Occupation of frontier NOs:
       0.8335   1.0024
    Number of electrons: 17.000000
    Number of unpaired electrons: n_u =  3.07607, n_u,nl =  2.95195
    NO participation ratio (PR_NO):  3.797470
  
  
  Mulliken Population Analysis
  Atom  Charge (e)    Spin (e)  h+ (alpha)   h+ (beta)  e- (alpha)   e- (beta)
  ----------------------------------------------------------------------------
   1 C   -0.654553    0.490978    0.403945    0.081349   -0.401719   -0.570103
   2 C   -0.654553    0.490978    0.403945    0.081349   -0.401719   -0.570103
   3 H    0.077275    0.004511    0.001956    0.000681   -0.003068   -0.006304
   4 H    0.077281    0.004511    0.001956    0.000681   -0.003068   -0.006304
   5 H    0.077278    0.004511    0.001956    0.000681   -0.003068   -0.006304
   6 H    0.077272    0.004511    0.001956    0.000681   -0.003068   -0.006304
  ----------------------------------------------------------------------------
  Sum:   -1.000000    1.000000    0.815713    0.165423   -0.815713   -1.165423
  
  Multipole moment analysis of the density matrix
    Molecular charge:                      -1.000000
    Number of electrons:                   17.000000
      Center of electronic charge [Ang]: [  0.000000,   0.000000,  -0.000000]
    Total nuclear charge:                  16.000000
      Center of nuclear charge [Ang]:    [  0.000000,   0.000000,   0.000000]
    Dipole moment [D]:                     0.000002
      Cartesian components [D]:          [ -0.000000,  -0.000002,   0.000000]
    RMS size of the density [Ang]:         1.631598
      Cartesian components [Ang]:        [  1.044812,   0.786789,   0.975419]
  
  Exciton analysis of the difference density matrix
  Total:
    <r_h> [Ang]:                  [ -0.000000,   0.000000,   0.000000]
    <r_e> [Ang]:                  [  0.000000,   0.000000,  -0.000000]
    |<r_e - r_h>| [Ang]:            0.000000
    Hole size [Ang]:                1.329077
      Cartesian components [Ang]: [  0.781513,   0.552701,   0.922065]
    Electron size [Ang]:            3.485970
      Cartesian components [Ang]: [  1.705477,   1.526894,   2.629054]
  
  Alpha spin:
    <r_h> [Ang]:                  [ -0.000000,   0.000000,   0.000000]
    <r_e> [Ang]:                  [  0.000000,   0.000000,  -0.000000]
    |<r_e - r_h>| [Ang]:            0.000000
    Hole size [Ang]:                1.320439
      Cartesian components [Ang]: [  0.775302,   0.546415,   0.918638]
    Electron size [Ang]:            4.233569
      Cartesian components [Ang]: [  1.960258,   1.880801,   3.247011]
  
  Beta spin:
    <r_h> [Ang]:                  [ -0.000000,   0.000000,   0.000000]
    <r_e> [Ang]:                  [  0.000000,   0.000000,  -0.000000]
    |<r_e - r_h>| [Ang]:            0.000000
    Hole size [Ang]:                1.370875
      Cartesian components [Ang]: [  0.811442,   0.582707,   0.938782]
    Electron size [Ang]:            2.848265
      Cartesian components [Ang]: [  1.501649,   1.219544,   2.090545]
  ----------------------------------------------------------------------------


  Electron-attached state 4 (B2g)                                  [converged]
  ----------------------------------------------------------------------------
  Term symbol:  4 (2) B2g                                   R^2 =  5.01343e-07

  Total energy:                                            -78.0814891329 a.u.
  Electron attachment energy:                                      7.137931 eV

  Pole strength:                                                      0.879224

  Dip. moment [a.u.]:                  [   0.000000,   -0.000001,   -0.000000]
  Total dipole [Debye]:                                               0.000002
  <r^2> [a.u.]:                        [  66.941829,   29.653092,   31.942304]
  Total <r^2> [a.u.]:                                               128.537226

  V1^2 = 0.8835, V2^2 = 0.1165

  Important amplitudes:
       occ i       vir a        vir b           v   
    -------------------------------------------------
                               3 (B2g) B      0.9224
                               2 (B2g) B      0.1739
    -------------------------------------------------

  Density matrix analysis:
  ------------------------
  NOs (alpha)
    Occupation of frontier NOs:
       0.0441   0.9071
    Number of electrons:  8.000000
  NOs (beta)
    Occupation of frontier NOs:
       0.0806   0.8949
    Number of electrons:  9.000000
  NOs (spin-traced)
    Occupation of frontier NOs:
       0.1186   0.9020
    Number of electrons: 17.000000
    Number of unpaired electrons: n_u =  1.61265, n_u,nl =  1.15029
    NO participation ratio (PR_NO):  3.020940
  
  
  Mulliken Population Analysis
  Atom  Charge (e)    Spin (e)  h+ (alpha)   h+ (beta)  e- (alpha)   e- (beta)
  ----------------------------------------------------------------------------
   1 C   -0.587345    0.514985    0.094954    0.046552   -0.047121   -0.513705
   2 C   -0.587345    0.514985    0.094954    0.046552   -0.047121   -0.513705
   3 H    0.043671   -0.007492    0.000593    0.000957   -0.024510   -0.017381
   4 H    0.043676   -0.007492    0.000593    0.000957   -0.024510   -0.017381
   5 H    0.043674   -0.007492    0.000593    0.000957   -0.024510   -0.017381
   6 H    0.043668   -0.007492    0.000593    0.000957   -0.024510   -0.017381
  ----------------------------------------------------------------------------
  Sum:   -1.000000    1.000000    0.192281    0.096932   -0.192281   -1.096932
  
  Multipole moment analysis of the density matrix
    Molecular charge:                      -1.000000
    Number of electrons:                   17.000000
      Center of electronic charge [Ang]: [ -0.000000,   0.000000,   0.000000]
    Total nuclear charge:                  16.000000
      Center of nuclear charge [Ang]:    [  0.000000,   0.000000,   0.000000]
    Dipole moment [D]:                     0.000002
      Cartesian components [D]:          [  0.000000,  -0.000002,  -0.000000]
    RMS size of the density [Ang]:         1.455094
      Cartesian components [Ang]:        [  1.050087,   0.698895,   0.725370]
  
  Exciton analysis of the difference density matrix
  Total:
    <r_h> [Ang]:                  [ -0.000000,   0.000000,  -0.000000]
    <r_e> [Ang]:                  [ -0.000000,   0.000000,   0.000000]
    |<r_e - r_h>| [Ang]:            0.000000
    Hole size [Ang]:                1.648319
      Cartesian components [Ang]: [  1.094969,   0.836813,   0.904290]
    Electron size [Ang]:            3.279489
      Cartesian components [Ang]: [  2.102285,   1.336173,   2.133094]
  
  Alpha spin:
    <r_h> [Ang]:                  [ -0.000000,   0.000000,  -0.000000]
    <r_e> [Ang]:                  [ -0.000000,  -0.000000,  -0.000000]
    |<r_e - r_h>| [Ang]:            0.000000
    Hole size [Ang]:                1.596428
      Cartesian components [Ang]: [  1.057893,   0.787627,   0.899493]
    Electron size [Ang]:            2.957719
      Cartesian components [Ang]: [  1.666187,   1.495043,   1.933072]
  
  Beta spin:
    <r_h> [Ang]:                  [  0.000000,  -0.000000,  -0.000000]
    <r_e> [Ang]:                  [ -0.000000,   0.000000,   0.000000]
    |<r_e - r_h>| [Ang]:            0.000000
    Hole size [Ang]:                1.746696
      Cartesian components [Ang]: [  1.165027,   0.926688,   0.913733]
    Electron size [Ang]:            3.332694
      Cartesian components [Ang]: [  2.169718,   1.306337,   2.166254]
  ----------------------------------------------------------------------------


  Electron-attached state 5 (B2g)                                  [converged]
  ----------------------------------------------------------------------------
  Term symbol:  5 (2) B2g                                   R^2 =  1.67594e-07

  Total energy:                                            -78.0479130419 a.u.
  Electron attachment energy:                                      8.051583 eV

  Pole strength:                                                      0.004366

  Dip. moment [a.u.]:                  [   0.000000,   -0.000001,   -0.000000]
  Total dipole [Debye]:                                               0.000002
  <r^2> [a.u.]:                        [ 106.070274,   44.642285,   33.426381]
  Total <r^2> [a.u.]:                                               184.138939

  V1^2 = 0.0044, V2^2 = 0.9956

  Important amplitudes:
       occ i       vir a        vir b           v   
    -------------------------------------------------
     1 (B1u) B    5 (Ag ) B    3 (B3u) B     -0.4122
     1 (B1u) A    3 (B3u) A    5 (Ag ) B      0.4094
    -------------------------------------------------

  Density matrix analysis:
  ------------------------
  NOs (alpha)
    Occupation of frontier NOs:
       0.3843   0.4928
    Number of electrons:  8.000000
  NOs (beta)
    Occupation of frontier NOs:
       0.4515   0.5289
    Number of electrons:  9.000000
  NOs (spin-traced)
    Occupation of frontier NOs:
       0.8576   0.9096
    Number of electrons: 17.000000
    Number of unpaired electrons: n_u =  3.28651, n_u,nl =  3.01106
    NO participation ratio (PR_NO):  4.366230
  
  
  Mulliken Population Analysis
  Atom  Charge (e)    Spin (e)  h+ (alpha)   h+ (beta)  e- (alpha)   e- (beta)
  ----------------------------------------------------------------------------
   1 C   -0.725266    0.572227    0.236015    0.256339   -0.228522   -0.821073
   2 C   -0.725266    0.572227    0.236015    0.256339   -0.228522   -0.821073
   3 H    0.112632   -0.036114    0.001405    0.001471   -0.005152    0.030896
   4 H    0.112637   -0.036113    0.001405    0.001471   -0.005152    0.030895
   5 H    0.112634   -0.036113    0.001405    0.001471   -0.005152    0.030895
   6 H    0.112629   -0.036114    0.001405    0.001471   -0.005152    0.030896
  ----------------------------------------------------------------------------
  Sum:   -1.000000    1.000000    0.477651    0.518564   -0.477651   -1.518564
  
  Multipole moment analysis of the density matrix
    Molecular charge:                      -1.000000
    Number of electrons:                   17.000000
      Center of electronic charge [Ang]: [ -0.000000,   0.000000,   0.000000]
    Total nuclear charge:                  16.000000
      Center of nuclear charge [Ang]:    [  0.000000,   0.000000,   0.000000]
    Dipole moment [D]:                     0.000002
      Cartesian components [D]:          [  0.000000,  -0.000002,  -0.000000]
    RMS size of the density [Ang]:         1.741604
      Cartesian components [Ang]:        [  1.321824,   0.857531,   0.742030]
  
  Exciton analysis of the difference density matrix
  Total:
    <r_h> [Ang]:                  [ -0.000000,   0.000000,   0.000000]
    <r_e> [Ang]:                  [ -0.000000,   0.000000,   0.000000]
    |<r_e - r_h>| [Ang]:            0.000000
    Hole size [Ang]:                1.253291
      Cartesian components [Ang]: [  0.748958,   0.511352,   0.865054]
    Electron size [Ang]:            3.890497
      Cartesian components [Ang]: [  2.906797,   1.812390,   1.844381]
  
  Alpha spin:
    <r_h> [Ang]:                  [ -0.000000,   0.000000,   0.000000]
    <r_e> [Ang]:                  [ -0.000000,   0.000000,   0.000000]
    |<r_e - r_h>| [Ang]:            0.000000
    Hole size [Ang]:                1.249985
      Cartesian components [Ang]: [  0.748116,   0.509732,   0.861950]
    Electron size [Ang]:            4.597271
      Cartesian components [Ang]: [  3.565796,   2.068490,   2.035032]
  
  Beta spin:
    <r_h> [Ang]:                  [ -0.000000,   0.000000,   0.000000]
    <r_e> [Ang]:                  [ -0.000000,   0.000000,   0.000000]
    |<r_e - r_h>| [Ang]:            0.000000
    Hole size [Ang]:                1.256328
      Cartesian components [Ang]: [  0.749734,   0.512839,   0.867903]
    Electron size [Ang]:            3.639925
      Cartesian components [Ang]: [  2.666048,   1.723988,   1.780197]
  ----------------------------------------------------------------------------


  Electron-attached state 6 (B2g)                                  [converged]
  ----------------------------------------------------------------------------
  Term symbol:  6 (2) B2g                                   R^2 =  1.47250e-07

  Total energy:                                            -78.0357257648 a.u.
  Electron attachment energy:                                      8.383215 eV

  Pole strength:                                                      0.000152

  Dip. moment [a.u.]:                  [   0.000000,   -0.000001,   -0.000000]
  Total dipole [Debye]:                                               0.000002
  <r^2> [a.u.]:                        [ 105.921991,   47.208410,   35.472985]
  Total <r^2> [a.u.]:                                               188.603385

  V1^2 = 0.0002, V2^2 = 0.9998

  Important amplitudes:
       occ i       vir a        vir b           v   
    -------------------------------------------------
     1 (B1u) A    5 (Ag ) A    3 (B3u) B      0.4544
     1 (B1u) A    3 (B3u) A    5 (Ag ) B      0.2823
    -------------------------------------------------

  Density matrix analysis:
  ------------------------
  NOs (alpha)
    Occupation of frontier NOs:
       0.2388   0.4601
    Number of electrons:  8.000000
  NOs (beta)
    Occupation of frontier NOs:
       0.2497   0.6277
    Number of electrons:  9.000000
  NOs (spin-traced)
    Occupation of frontier NOs:
       0.7030   0.8662
    Number of electrons: 17.000000
    Number of unpaired electrons: n_u =  3.28707, n_u,nl =  2.98656
    NO participation ratio (PR_NO):  4.944516
  
  
  Mulliken Population Analysis
  Atom  Charge (e)    Spin (e)  h+ (alpha)   h+ (beta)  e- (alpha)   e- (beta)
  ----------------------------------------------------------------------------
   1 C   -0.694043    0.466864    0.402243    0.091764   -0.431821   -0.588205
   2 C   -0.694043    0.466864    0.402243    0.091764   -0.431821   -0.588205
   3 H    0.097021    0.016568    0.002402    0.000568    0.012386   -0.002348
   4 H    0.097025    0.016568    0.002402    0.000568    0.012386   -0.002348
   5 H    0.097023    0.016568    0.002402    0.000568    0.012386   -0.002348
   6 H    0.097018    0.016568    0.002402    0.000568    0.012386   -0.002348
  ----------------------------------------------------------------------------
  Sum:   -1.000000    1.000000    0.814097    0.185802   -0.814097   -1.185802
  
  Multipole moment analysis of the density matrix
    Molecular charge:                      -1.000000
    Number of electrons:                   17.000000
      Center of electronic charge [Ang]: [ -0.000000,   0.000000,   0.000000]
    Total nuclear charge:                  16.000000
      Center of nuclear charge [Ang]:    [  0.000000,   0.000000,   0.000000]
    Dipole moment [D]:                     0.000002
      Cartesian components [D]:          [  0.000000,  -0.000002,  -0.000000]
    RMS size of the density [Ang]:         1.762590
      Cartesian components [Ang]:        [  1.320899,   0.881833,   0.764409]
  
  Exciton analysis of the difference density matrix
  Total:
    <r_h> [Ang]:                  [ -0.000000,   0.000000,   0.000000]
    <r_e> [Ang]:                  [ -0.000000,   0.000000,   0.000000]
    |<r_e - r_h>| [Ang]:            0.000000
    Hole size [Ang]:                1.252564
      Cartesian components [Ang]: [  0.748355,   0.510975,   0.864746]
    Electron size [Ang]:            3.966760
      Cartesian components [Ang]: [  2.900642,   1.907435,   1.919155]
  
  Alpha spin:
    <r_h> [Ang]:                  [ -0.000000,   0.000000,   0.000000]
    <r_e> [Ang]:                  [ -0.000000,   0.000000,  -0.000000]
    |<r_e - r_h>| [Ang]:            0.000000
    Hole size [Ang]:                1.253270
      Cartesian components [Ang]: [  0.748527,   0.511260,   0.865451]
    Electron size [Ang]:            3.603825
      Cartesian components [Ang]: [  2.462965,   1.844795,   1.875657]
  
  Beta spin:
    <r_h> [Ang]:                  [ -0.000000,   0.000000,   0.000000]
    <r_e> [Ang]:                  [ -0.000000,   0.000000,   0.000000]
    |<r_e - r_h>| [Ang]:            0.000000
    Hole size [Ang]:                1.249467
      Cartesian components [Ang]: [  0.747602,   0.509723,   0.861650]
    Electron size [Ang]:            4.197801
      Cartesian components [Ang]: [  3.166289,   1.949274,   1.948456]
  ----------------------------------------------------------------------------


  Electron-attached state 7 (B2g)                                  [converged]
  ----------------------------------------------------------------------------
  Term symbol:  7 (2) B2g                                   R^2 =  1.55979e-07

  Total energy:                                            -78.0231956041 a.u.
  Electron attachment energy:                                      8.724178 eV

  Pole strength:                                                      0.001777

  Dip. moment [a.u.]:                  [   0.000000,   -0.000001,   -0.000000]
  Total dipole [Debye]:                                               0.000002
  <r^2> [a.u.]:                        [ 116.740181,   64.801146,   36.863718]
  Total <r^2> [a.u.]:                                               218.405045

  V1^2 = 0.0018, V2^2 = 0.9982

  Important amplitudes:
       occ i       vir a        vir b           v   
    -------------------------------------------------
     1 (B1u) B    4 (Ag ) B    3 (B3u) B     -0.3583
     1 (B1u) B    2 (B1g) B    2 (B2u) B      0.3291
    -------------------------------------------------

  Density matrix analysis:
  ------------------------
  NOs (alpha)
    Occupation of frontier NOs:
       0.1501   0.6053
    Number of electrons:  8.000000
  NOs (beta)
    Occupation of frontier NOs:
       0.3397   0.3776
    Number of electrons:  9.000000
  NOs (spin-traced)
    Occupation of frontier NOs:
       0.5163   0.5357
    Number of electrons: 17.000000
    Number of unpaired electrons: n_u =  3.28705, n_u,nl =  3.04263
    NO participation ratio (PR_NO):  6.149433
  
  
  Mulliken Population Analysis
  Atom  Charge (e)    Spin (e)  h+ (alpha)   h+ (beta)  e- (alpha)   e- (beta)
  ----------------------------------------------------------------------------
   1 C   -0.599157    0.454359    0.180366    0.313262   -0.168752   -0.756008
   2 C   -0.599157    0.454359    0.180366    0.313262   -0.168752   -0.756008
   3 H    0.049577    0.022820    0.001051    0.001824   -0.006858   -0.030452
   4 H    0.049582    0.022820    0.001051    0.001824   -0.006858   -0.030452
   5 H    0.049580    0.022820    0.001051    0.001824   -0.006858   -0.030452
   6 H    0.049574    0.022820    0.001051    0.001824   -0.006858   -0.030452
  ----------------------------------------------------------------------------
  Sum:   -1.000000    1.000000    0.364937    0.633822   -0.364937   -1.633822
  
  Multipole moment analysis of the density matrix
    Molecular charge:                      -1.000000
    Number of electrons:                   17.000000
      Center of electronic charge [Ang]: [ -0.000000,   0.000000,   0.000000]
    Total nuclear charge:                  16.000000
      Center of nuclear charge [Ang]:    [  0.000000,   0.000000,   0.000000]
    Dipole moment [D]:                     0.000002
      Cartesian components [D]:          [  0.000000,  -0.000002,  -0.000000]
    RMS size of the density [Ang]:         1.896741
      Cartesian components [Ang]:        [  1.386714,   1.033161,   0.779249]
  
  Exciton analysis of the difference density matrix
  Total:
    <r_h> [Ang]:                  [ -0.000000,   0.000000,   0.000000]
    <r_e> [Ang]:                  [ -0.000000,   0.000000,   0.000000]
    |<r_e - r_h>| [Ang]:            0.000000
    Hole size [Ang]:                1.256744
      Cartesian components [Ang]: [  0.749991,   0.513110,   0.868122]
    Electron size [Ang]:            4.463603
      Cartesian components [Ang]: [  3.151994,   2.471050,   1.970430]
  
  Alpha spin:
    <r_h> [Ang]:                  [ -0.000000,   0.000000,   0.000000]
    <r_e> [Ang]:                  [ -0.000000,   0.000000,   0.000000]
    |<r_e - r_h>| [Ang]:            0.000000
    Hole size [Ang]:                1.256483
      Cartesian components [Ang]: [  0.750045,   0.513312,   0.867579]
    Electron size [Ang]:            4.279752
      Cartesian components [Ang]: [  2.960345,   2.415573,   1.928120]
  
  Beta spin:
    <r_h> [Ang]:                  [ -0.000000,   0.000000,   0.000000]
    <r_e> [Ang]:                  [ -0.000000,   0.000000,   0.000000]
    |<r_e - r_h>| [Ang]:            0.000000
    Hole size [Ang]:                1.256894
      Cartesian components [Ang]: [  0.749961,   0.512994,   0.868434]
    Electron size [Ang]:            4.503643
      Cartesian components [Ang]: [  3.193230,   2.483272,   1.979757]
  ----------------------------------------------------------------------------


  Electron-attached state 8 (B2g)                                  [converged]
  ----------------------------------------------------------------------------
  Term symbol:  8 (2) B2g                                   R^2 =  2.32505e-07

  Total energy:                                            -78.0170668241 a.u.
  Electron attachment energy:                                      8.890951 eV

  Pole strength:                                                      0.009641

  Dip. moment [a.u.]:                  [   0.000000,   -0.000001,    0.000000]
  Total dipole [Debye]:                                               0.000001
  <r^2> [a.u.]:                        [  86.181400,   53.936586,   60.558114]
  Total <r^2> [a.u.]:                                               200.676100

  V1^2 = 0.0097, V2^2 = 0.9903

  Important amplitudes:
       occ i       vir a        vir b           v   
    -------------------------------------------------
     1 (B1u) B    1 (B2g) B    2 (B1u) B     -0.4015
     1 (B1u) A    1 (B2g) A    2 (B1u) B     -0.3002
    -------------------------------------------------

  Density matrix analysis:
  ------------------------
  NOs (alpha)
    Occupation of frontier NOs:
       0.2864   0.5480
    Number of electrons:  8.000000
  NOs (beta)
    Occupation of frontier NOs:
       0.4152   0.4222
    Number of electrons:  9.000000
  NOs (spin-traced)
    Occupation of frontier NOs:
       0.6987   0.7124
    Number of electrons: 17.000000
    Number of unpaired electrons: n_u =  3.31892, n_u,nl =  3.05445
    NO participation ratio (PR_NO):  5.345210
  
  
  Mulliken Population Analysis
  Atom  Charge (e)    Spin (e)  h+ (alpha)   h+ (beta)  e- (alpha)   e- (beta)
  ----------------------------------------------------------------------------
   1 C   -0.636553    0.480157    0.212622    0.276695   -0.206808   -0.751037
   2 C   -0.636553    0.480157    0.212622    0.276695   -0.206808   -0.751037
   3 H    0.068275    0.009922    0.001502    0.001971   -0.004409   -0.014800
   4 H    0.068281    0.009922    0.001502    0.001971   -0.004409   -0.014800
   5 H    0.068278    0.009922    0.001502    0.001971   -0.004409   -0.014800
   6 H    0.068273    0.009922    0.001502    0.001971   -0.004409   -0.014800
  ----------------------------------------------------------------------------
  Sum:   -1.000000    1.000000    0.431253    0.561273   -0.431253   -1.561273
  
  Multipole moment analysis of the density matrix
    Molecular charge:                      -1.000000
    Number of electrons:                   17.000000
      Center of electronic charge [Ang]: [ -0.000000,   0.000000,  -0.000000]
    Total nuclear charge:                  16.000000
      Center of nuclear charge [Ang]:    [  0.000000,   0.000000,   0.000000]
    Dipole moment [D]:                     0.000001
      Cartesian components [D]:          [  0.000000,  -0.000001,   0.000000]
    RMS size of the density [Ang]:         1.818128
      Cartesian components [Ang]:        [  1.191471,   0.942580,   0.998764]
  
  Exciton analysis of the difference density matrix
  Total:
    <r_h> [Ang]:                  [ -0.000000,   0.000000,   0.000000]
    <r_e> [Ang]:                  [ -0.000000,   0.000000,  -0.000000]
    |<r_e - r_h>| [Ang]:            0.000000
    Hole size [Ang]:                1.266492
      Cartesian components [Ang]: [  0.757423,   0.521092,   0.871078]
    Electron size [Ang]:            4.183512
      Cartesian components [Ang]: [  2.382279,   2.145129,   2.687925]
  
  Alpha spin:
    <r_h> [Ang]:                  [ -0.000000,   0.000000,   0.000000]
    <r_e> [Ang]:                  [ -0.000000,   0.000000,  -0.000000]
    |<r_e - r_h>| [Ang]:            0.000000
    Hole size [Ang]:                1.263570
      Cartesian components [Ang]: [  0.757054,   0.520120,   0.867729]
    Electron size [Ang]:            3.813340
      Cartesian components [Ang]: [  2.468782,   1.922999,   2.179164]
  
  Beta spin:
    <r_h> [Ang]:                  [ -0.000000,   0.000000,   0.000000]
    <r_e> [Ang]:                  [  0.000000,   0.000000,  -0.000000]
    |<r_e - r_h>| [Ang]:            0.000000
    Hole size [Ang]:                1.268733
      Cartesian components [Ang]: [  0.757707,   0.521837,   0.873642]
    Electron size [Ang]:            4.280122
      Cartesian components [Ang]: [  2.357826,   2.202541,   2.812279]
  ----------------------------------------------------------------------------


  Electron-attached state 9 (B2g)                                  [converged]
  ----------------------------------------------------------------------------
  Term symbol:  9 (2) B2g                                   R^2 =  3.63389e-07

  Total energy:                                            -78.0045719319 a.u.
  Electron attachment energy:                                      9.230954 eV

  Pole strength:                                                      0.001004

  Dip. moment [a.u.]:                  [   0.000000,   -0.000001,   -0.000000]
  Total dipole [Debye]:                                               0.000001
  <r^2> [a.u.]:                        [ 104.506660,   64.644813,   39.444163]
  Total <r^2> [a.u.]:                                               208.595636

  V1^2 = 0.0010, V2^2 = 0.9990

  Important amplitudes:
       occ i       vir a        vir b           v   
    -------------------------------------------------
     1 (B1u) B    2 (B1g) B    2 (B2u) B      0.3325
     1 (B1u) B    4 (Ag ) B    3 (B3u) B      0.2608
    -------------------------------------------------

  Density matrix analysis:
  ------------------------
  NOs (alpha)
    Occupation of frontier NOs:
       0.0983   0.6034
    Number of electrons:  8.000000
  NOs (beta)
    Occupation of frontier NOs:
       0.3446   0.3747
    Number of electrons:  9.000000
  NOs (spin-traced)
    Occupation of frontier NOs:
       0.4549   0.4549
    Number of electrons: 17.000000
    Number of unpaired electrons: n_u =  3.30046, n_u,nl =  2.94164
    NO participation ratio (PR_NO):  6.593906
  
  
  Mulliken Population Analysis
  Atom  Charge (e)    Spin (e)  h+ (alpha)   h+ (beta)  e- (alpha)   e- (beta)
  ----------------------------------------------------------------------------
   1 C   -0.591526    0.443148    0.182050    0.310207   -0.172227   -0.743532
   2 C   -0.591526    0.443148    0.182050    0.310207   -0.172227   -0.743532
   3 H    0.045762    0.028426    0.001430    0.002189   -0.006342   -0.035526
   4 H    0.045767    0.028426    0.001430    0.002189   -0.006342   -0.035527
   5 H    0.045764    0.028426    0.001430    0.002189   -0.006342   -0.035527
   6 H    0.045759    0.028426    0.001430    0.002189   -0.006342   -0.035526
  ----------------------------------------------------------------------------
  Sum:   -1.000000    1.000000    0.369821    0.629170   -0.369821   -1.629170
  
  Multipole moment analysis of the density matrix
    Molecular charge:                      -1.000000
    Number of electrons:                   17.000000
      Center of electronic charge [Ang]: [ -0.000000,   0.000000,   0.000000]
    Total nuclear charge:                  16.000000
      Center of nuclear charge [Ang]:    [  0.000000,   0.000000,   0.000000]
    Dipole moment [D]:                     0.000001
      Cartesian components [D]:          [  0.000000,  -0.000001,  -0.000000]
    RMS size of the density [Ang]:         1.853657
      Cartesian components [Ang]:        [  1.312045,   1.031914,   0.806061]
  
  Exciton analysis of the difference density matrix
  Total:
    <r_h> [Ang]:                  [ -0.000000,   0.000000,   0.000000]
    <r_e> [Ang]:                  [ -0.000000,   0.000000,   0.000000]
    |<r_e - r_h>| [Ang]:            0.000000
    Hole size [Ang]:                1.252775
      Cartesian components [Ang]: [  0.750784,   0.512753,   0.861889]
    Electron size [Ang]:            4.306099
      Cartesian components [Ang]: [  2.867200,   2.466440,   2.058719]
  
  Alpha spin:
    <r_h> [Ang]:                  [ -0.000000,   0.000000,   0.000000]
    <r_e> [Ang]:                  [ -0.000000,   0.000000,   0.000000]
    |<r_e - r_h>| [Ang]:            0.000000
    Hole size [Ang]:                1.252135
      Cartesian components [Ang]: [  0.751511,   0.513173,   0.860073]
    Electron size [Ang]:            4.134482
      Cartesian components [Ang]: [  2.838205,   2.353899,   1.870212]
  
  Beta spin:
    <r_h> [Ang]:                  [ -0.000000,   0.000000,   0.000000]
    <r_e> [Ang]:                  [ -0.000000,   0.000000,   0.000000]
    |<r_e - r_h>| [Ang]:            0.000000
    Hole size [Ang]:                1.253151
      Cartesian components [Ang]: [  0.750357,   0.512506,   0.862954]
    Electron size [Ang]:            4.344112
      Cartesian components [Ang]: [  2.873742,   2.491279,   2.099154]
  ----------------------------------------------------------------------------


  Electron-attached state 10 (B2g)                                  [converged]
  ----------------------------------------------------------------------------
  Term symbol:  10 (2) B2g                                  R^2 =  5.32298e-06

  Total energy:                                            -77.9866631401 a.u.
  Electron attachment energy:                                      9.718277 eV

  Pole strength:                                                      0.000585

  Dip. moment [a.u.]:                  [   0.000000,   -0.000000,   -0.000000]
  Total dipole [Debye]:                                               0.000001
  <r^2> [a.u.]:                        [ 101.062658,   81.238124,   38.792143]
  Total <r^2> [a.u.]:                                               221.092925

  V1^2 = 0.0006, V2^2 = 0.9994

  Important amplitudes:
       occ i       vir a        vir b           v   
    -------------------------------------------------
     1 (B1u) A    2 (B2u) A    2 (B1g) B      0.3962
     1 (B1u) A    2 (B1g) A    2 (B2u) B      0.3818
    -------------------------------------------------

  Density matrix analysis:
  ------------------------
  NOs (alpha)
    Occupation of frontier NOs:
       0.3727   0.3899
    Number of electrons:  8.000000
  NOs (beta)
    Occupation of frontier NOs:
       0.3743   0.3892
    Number of electrons:  9.000000
  NOs (spin-traced)
    Occupation of frontier NOs:
       0.7619   0.7640
    Number of electrons: 17.000000
    Number of unpaired electrons: n_u =  3.28884, n_u,nl =  2.97804
    NO participation ratio (PR_NO):  5.133576
  
  
  Mulliken Population Analysis
  Atom  Charge (e)    Spin (e)  h+ (alpha)   h+ (beta)  e- (alpha)   e- (beta)
  ----------------------------------------------------------------------------
   1 C   -0.575186    0.491740    0.483977    0.009603   -0.441688   -0.459054
   2 C   -0.575186    0.491740    0.483977    0.009603   -0.441688   -0.459054
   3 H    0.037592    0.004130    0.002943    0.000162   -0.024087   -0.025436
   4 H    0.037597    0.004130    0.002943    0.000162   -0.024088   -0.025437
   5 H    0.037594    0.004130    0.002943    0.000162   -0.024088   -0.025437
   6 H    0.037589    0.004130    0.002943    0.000162   -0.024087   -0.025436
  ----------------------------------------------------------------------------
  Sum:   -1.000000    1.000000    0.979727    0.019854   -0.979727   -1.019854
  
  Multipole moment analysis of the density matrix
    Molecular charge:                      -1.000000
    Number of electrons:                   17.000000
      Center of electronic charge [Ang]: [ -0.000000,   0.000000,   0.000000]
    Total nuclear charge:                  16.000000
      Center of nuclear charge [Ang]:    [  0.000000,   0.000000,   0.000000]
    Dipole moment [D]:                     0.000001
      Cartesian components [D]:          [  0.000000,  -0.000001,  -0.000000]
    RMS size of the density [Ang]:         1.908377
      Cartesian components [Ang]:        [  1.290245,   1.156796,   0.799371]
  
  Exciton analysis of the difference density matrix
  Total:
    <r_h> [Ang]:                  [ -0.000000,   0.000000,   0.000000]
    <r_e> [Ang]:                  [ -0.000000,  -0.000000,  -0.000000]
    |<r_e - r_h>| [Ang]:            0.000000
    Hole size [Ang]:                1.253348
      Cartesian components [Ang]: [  0.749042,   0.511757,   0.864826]
    Electron size [Ang]:            4.504261
      Cartesian components [Ang]: [  2.781180,   2.899118,   2.036791]
  
  Alpha spin:
    <r_h> [Ang]:                  [ -0.000000,   0.000000,   0.000000]
    <r_e> [Ang]:                  [ -0.000000,  -0.000000,  -0.000000]
    |<r_e - r_h>| [Ang]:            0.000000
    Hole size [Ang]:                1.252892
      Cartesian components [Ang]: [  0.748544,   0.511207,   0.864921]
    Electron size [Ang]:            4.496232
      Cartesian components [Ang]: [  2.750226,   2.926998,   2.021148]
  
  Beta spin:
    <r_h> [Ang]:                  [ -0.000000,   0.000000,   0.000000]
    <r_e> [Ang]:                  [ -0.000000,  -0.000000,  -0.000000]
    |<r_e - r_h>| [Ang]:            0.000000
    Hole size [Ang]:                1.275634
      Cartesian components [Ang]: [  0.773193,   0.538193,   0.860094]
    Electron size [Ang]:            4.511961
      Cartesian components [Ang]: [  2.810595,   2.872081,   2.051706]
  ----------------------------------------------------------------------------


--------------------------------------------------------------------------------
  Time of ADC calculation:  CPU 229.01 s  wall 51.92 s
================================================================================
 
 --------------------------------------------------------------
             Orbital Energies (a.u.) and Symmetries
 --------------------------------------------------------------
 
 Alpha MOs, Restricted
 -- Occupied --                  
-11.237 -11.235  -1.042  -0.782  -0.660  -0.567  -0.515  -0.377
  1 Ag    1 B3u   2 Ag    2 B3u   1 B2u   3 Ag    1 B1g   1 B1u                
 -- Virtual --                   
  0.047   0.048   0.055   0.067   0.068   0.069   0.106   0.139
  3 B3u   2 B2u   2 B1u   2 B1g   1 B2g   4 Ag    5 Ag    2 B2g                
  0.176   0.195   0.212   0.222   0.226   0.230   0.266   0.298
  4 B3u   3 B2u   3 B1g   3 B1u   6 Ag    5 B3u   7 Ag    3 B2g                
  0.342   0.350   0.497   0.536   0.729   0.815   0.863   0.893
  4 B2u   6 B3u   4 B1g   7 B3u   8 Ag    5 B2u   9 Ag    6 B2u                
  0.915   0.931   0.966   0.980   1.031   1.064   1.114   1.284
  4 B1u   8 B3u   4 B2g   9 B3u  10 Ag    5 B1g   1 B3g   5 B1u                
  1.284   1.326   1.347   1.609   1.615   1.703   1.854   1.913
  1 Au   10 B3u   6 B1g  11 Ag    7 B1g   7 B2u   5 B2g  11 B3u                
  1.939   2.002   2.017   2.054   2.173   2.310   2.412   2.447
  6 B1u  12 Ag    2 B3g   8 B2u   6 B2g  12 B3u   2 Au   13 Ag                 
  2.563   2.570   2.799   2.803   3.248   3.340
  8 B1g  13 B3u   9 B2u  14 Ag   14 B3u   9 B1g                                
 
 Beta MOs, Restricted
 -- Occupied --                  
-11.237 -11.235  -1.042  -0.782  -0.660  -0.567  -0.515  -0.377
  1 Ag    1 B3u   2 Ag    2 B3u   1 B2u   3 Ag    1 B1g   1 B1u                
 -- Virtual --                   
  0.047   0.048   0.055   0.067   0.068   0.069   0.106   0.139
  3 B3u   2 B2u   2 B1u   2 B1g   1 B2g   4 Ag    5 Ag    2 B2g                
  0.176   0.195   0.212   0.222   0.226   0.230   0.266   0.298
  4 B3u   3 B2u   3 B1g   3 B1u   6 Ag    5 B3u   7 Ag    3 B2g                
  0.342   0.350   0.497   0.536   0.729   0.815   0.863   0.893
  4 B2u   6 B3u   4 B1g   7 B3u   8 Ag    5 B2u   9 Ag    6 B2u                
  0.915   0.931   0.966   0.980   1.031   1.064   1.114   1.284
  4 B1u   8 B3u   4 B2g   9 B3u  10 Ag    5 B1g   1 B3g   5 B1u                
  1.284   1.326   1.347   1.609   1.615   1.703   1.854   1.913
  1 Au   10 B3u   6 B1g  11 Ag    7 B1g   7 B2u   5 B2g  11 B3u                
  1.939   2.002   2.017   2.054   2.173   2.310   2.412   2.447
  6 B1u  12 Ag    2 B3g   8 B2u   6 B2g  12 B3u   2 Au   13 Ag                 
  2.563   2.570   2.799   2.803   3.248   3.340
  8 B1g  13 B3u   9 B2u  14 Ag   14 B3u   9 B1g                                
 --------------------------------------------------------------
 
          Ground-State Mulliken Net Atomic Charges

     Atom                 Charge (a.u.)
  ----------------------------------------
      1 C                    -0.153653
      2 C                    -0.153653
      3 H                     0.076825
      4 H                     0.076831
      5 H                     0.076828
      6 H                     0.076823
  ----------------------------------------
  Sum of atomic charges =     0.000000

 -----------------------------------------------------------------
                    Cartesian Multipole Moments
 -----------------------------------------------------------------
    Charge (ESU x 10^10)
                 0.0000
    Dipole Moment (Debye)
         X       0.0000      Y      -0.0000      Z      -0.0000
       Tot       0.0000
    Quadrupole Moments (Debye-Ang)
        XX     -12.9278     XY       0.0000     YY     -11.9636
        XZ       0.0000     YZ       0.0000     ZZ     -16.1197
    Octopole Moments (Debye-Ang^2)
       XXX       0.0000    XXY      -0.0000    XYY       0.0000
       YYY      -0.0000    XXZ      -0.0000    XYZ       0.0000
       YYZ      -0.0000    XZZ       0.0000    YZZ      -0.0000
       ZZZ      -0.0000
    Hexadecapole Moments (Debye-Ang^3)
      XXXX     -68.0744   XXXY       0.0000   XXYY     -13.2225
      XYYY       0.0000   YYYY     -26.8277   XXXZ       0.0000
      XXYZ      -0.0000   XYYZ       0.0000   YYYZ      -0.0000
      XXZZ     -15.5058   XYZZ      -0.0000   YYZZ      -8.8937
      XZZZ       0.0000   YZZZ       0.0000   ZZZZ     -21.2560
 -----------------------------------------------------------------
 Total job time:  135.68s(wall), 271.97s(cpu) 
 Sun Mar 27 21:33:22 2022

        *************************************************************
        *                                                           *
        *  Thank you very much for using Q-Chem.  Have a nice day.  *
        *                                                           *
        *************************************************************


