This is a multi-thread run using 8 threads
/src/tsommerfeld/qchem/exe/qcprog.exe .input1.388889.12055.qcin.1 /src/jdavis/qchem.scratch/qchem12055/

                  Welcome to Q-Chem
     A Quantum Leap Into The Future Of Chemistry


 Q-Chem 5.4 (devel), Q-Chem, Inc., Pleasanton, CA (2021)

 E. Epifanovsky,  A. T. B. Gilbert,  Xintian Feng,  Joonho Lee,  Yuezhi Mao,  
 N. Mardirossian,  P. Pokhilko,  A. White,  M. Wormit,  M. P. Coons,  
 A. L. Dempwolff,  Zhengting Gan,  D. Hait,  P. R. Horn,  L. D. Jacobson,  
 I. Kaliman,  J. Kussmann,  A. W. Lange,  Ka Un Lao,  D. S. Levine,  Jie Liu,  
 S. C. McKenzie,  A. F. Morrison,  K. Nanda,  F. Plasser,  D. R. Rehn,  
 M. L. Vidal,  Zhi-Qiang You,  Ying Zhu,  B. Alam,  B. Albrecht,  
 A. Aldossary,  E. Alguire,  J. H. Andersen,  D. Barton,  K. Begam,  A. Behn,  
 Y. A. Bernard,  E. J. Berquist,  H. Burton,  A. Carreras,  K. Carter-Fenk,  
 R. Chakraborty,  A. D. Chien,  K. D. Closser,  V. Cofer-Shabica,  
 S. Dasgupta,  Jia Deng,  M. de Wergifosse,  M. Diedenhofen,  Hainam Do,  
 S. Ehlert,  Po-Tung Fang,  S. Fatehi,  Qingguo Feng,  T. Friedhoff,  
 J. Gayvert,  Qinghui Ge,  G. Gidofalvi,  M. Goldey,  J. Gomes,  
 C. Gonzalez-Espinoza,  S. Gulania,  A. Gunina,  M. W. D. Hanson-Heine,  
 P. H. P. Harbach,  A. W. Hauser,  M. F. Herbst,  M. Hernandez Vera,  
 M. Hodecker,  Z. C. Holden,  S. Houck,  Xunkun Huang,  Kerwin Hui,  
 B. C. Huynh,  M. Ivanov,  Hyunjun Ji,  Hanjie Jiang,  B. Kaduk,  S. Kaehler,  
 K. Khistyaev,  Jaehoon Kim,  P. Klunzinger,  Z. Koczor-Benda,  
 Joong Hoon Koh,  D. Kosenkov,  L. Koulias,  T. Kowalczyk,  C. M. Krauter,  
 K. Kue,  A. Kunitsa,  T. Kus,  A. Landau,  K. V. Lawler,  D. Lefrancois,  
 S. Lehtola,  Rain Li,  Yi-Pei Li,  Jiashu Liang,  M. Liebenthal,  
 Hung-Hsuan Lin,  You-Sheng Lin,  Fenglai Liu,  Kuan-Yu Liu,  
 M. Loipersberger,  A. Luenser,  A. Manjanath,  P. Manohar,  E. Mansoor,  
 S. F. Manzer,  Shan-Ping Mao,  A. V. Marenich,  T. Markovich,  S. Mason,  
 S. A. Maurer,  P. F. McLaughlin,  M. F. S. J. Menger,  J.-M. Mewes,  
 S. A. Mewes,  P. Morgante,  J. W. Mullinax,  K. J. Oosterbaan,  G. Paran,  
 Alexander C. Paul,  Suranjan K. Paul,  F. Pavosevic,  Zheng Pei,  S. Prager,  
 E. I. Proynov,  E. Ramos,  B. Rana,  A. E. Rask,  A. Rettig,  R. M. Richard,  
 F. Rob,  E. Rossomme,  T. Scheele,  M. Scheurer,  M. Schneider,  
 N. Sergueev,  S. M. Sharada,  W. Skomorowski,  D. W. Small,  C. J. Stein,  
 Yu-Chuan Su,  E. J. Sundstrom,  Zhen Tao,  J. Thirman,  T. Tsuchimochi,  
 N. M. Tubman,  S. P. Veccham,  O. Vydrov,  J. Wenzel,  J. Witte,  A. Yamada,  
 Kun Yao,  S. Yeganeh,  S. R. Yost,  A. Zech,  Igor Ying Zhang,  Xing Zhang,  
 Yu Zhang,  D. Zuev,  A. Aspuru-Guzik,  A. T. Bell,  N. A. Besley,  
 K. B. Bravaya,  B. R. Brooks,  D. Casanova,  Jeng-Da Chai,  S. Coriani,  
 C. J. Cramer,  A. E. DePrince, III,  R. A. DiStasio Jr.,  A. Dreuw,  
 B. D. Dunietz,  T. R. Furlani,  W. A. Goddard III,  S. Grimme,  
 S. Hammes-Schiffer,  T. Head-Gordon,  W. J. Hehre,  Chao-Ping Hsu,  
 T.-C. Jagau,  Yousung Jung,  A. Klamt,  Jing Kong,  D. S. Lambrecht,  
 WanZhen Liang,  N. J. Mayhall,  C. W. McCurdy,  J. B. Neaton,  
 C. Ochsenfeld,  J. A. Parkhill,  R. Peverati,  V. A. Rassolov,  Yihan Shao,  
 L. V. Slipchenko,  T. Stauch,  R. P. Steele,  J. E. Subotnik,  
 A. J. W. Thom,  A. Tkatchenko,  D. G. Truhlar,  T. Van Voorhis,  
 T. A. Wesolowski,  K. B. Whaley,  H. L. Woodcock III,  P. M. Zimmerman,  
 S. Faraji,  P. M. W. Gill,  M. Head-Gordon,  J. M. Herbert,  A. I. Krylov

 Additional authors for Version 5.4.1: 
 S. Kotaru,  Shaozhi Li,  Xiangyuan Li,  F. Matz,  A. Molle,  Haisheng Ren,  
 Yingli Su,  Hung-Yi Tsai,  C. Utku,  Fang Wang

 Contributors to earlier versions of Q-Chem not listed above: 
 R. D. Adamson,  B. Austin,  R. Baer,  J. Baker,  G. J. O. Beran,  
 K. Brandhorst,  S. T. Brown,  E. F. C. Byrd,  A. K. Chakraborty,  
 G. K. L. Chan,  Chun-Min Chang,  Yunqing Chen,  C.-L. Cheng,  
 Siu Hung Chien,  D. M. Chipman,  D. L. Crittenden,  H. Dachsel,  
 R. J. Doerksen,  A. D. Dutoi,  R. G. Edgar,  J. Fosso-Tande,  
 L. Fusti-Molnar,  D. Ghosh,  A. Ghysels,  A. Golubeva-Zadorozhnaya,  
 J. Gonthier,  M. S. Gordon,  S. R. Gwaltney,  G. Hawkins,  J. E. Herr,  
 A. Heyden,  S. Hirata,  E. G. Hohenstein,  G. Kedziora,  F. J. Keil,  
 C. Kelley,  Jihan Kim,  R. A. King,  R. Z. Khaliullin,  P. P. Korambath,  
 W. Kurlancheek,  A. Laurent,  A. M. Lee,  M. S. Lee,  S. V. Levchenko,  
 Ching Yeh Lin,  D. Liotard,  E. Livshits,  R. C. Lochan,  I. Lotan,  
 L. A. Martinez-Martinez,  P. E. Maslen,  N. Nair,  D. P. O'Neill,  
 D. Neuhauser,  E. Neuscamman,  C. M. Oana,  R. Olivares-Amaya,  R. Olson,  
 T. M. Perrine,  B. Peters,  P. A. Pieniazek,  A. Prociuk,  Y. M. Rhee,  
 J. Ritchie,  M. A. Rohrdanz,  E. Rosta,  N. J. Russ,  H. F. Schaefer III,  
 M. W. Schmidt,  N. E. Schultz,  S. Sharma,  N. Shenvi,  C. D. Sherrill,  
 A. C. Simmonett,  A. Sodt,  T. Stein,  D. Stuck,  K. S. Thanthiriwatte,  
 V. Vanovschi,  L. Vogt,  Tao Wang,  A. Warshel,  M. A. Watson,  
 C. F. Williams,  Q. Wu,  X. Xu,  Jun Yang,  W. Zhang,  Yan Zhao

 Please cite Q-Chem as follows:
 Y. Shao et al., Mol. Phys. 113, 184-215 (2015)
 DOI: 10.1080/00268976.2014.952696

 Q-Chem 5.4.1 for Intel X86 EM64T Linux

 Parts of Q-Chem use Armadillo 9.900.5 (Nocturnal Misbehaviour).
 http://arma.sourceforge.net/

 Q-Chem begins on Sun Mar 27 22:18:49 2022  

 Host: node01
0

     Scratch files written to /src/jdavis/qchem.scratch/qchem12055//
 Processing $rem in /src/tsommerfeld/qchem/config/preferences:
 Processing $rem in /home/jdavis/.qchemrc:

 Checking the input file for inconsistencies... 	...done.

--------------------------------------------------------------
User input:
--------------------------------------------------------------
$molecule
0 1
C        -0.6645000000    0.0000000000   -0.2082049804
C         0.6645000000    0.0000000000   -0.2082049804
H        -1.1590800000    0.0000000000    0.7541440196
H         1.1590800000    0.0000000000    0.7541440196
H        -1.1590800000    0.0000000000   -1.1705529804
H         1.1590800000    0.0000000000   -1.1705529804
$end

$rem
   METHOD adc(3)
   BASIS gen
   PURECART 11
   EA_STATES [0,0,10,0,0,0,0,0]
   scf_convergence 8
   ADC_DAVIDSON_MAXITER 120
   ADC_DAVIDSON_MAXSUBSPACE 200
   adc_nguess_singles 100
   THRESH 14
   S2THRESH 14
   adc_davidson_conv 5
   adc_davidson_thresh 14
   THREADS 10
   MEM_TOTAL 95000
   STATE_ANALYSIS TRUE
$end
$basis
C 1
S   9   1.00
      6.665000D+03           6.920000D-04
      1.000000D+03           5.329000D-03
      2.280000D+02           2.707700D-02
      6.471000D+01           1.017180D-01
      2.106000D+01           2.747400D-01
      7.495000D+00           4.485640D-01
      2.797000D+00           2.850740D-01
      5.215000D-01           1.520400D-02
      1.596000D-01          -3.191000D-03
S   9   1.00
      6.665000D+03          -1.460000D-04
      1.000000D+03          -1.154000D-03
      2.280000D+02          -5.725000D-03
      6.471000D+01          -2.331200D-02
      2.106000D+01          -6.395500D-02
      7.495000D+00          -1.499810D-01
      2.797000D+00          -1.272620D-01
      5.215000D-01           5.445290D-01
      1.596000D-01           5.804960D-01
S   1   1.00
      1.596000D-01           1.000000D+00
S   1   1.00
      0.0469000              1.0000000
P   4   1.00
      9.439000D+00           3.810900D-02
      2.002000D+00           2.094800D-01
      5.456000D-01           5.085570D-01
      1.517000D-01           4.688420D-01
P   1   1.00
      1.517000D-01           1.000000D+00
P   1   1.00
      0.0842778      1.0000000
P   1   1.00
      0.0421389      1.0000000
D   1   1.00
      5.500000D-01           1.0000000
****
C 2
S   9   1.00
      6.665000D+03           6.920000D-04
      1.000000D+03           5.329000D-03
      2.280000D+02           2.707700D-02
      6.471000D+01           1.017180D-01
      2.106000D+01           2.747400D-01
      7.495000D+00           4.485640D-01
      2.797000D+00           2.850740D-01
      5.215000D-01           1.520400D-02
      1.596000D-01          -3.191000D-03
S   9   1.00
      6.665000D+03          -1.460000D-04
      1.000000D+03          -1.154000D-03
      2.280000D+02          -5.725000D-03
      6.471000D+01          -2.331200D-02
      2.106000D+01          -6.395500D-02
      7.495000D+00          -1.499810D-01
      2.797000D+00          -1.272620D-01
      5.215000D-01           5.445290D-01
      1.596000D-01           5.804960D-01
S   1   1.00
      1.596000D-01           1.000000D+00
S   1   1.00
      0.0469000              1.0000000
P   4   1.00
      9.439000D+00           3.810900D-02
      2.002000D+00           2.094800D-01
      5.456000D-01           5.085570D-01
      1.517000D-01           4.688420D-01
P   1   1.00
      1.517000D-01           1.000000D+00
P   1   1.00
      0.0842778      1.0000000
P   1   1.00
      0.0421389      1.0000000
D   1   1.00
      5.500000D-01           1.0000000
****
H 3
cc-pVDZ
****
H 4
cc-pVDZ
****
H 5
cc-pVDZ
****
H 6
cc-pVDZ
****
H 7
aug-cc-pVDZ
****
$end
--------------------------------------------------------------
 Atom   2: ( -0.6645000000, -0.0000001250,  0.0000000000)
         ->( -0.6645000000,  0.0000001250, -0.0000000000)
 Atom   1: (  0.6645000000, -0.0000001250, -0.0000000000)
         ->(  0.6645000000,  0.0000000000,  0.0000000000)
 Atom   6: ( -1.1590800000, -0.9623481250, -0.0000000000)
         ->( -1.1590800000, -0.9623488750,  0.0000000000)
 Atom   5: (  1.1590800000, -0.9623481250, -0.0000000000)
         ->(  1.1590800000, -0.9623488750, -0.0000000000)
 ----------------------------------------------------------------
             Standard Nuclear Orientation (Angstroms)
    I     Atom           X                Y                Z
 ----------------------------------------------------------------
    1      C       0.6645000000     0.0000000000     0.0000000000
    2      C      -0.6645000000     0.0000001250    -0.0000000000
    3      H       1.1590800000     0.9623488750     0.0000000000
    4      H      -1.1590800000     0.9623488750     0.0000000000
    5      H       1.1590800000    -0.9623488750    -0.0000000000
    6      H      -1.1590800000    -0.9623488750     0.0000000000
 ----------------------------------------------------------------
 Molecular Point Group                 D2h   NOp =  8
 Largest Abelian Subgroup              D2h   NOp =  8
 Nuclear Repulsion Energy =          33.58921667 hartrees
 There are        8 alpha and        8 beta electrons
 Requested basis set is non-standard
 There are 30 shells and 62 basis functions
 Total memory of 95000 MB is distributed as follows: 
   MEM_STATIC is set to 192 MB
   QALLOC/CCMAN JOB total memory use is  94808 MB
 Warning: actual memory use might exceed 95000 MB

 Total QAlloc Memory Limit  95000 MB
 Mega-Array Size       188 MB
 MEM_STATIC part       192 MB

                       Distance Matrix (Angstroms)
             C (  1)   C (  2)   H (  3)   H (  4)   H (  5)
   C (  2)  1.329000
   H (  3)  1.082000  2.061931
   H (  4)  2.061931  1.082000  2.318160
   H (  5)  1.082000  2.061931  1.924698  3.013026
   H (  6)  2.061931  1.082000  3.013026  1.924698  2.318160
 
 A cutoff of  1.0D-14 yielded    465 shell pairs
 There are      2009 function pairs (      2146 Cartesian)
 Smallest overlap matrix eigenvalue = 2.21E-04

 Scale SEOQF with 1.000000e-01/1.000000e-01/1.000000e-01

 Standard Electronic Orientation quadrupole field applied
 Nucleus-field energy     =     0.0000000006 hartrees
 ================ Generating on-the-fly SAD Guess ================
Attempting to make child job directory: /src/jdavis/qchem.scratch/qchem12055//Frg1/
Attempting to make child job directory: /src/jdavis/qchem.scratch/qchem12055//Frg2/
Creating input file /src/jdavis/qchem.scratch/qchem12055/Frg1.input
using default PutDataFrgm: nothing
calling putenv with: QCSCRATCH=/src/jdavis/qchem.scratch/qchem12055/ 
Spawning Job For Fragment 0
Done Job For Fragment 0
calling putenv with: QCSCRATCH=/src/jdavis/qchem.scratch 
calling putenv with: QCTHREADS=8 
Creating input file /src/jdavis/qchem.scratch/qchem12055/Frg2.input
using default PutDataFrgm: nothing
calling putenv with: QCSCRATCH=/src/jdavis/qchem.scratch/qchem12055/ 
Spawning Job For Fragment 1
Done Job For Fragment 1
calling putenv with: QCSCRATCH=/src/jdavis/qchem.scratch 
calling putenv with: QCTHREADS=8 
 Time for running child jobs:  CPU 1.77 s  wall 55.55 s
 ============= Method Specific SAD Guess Constructed =============
 Guess from on-the-fly superposition of atomic densities
 Warning: Energy on first SCF cycle will be non-variational
 A restricted Hartree-Fock SCF calculation will be
 performed using Pulay DIIS extrapolation
 SCF converges when DIIS error is below 1.0E-08
 using 10 threads for integral computing
 -------------------------------------------------------
 OpenMP Integral computing Module                
 Release: version 1.0, May 2013, Q-Chem Inc. Pittsburgh 
 -------------------------------------------------------
 ---------------------------------------
  Cycle       Energy         DIIS Error
 ---------------------------------------
    1     -78.4586628632      7.95E-02
    2     -78.0144838165      5.76E-03
    3     -78.0357737394      1.51E-03
    4     -78.0374090535      5.02E-04
    5     -78.0375790736      6.08E-05
    6     -78.0375838635      1.29E-05
    7     -78.0375842411      3.05E-06
    8     -78.0375843047      2.77E-07
    9     -78.0375843106      3.52E-08
   10     -78.0375843110      3.70E-09 Convergence criterion met
 ---------------------------------------
 SCF time:  CPU 7.99 s  wall 0.80 s
 SCF   energy in the final basis set = -78.03758431
 Total energy in the final basis set = -78.03758431
================================================================================
|                                                                              |
|                                 A D C  M A N                                 |
|                                                                              |
 ------------------------------------------------------------------------------ 
|                                                                              |
| Components:                                                                  |
|                                                                              |
| - libvmm - 1.3-trunk                                                         |
|   Authors:                                                                   |
|   Evgeny Epifanovsky, Ilya Kaliman                                           |
|                                                                              |
| - libtensor - 2.5-trunk                                                      |
|   Authors:                                                                   |
|   Evgeny Epifanovsky, Michael Wormit, Dmitry Zuev, Sam Manzer,               |
|   Ilya Kaliman                                                               |
|                                                                              |
| - libwfa - 1.1-trunk                                                         |
|   Authors:                                                                   |
|   Felix Plasser, Stefanie Mewes (Baeppler), Benjamin Thomitzni,              |
|   Michael Wormit, Feng Chen, Anna I. Krylov, Pavel Pokhilko                  |
|                                                                              |
| - libadc - 1.1-trunk                                                         |
|   Authors:                                                                   |
|   Michael Wormit, Adrian L. Dempwolff, Philipp H. P. Harbach,                |
|   Caroline Krauter, Dirk Rehn, Matthias Schneider, Jan Wenzel                |
|                                                                              |
| - adcman - 2.6-trunk                                                         |
|   Authors:                                                                   |
|   Michael Wormit, Adrian L. Dempwolff, Philipp H. P. Harbach,                |
|   Caroline Krauter, Daniel Lefrancois, Jan-Michael Mewes, Dirk Rehn,         |
|   Matthias Schneider, Jan Wenzel, Andreas Dreuw                              |
|                                                                              |
| Authors of earlier versions of ADCMAN:                                       |
| Andreas Dreuw, Jan Hendrik Starcke, Dirk Rehn, Michael Wormit                |
|                                                                              |
================================================================================

 
 Alpha MOs, Restricted
 -- Occupied --                  
-11.237 -11.235  -1.042  -0.782  -0.660  -0.567  -0.515  -0.377
  1 Ag    1 B3u   2 Ag    2 B3u   1 B2u   3 Ag    1 B1g   1 B1u                
 -- Virtual --                   
  0.075   0.087   0.090   0.099   0.100   0.120   0.141   0.189
  3 B3u   2 B2u   4 Ag    2 B1u   1 B2g   2 B1g   5 Ag    2 B2g                
  0.216   0.262   0.321   0.325   0.357   0.359   0.367   0.371
  4 B3u   6 Ag    3 B2u   5 B3u   7 Ag    4 B2u   6 B3u   3 B1u                
  0.384   0.456   0.547   0.618   0.837   0.850   0.934   0.970
  3 B1g   3 B2g   4 B1g   7 B3u   8 Ag    5 B2u   8 B3u   9 Ag                 
  1.023   1.067   1.072   1.114   1.142   1.143   1.187   1.285
  5 B1g  10 Ag    6 B2u   1 B3g   4 B1u   9 B3u   4 B2g   1 Au                 
  1.292   1.299   1.464   1.623   1.701   1.734   1.877   1.945
  5 B1u  10 B3u   6 B1g  11 Ag    7 B1g   7 B2u   5 B2g   6 B1u                
  1.964   2.017   2.078   2.099   2.183   2.333   2.412   2.475
 11 B3u   2 B3g  12 Ag    8 B2u   6 B2g  12 B3u   2 Au   13 Ag                 
  2.566   2.580   2.847   2.849   3.270   3.344
  8 B1g  13 B3u   9 B2u  14 Ag   14 B3u   9 B1g                                
 
 Beta MOs, Restricted
 -- Occupied --                  
-11.237 -11.235  -1.042  -0.782  -0.660  -0.567  -0.515  -0.377
  1 Ag    1 B3u   2 Ag    2 B3u   1 B2u   3 Ag    1 B1g   1 B1u                
 -- Virtual --                   
  0.075   0.087   0.090   0.099   0.100   0.120   0.141   0.189
  3 B3u   2 B2u   4 Ag    2 B1u   1 B2g   2 B1g   5 Ag    2 B2g                
  0.216   0.262   0.321   0.325   0.357   0.359   0.367   0.371
  4 B3u   6 Ag    3 B2u   5 B3u   7 Ag    4 B2u   6 B3u   3 B1u                
  0.384   0.456   0.547   0.618   0.837   0.850   0.934   0.970
  3 B1g   3 B2g   4 B1g   7 B3u   8 Ag    5 B2u   8 B3u   9 Ag                 
  1.023   1.067   1.072   1.114   1.142   1.143   1.187   1.285
  5 B1g  10 Ag    6 B2u   1 B3g   4 B1u   9 B3u   4 B2g   1 Au                 
  1.292   1.299   1.464   1.623   1.701   1.734   1.877   1.945
  5 B1u  10 B3u   6 B1g  11 Ag    7 B1g   7 B2u   5 B2g   6 B1u                
  1.964   2.017   2.078   2.099   2.183   2.333   2.412   2.475
 11 B3u   2 B3g  12 Ag    8 B2u   6 B2g  12 B3u   2 Au   13 Ag                 
  2.566   2.580   2.847   2.849   3.270   3.344
  8 B1g  13 B3u   9 B2u  14 Ag   14 B3u   9 B1g                                

--------------------------------------------------------------------------------
                                   HF Summary                                   
--------------------------------------------------------------------------------
  Energy:                                                  -78.0375843110 a.u.
  Dip. moment [a.u.]:                  [  -0.000000,   -0.000001,   -0.000000]
  Total dipole [Debye]:                                               0.000001
  <r^2> [a.u.]:                        [  47.711220,   22.119772,   12.003718]
  Total <r^2> [a.u.]:                                                81.834710
--------------------------------------------------------------------------------

--------------------------------------------------------------------------------
                                 MP(2) Summary                                  
--------------------------------------------------------------------------------
  MP energy contribution:                                   -0.2834375461 a.u.
  Total energy:                                            -78.3210218570 a.u.
  Dip. moment [a.u.]:                  [   0.000000,   -0.000001,   -0.000000]
  Total dipole [Debye]:                                               0.000002
  <r^2> [a.u.]:                        [  47.819946,   22.151550,   11.856028]
  Total <r^2> [a.u.]:                                                81.827524

  Density matrix analysis:
  ------------------------
  NOs (alpha)
    Occupation of frontier NOs:
       0.0224   0.9685
    Number of electrons:  8.000000
  NOs (beta)
    Occupation of frontier NOs:
       0.0224   0.9685
    Number of electrons:  8.000000
  NOs (spin-traced)
    Occupation of frontier NOs:
       0.0447   1.9370
    Number of electrons: 16.000000
    Number of unpaired electrons: n_u =  0.40968, n_u,nl =  0.04609
    NO participation ratio (PR_NO): 13.968445
  
  
  Mulliken Population Analysis
  Atom  Charge (e)    Spin (e)  h+ (alpha)   h+ (beta)  e- (alpha)   e- (beta)
  ----------------------------------------------------------------------------
   1 C   -0.220761   -0.000000    0.043629    0.043629   -0.051276   -0.051276
   2 C   -0.220761   -0.000000    0.043629    0.043629   -0.051276   -0.051276
   3 H    0.110375   -0.000000    0.009086    0.009086   -0.005262   -0.005262
   4 H    0.110393   -0.000000    0.009085    0.009085   -0.005262   -0.005262
   5 H    0.110387    0.000000    0.009085    0.009085   -0.005262   -0.005262
   6 H    0.110368   -0.000000    0.009085    0.009085   -0.005262   -0.005262
  ----------------------------------------------------------------------------
  Sum:    0.000000   -0.000000    0.123601    0.123601   -0.123601   -0.123601
  
  Multipole moment analysis of the density matrix
    Molecular charge:                      0.000000
    Number of electrons:                   16.000000
      Center of electronic charge [Ang]: [ -0.000000,   0.000000,   0.000000]
    Total nuclear charge:                  16.000000
      Center of nuclear charge [Ang]:    [  0.000000,   0.000000,   0.000000]
    Dipole moment [D]:                     0.000002
      Cartesian components [D]:          [  0.000000,  -0.000002,  -0.000000]
    RMS size of the density [Ang]:         1.196715
      Cartesian components [Ang]:        [  0.914841,   0.622649,   0.455523]
  
  Exciton analysis of the difference density matrix
  Total:
    <r_h> [Ang]:                  [  0.000000,  -0.000000,  -0.000000]
    <r_e> [Ang]:                  [  0.000000,   0.000000,   0.000000]
    |<r_e - r_h>| [Ang]:            0.000000
    Hole size [Ang]:                1.411263
      Cartesian components [Ang]: [  0.959493,   0.719900,   0.743492]
    Electron size [Ang]:            1.408376
      Cartesian components [Ang]: [  1.021661,   0.744482,   0.620869]
  
  Alpha spin:
    <r_h> [Ang]:                  [  0.000000,  -0.000000,  -0.000000]
    <r_e> [Ang]:                  [  0.000000,   0.000000,   0.000000]
    |<r_e - r_h>| [Ang]:            0.000000
    Hole size [Ang]:                1.411263
      Cartesian components [Ang]: [  0.959493,   0.719900,   0.743492]
    Electron size [Ang]:            1.408376
      Cartesian components [Ang]: [  1.021661,   0.744482,   0.620869]
  
  Beta spin:
    <r_h> [Ang]:                  [  0.000000,  -0.000000,  -0.000000]
    <r_e> [Ang]:                  [  0.000000,   0.000000,   0.000000]
    |<r_e - r_h>| [Ang]:            0.000000
    Hole size [Ang]:                1.411263
      Cartesian components [Ang]: [  0.959493,   0.719900,   0.743492]
    Electron size [Ang]:            1.408376
      Cartesian components [Ang]: [  1.021661,   0.744482,   0.620869]
--------------------------------------------------------------------------------

--------------------------------------------------------------------------------
                                 MP(3) Summary                                  
--------------------------------------------------------------------------------
  MP energy contribution:                                   -0.0245406888 a.u.
  Total energy:                                            -78.3455625458 a.u.
--------------------------------------------------------------------------------
Less particle guess vectors found than requested: 6 (found), 100 (requested).
Adjusting number of hole-2particle guess vectors to 94.
  Starting Davidson for electron-attached states of irrep B2g ... 
--------------------------------------------------------------------------------
   It NVec Conv  Avg. Norm  Max. Norm  Conv. states           Remark
--------------------------------------------------------------------------------
       100    0  3.858e-02  2.617e-01  0.1008 n n n n n n n n Guess.
    1  110    0  7.573e-03  4.216e-02  0.0836 n n n n n n n n 
    2  120    0  3.238e-03  2.179e-02  0.0831 n n n n n n n n 
    3  130    0  1.394e-03  9.739e-03  0.0831 n n n n n n n n 
    4  140    0  4.853e-04  3.430e-03  0.0831 n n n n n n n n 
    5  150    0  1.362e-04  9.853e-04  0.0831 n n n n n n n n 
    6  160    3  3.644e-05  2.659e-04  0.0831 y n n y y n n n 
    7  170    8  9.489e-06  6.812e-05  0.0831 y y y y y y y y 
    8  180    8  1.986e-06  1.434e-05  0.0831 y y y y y y y y 
    9  190   10  4.278e-07  3.104e-06  0.0831 y y y y y y y y Converged.
--------------------------------------------------------------------------------
  Davidson Summary: 
 ------------------------------------------------------------
  State  0: electron attachment energy =   0.0831 a.u.   (converged)
  State  1: electron attachment energy =   0.1555 a.u.   (converged)
  State  2: electron attachment energy =   0.2442 a.u.   (converged)
  State  3: electron attachment energy =   0.3098 a.u.   (converged)
  State  4: electron attachment energy =   0.3328 a.u.   (converged)
  State  5: electron attachment energy =   0.3607 a.u.   (converged)
  State  6: electron attachment energy =   0.3663 a.u.   (converged)
  State  7: electron attachment energy =   0.3847 a.u.   (converged)
  State  8: electron attachment energy =   0.4039 a.u.   (converged)
  State  9: electron attachment energy =   0.4093 a.u.   (converged)
 ------------------------------------------------------------


--------------------------------------------------------------------------------
                        Electron-Attached State Summary
--------------------------------------------------------------------------------

  Electron-attached state 1 (B2g)                                  [converged]
  ----------------------------------------------------------------------------
  Term symbol:  1 (2) B2g                                   R^2 =  1.92120e-08

  Total energy:                                            -78.2624985769 a.u.
  Electron attachment energy:                                      2.260286 eV

  Pole strength:                                                      0.946471

  Dip. moment [a.u.]:                  [   0.000000,   -0.000001,   -0.000000]
  Total dipole [Debye]:                                               0.000002
  <r^2> [a.u.]:                        [  62.113713,   27.458741,   25.341353]
  Total <r^2> [a.u.]:                                               114.913807

  V1^2 = 0.9553, V2^2 = 0.0447

  Important amplitudes:
       occ i       vir a        vir b           v   
    -------------------------------------------------
                               1 (B2g) B     -0.9515
                               2 (B2g) B     -0.2187
    -------------------------------------------------

  Density matrix analysis:
  ------------------------
  NOs (alpha)
    Occupation of frontier NOs:
       0.0196   0.9615
    Number of electrons:  8.000000
  NOs (beta)
    Occupation of frontier NOs:
       0.0277   0.9712
    Number of electrons:  9.000000
  NOs (spin-traced)
    Occupation of frontier NOs:
       0.0392   0.9832
    Number of electrons: 17.000000
    Number of unpaired electrons: n_u =  1.43666, n_u,nl =  1.05132
    NO participation ratio (PR_NO):  2.105770
  
  
  Mulliken Population Analysis
  Atom  Charge (e)    Spin (e)  h+ (alpha)   h+ (beta)  e- (alpha)   e- (beta)
  ----------------------------------------------------------------------------
   1 C   -0.645936    0.547310    0.091765    0.067755   -0.030697   -0.553997
   2 C   -0.645936    0.547310    0.091765    0.067755   -0.030697   -0.553997
   3 H    0.072962   -0.023655    0.000296    0.006631   -0.030830   -0.013510
   4 H    0.072980   -0.023655    0.000296    0.006631   -0.030830   -0.013510
   5 H    0.072974   -0.023655    0.000296    0.006631   -0.030830   -0.013510
   6 H    0.072955   -0.023655    0.000296    0.006631   -0.030830   -0.013510
  ----------------------------------------------------------------------------
  Sum:   -1.000000    1.000000    0.184714    0.162034   -0.184714   -1.162034
  
  Multipole moment analysis of the density matrix
    Molecular charge:                      -1.000000
    Number of electrons:                   17.000000
      Center of electronic charge [Ang]: [ -0.000000,   0.000000,   0.000000]
    Total nuclear charge:                  16.000000
      Center of nuclear charge [Ang]:    [  0.000000,   0.000000,   0.000000]
    Dipole moment [D]:                     0.000002
      Cartesian components [D]:          [  0.000000,  -0.000002,  -0.000000]
    RMS size of the density [Ang]:         1.375824
      Cartesian components [Ang]:        [  1.011511,   0.672538,   0.646088]
  
  Exciton analysis of the difference density matrix
  Total:
    <r_h> [Ang]:                  [  0.000000,  -0.000000,  -0.000000]
    <r_e> [Ang]:                  [ -0.000000,   0.000000,   0.000000]
    |<r_e - r_h>| [Ang]:            0.000000
    Hole size [Ang]:                1.866792
      Cartesian components [Ang]: [  1.194789,   0.937829,   1.085296]
    Electron size [Ang]:            2.788705
      Cartesian components [Ang]: [  1.827468,   1.153244,   1.762743]
  
  Alpha spin:
    <r_h> [Ang]:                  [  0.000000,   0.000000,   0.000000]
    <r_e> [Ang]:                  [  0.000000,   0.000000,   0.000000]
    |<r_e - r_h>| [Ang]:            0.000000
    Hole size [Ang]:                1.799412
      Cartesian components [Ang]: [  1.157391,   0.900741,   1.042590]
    Electron size [Ang]:            2.517798
      Cartesian components [Ang]: [  1.501671,   1.365163,   1.490175]
  
  Beta spin:
    <r_h> [Ang]:                  [  0.000000,  -0.000000,  -0.000000]
    <r_e> [Ang]:                  [ -0.000000,   0.000000,   0.000000]
    |<r_e - r_h>| [Ang]:            0.000000
    Hole size [Ang]:                1.940752
      Cartesian components [Ang]: [  1.236042,   0.978395,   1.132017]
    Electron size [Ang]:            2.829379
      Cartesian components [Ang]: [  1.874046,   1.115857,   1.802276]
  ----------------------------------------------------------------------------


  Electron-attached state 2 (B2g)                                  [converged]
  ----------------------------------------------------------------------------
  Term symbol:  2 (2) B2g                                   R^2 =  4.18303e-08

  Total energy:                                            -78.1900657125 a.u.
  Electron attachment energy:                                      4.231284 eV

  Pole strength:                                                      0.910764

  Dip. moment [a.u.]:                  [   0.000000,   -0.000001,   -0.000000]
  Total dipole [Debye]:                                               0.000002
  <r^2> [a.u.]:                        [  66.325294,   29.088647,   30.254857]
  Total <r^2> [a.u.]:                                               125.668799

  V1^2 = 0.9183, V2^2 = 0.0817

  Important amplitudes:
       occ i       vir a        vir b           v   
    -------------------------------------------------
                               2 (B2g) B      0.9155
                               1 (B2g) B     -0.2685
    -------------------------------------------------

  Density matrix analysis:
  ------------------------
  NOs (alpha)
    Occupation of frontier NOs:
       0.0335   0.9291
    Number of electrons:  8.000000
  NOs (beta)
    Occupation of frontier NOs:
       0.0494   0.9408
    Number of electrons:  9.000000
  NOs (spin-traced)
    Occupation of frontier NOs:
       0.0701   0.9538
    Number of electrons: 17.000000
    Number of unpaired electrons: n_u =  1.51681, n_u,nl =  1.09203
    NO participation ratio (PR_NO):  2.459171
  
  
  Mulliken Population Analysis
  Atom  Charge (e)    Spin (e)  h+ (alpha)   h+ (beta)  e- (alpha)   e- (beta)
  ----------------------------------------------------------------------------
   1 C   -0.628268    0.521092    0.112325    0.047771   -0.055532   -0.512070
   2 C   -0.628268    0.521092    0.112325    0.047771   -0.055532   -0.512070
   3 H    0.064128   -0.010546    0.001237    0.003518   -0.029634   -0.021368
   4 H    0.064147   -0.010546    0.001237    0.003518   -0.029634   -0.021368
   5 H    0.064140   -0.010546    0.001237    0.003518   -0.029633   -0.021368
   6 H    0.064122   -0.010546    0.001237    0.003518   -0.029634   -0.021368
  ----------------------------------------------------------------------------
  Sum:   -1.000000    1.000000    0.229598    0.109614   -0.229598   -1.109614
  
  Multipole moment analysis of the density matrix
    Molecular charge:                      -1.000000
    Number of electrons:                   17.000000
      Center of electronic charge [Ang]: [ -0.000000,   0.000000,   0.000000]
    Total nuclear charge:                  16.000000
      Center of nuclear charge [Ang]:    [  0.000000,   0.000000,   0.000000]
    Dipole moment [D]:                     0.000002
      Cartesian components [D]:          [  0.000000,  -0.000002,  -0.000000]
    RMS size of the density [Ang]:         1.438767
      Cartesian components [Ang]:        [  1.045241,   0.692211,   0.705950]
  
  Exciton analysis of the difference density matrix
  Total:
    <r_h> [Ang]:                  [  0.000000,  -0.000000,   0.000000]
    <r_e> [Ang]:                  [ -0.000000,   0.000000,   0.000000]
    |<r_e - r_h>| [Ang]:            0.000000
    Hole size [Ang]:                1.703282
      Cartesian components [Ang]: [  1.102544,   0.855310,   0.976734]
    Electron size [Ang]:            3.146749
      Cartesian components [Ang]: [  2.043859,   1.279000,   2.022085]
  
  Alpha spin:
    <r_h> [Ang]:                  [  0.000000,   0.000000,   0.000000]
    <r_e> [Ang]:                  [  0.000000,   0.000000,   0.000000]
    |<r_e - r_h>| [Ang]:            0.000000
    Hole size [Ang]:                1.691870
      Cartesian components [Ang]: [  1.078690,   0.824300,   1.009643]
    Electron size [Ang]:            2.620661
      Cartesian components [Ang]: [  1.511384,   1.351981,   1.660040]
  
  Beta spin:
    <r_h> [Ang]:                  [  0.000000,  -0.000000,   0.000000]
    <r_e> [Ang]:                  [ -0.000000,   0.000000,   0.000000]
    |<r_e - r_h>| [Ang]:            0.000000
    Hole size [Ang]:                1.726941
      Cartesian components [Ang]: [  1.150907,   0.916871,   0.903928]
    Electron size [Ang]:            3.244973
      Cartesian components [Ang]: [  2.137538,   1.263372,   2.089179]
  ----------------------------------------------------------------------------


  Electron-attached state 3 (B2g)                                  [converged]
  ----------------------------------------------------------------------------
  Term symbol:  3 (2) B2g                                   R^2 =  7.65187e-08

  Total energy:                                            -78.1013900717 a.u.
  Electron attachment energy:                                      6.644271 eV

  Pole strength:                                                      0.059955

  Dip. moment [a.u.]:                  [  -0.000000,   -0.000001,   -0.000000]
  Total dipole [Debye]:                                               0.000002
  <r^2> [a.u.]:                        [  60.304911,   31.685654,   39.461550]
  Total <r^2> [a.u.]:                                               131.452115

  V1^2 = 0.0606, V2^2 = 0.9394

  Important amplitudes:
       occ i       vir a        vir b           v   
    -------------------------------------------------
     1 (B1u) A    2 (B1u) A    2 (B2g) B     -0.3904
     1 (B1u) A    2 (B1u) A    1 (B2g) B     -0.3665
    -------------------------------------------------

  Density matrix analysis:
  ------------------------
  NOs (alpha)
    Occupation of frontier NOs:
       0.1824   0.6650
    Number of electrons:  8.000000
  NOs (beta)
    Occupation of frontier NOs:
       0.2977   0.8216
    Number of electrons:  9.000000
  NOs (spin-traced)
    Occupation of frontier NOs:
       0.7361   1.0038
    Number of electrons: 17.000000
    Number of unpaired electrons: n_u =  2.90027, n_u,nl =  2.81606
    NO participation ratio (PR_NO):  3.863474
  
  
  Mulliken Population Analysis
  Atom  Charge (e)    Spin (e)  h+ (alpha)   h+ (beta)  e- (alpha)   e- (beta)
  ----------------------------------------------------------------------------
   1 C   -0.684380    0.495940    0.411598    0.091808   -0.395437   -0.571588
   2 C   -0.684380    0.495940    0.411598    0.091808   -0.395437   -0.571588
   3 H    0.092184    0.002030    0.001549    0.000914   -0.009630   -0.011024
   4 H    0.092202    0.002030    0.001549    0.000914   -0.009630   -0.011024
   5 H    0.092196    0.002030    0.001549    0.000914   -0.009630   -0.011024
   6 H    0.092178    0.002030    0.001549    0.000914   -0.009630   -0.011024
  ----------------------------------------------------------------------------
  Sum:   -1.000000    1.000000    0.829393    0.187271   -0.829393   -1.187271
  
  Multipole moment analysis of the density matrix
    Molecular charge:                      -1.000000
    Number of electrons:                   17.000000
      Center of electronic charge [Ang]: [  0.000000,   0.000000,   0.000000]
    Total nuclear charge:                  16.000000
      Center of nuclear charge [Ang]:    [  0.000000,   0.000000,   0.000000]
    Dipole moment [D]:                     0.000002
      Cartesian components [D]:          [ -0.000000,  -0.000002,  -0.000000]
    RMS size of the density [Ang]:         1.471501
      Cartesian components [Ang]:        [  0.996674,   0.722450,   0.806239]
  
  Exciton analysis of the difference density matrix
  Total:
    <r_h> [Ang]:                  [  0.000000,   0.000000,   0.000000]
    <r_e> [Ang]:                  [  0.000000,   0.000000,   0.000000]
    |<r_e - r_h>| [Ang]:            0.000000
    Hole size [Ang]:                1.407399
      Cartesian components [Ang]: [  0.823980,   0.599871,   0.970558]
    Electron size [Ang]:            2.808790
      Cartesian components [Ang]: [  1.440800,   1.226902,   2.075599]
  
  Alpha spin:
    <r_h> [Ang]:                  [  0.000000,   0.000000,   0.000000]
    <r_e> [Ang]:                  [  0.000000,   0.000000,   0.000000]
    |<r_e - r_h>| [Ang]:            0.000000
    Hole size [Ang]:                1.393761
      Cartesian components [Ang]: [  0.811823,   0.587588,   0.968636]
    Electron size [Ang]:            3.329558
      Cartesian components [Ang]: [  1.585006,   1.483457,   2.524494]
  
  Beta spin:
    <r_h> [Ang]:                  [  0.000000,   0.000000,   0.000000]
    <r_e> [Ang]:                  [  0.000000,   0.000000,  -0.000000]
    |<r_e - r_h>| [Ang]:            0.000000
    Hole size [Ang]:                1.466272
      Cartesian components [Ang]: [  0.875795,   0.651493,   0.979027]
    Electron size [Ang]:            2.378280
      Cartesian components [Ang]: [  1.330823,   1.009719,   1.692806]
  ----------------------------------------------------------------------------


  Electron-attached state 4 (B2g)                                  [converged]
  ----------------------------------------------------------------------------
  Term symbol:  4 (2) B2g                                   R^2 =  2.16356e-08

  Total energy:                                            -78.0358120179 a.u.
  Electron attachment energy:                                      8.428741 eV

  Pole strength:                                                      0.000690

  Dip. moment [a.u.]:                  [   0.000000,   -0.000002,    0.000000]
  Total dipole [Debye]:                                               0.000005
  <r^2> [a.u.]:                        [ 101.999749,   37.872355,   26.067898]
  Total <r^2> [a.u.]:                                               165.940002

  V1^2 = 0.0007, V2^2 = 0.9993

  Important amplitudes:
       occ i       vir a        vir b           v   
    -------------------------------------------------
     1 (B1u) B    4 (Ag ) B    3 (B3u) B     -0.5191
     1 (B1u) A    3 (B3u) A    4 (Ag ) B      0.3103
    -------------------------------------------------

  Density matrix analysis:
  ------------------------
  NOs (alpha)
    Occupation of frontier NOs:
       0.2562   0.6069
    Number of electrons:  8.000000
  NOs (beta)
    Occupation of frontier NOs:
       0.3335   0.7173
    Number of electrons:  9.000000
  NOs (spin-traced)
    Occupation of frontier NOs:
       0.9402   0.9574
    Number of electrons: 17.000000
    Number of unpaired electrons: n_u =  3.28666, n_u,nl =  3.02483
    NO participation ratio (PR_NO):  3.919221
  
  
  Mulliken Population Analysis
  Atom  Charge (e)    Spin (e)  h+ (alpha)   h+ (beta)  e- (alpha)   e- (beta)
  ----------------------------------------------------------------------------
   1 C   -0.725709    0.526063    0.179227    0.314703   -0.168669   -0.830208
   2 C   -0.725709    0.526063    0.179227    0.314703   -0.168669   -0.830208
   3 H    0.112849   -0.013032    0.001064    0.001832   -0.006342    0.005921
   4 H    0.112866   -0.013031    0.001064    0.001832   -0.006342    0.005920
   5 H    0.112861   -0.013031    0.001064    0.001832   -0.006342    0.005920
   6 H    0.112843   -0.013032    0.001064    0.001832   -0.006342    0.005921
  ----------------------------------------------------------------------------
  Sum:   -1.000000    1.000000    0.362708    0.636735   -0.362708   -1.636735
  
  Multipole moment analysis of the density matrix
    Molecular charge:                      -1.000000
    Number of electrons:                   17.000000
      Center of electronic charge [Ang]: [ -0.000000,   0.000000,  -0.000000]
    Total nuclear charge:                  16.000000
      Center of nuclear charge [Ang]:    [  0.000000,   0.000000,   0.000000]
    Dipole moment [D]:                     0.000005
      Cartesian components [D]:          [  0.000000,  -0.000005,   0.000000]
    RMS size of the density [Ang]:         1.653302
      Cartesian components [Ang]:        [  1.296213,   0.789838,   0.655284]
  
  Exciton analysis of the difference density matrix
  Total:
    <r_h> [Ang]:                  [ -0.000000,   0.000000,   0.000000]
    <r_e> [Ang]:                  [ -0.000000,   0.000000,  -0.000000]
    |<r_e - r_h>| [Ang]:            0.000000
    Hole size [Ang]:                1.253278
      Cartesian components [Ang]: [  0.748887,   0.510993,   0.865309]
    Electron size [Ang]:            3.544765
      Cartesian components [Ang]: [  2.805066,   1.527177,   1.537756]
  
  Alpha spin:
    <r_h> [Ang]:                  [ -0.000000,   0.000000,   0.000000]
    <r_e> [Ang]:                  [ -0.000000,   0.000000,  -0.000000]
    |<r_e - r_h>| [Ang]:            0.000000
    Hole size [Ang]:                1.252288
      Cartesian components [Ang]: [  0.748716,   0.510590,   0.864261]
    Electron size [Ang]:            3.813678
      Cartesian components [Ang]: [  3.142541,   1.548257,   1.507142]
  
  Beta spin:
    <r_h> [Ang]:                  [ -0.000000,   0.000000,   0.000000]
    <r_e> [Ang]:                  [ -0.000000,   0.000000,  -0.000000]
    |<r_e - r_h>| [Ang]:            0.000000
    Hole size [Ang]:                1.253842
      Cartesian components [Ang]: [  0.748985,   0.511223,   0.865906]
    Electron size [Ang]:            3.482363
      Cartesian components [Ang]: [  2.724628,   1.522466,   1.544458]
  ----------------------------------------------------------------------------


  Electron-attached state 5 (B2g)                                  [converged]
  ----------------------------------------------------------------------------
  Term symbol:  5 (2) B2g                                   R^2 =  6.91884e-08

  Total energy:                                            -78.0127538305 a.u.
  Electron attachment energy:                                      9.056186 eV

  Pole strength:                                                      0.000107

  Dip. moment [a.u.]:                  [   0.000000,   -0.000002,    0.000000]
  Total dipole [Debye]:                                               0.000004
  <r^2> [a.u.]:                        [  89.367825,   40.113104,   28.728791]
  Total <r^2> [a.u.]:                                               158.209720

  V1^2 = 0.0001, V2^2 = 0.9999

  Important amplitudes:
       occ i       vir a        vir b           v   
    -------------------------------------------------
     1 (B1u) A    3 (B3u) A    5 (Ag ) B     -0.3956
     1 (B1u) A    5 (Ag ) A    3 (B3u) B     -0.3481
    -------------------------------------------------

  Density matrix analysis:
  ------------------------
  NOs (alpha)
    Occupation of frontier NOs:
       0.3944   0.4647
    Number of electrons:  8.000000
  NOs (beta)
    Occupation of frontier NOs:
       0.3959   0.5098
    Number of electrons:  9.000000
  NOs (spin-traced)
    Occupation of frontier NOs:
       0.8419   0.9041
    Number of electrons: 17.000000
    Number of unpaired electrons: n_u =  3.28814, n_u,nl =  3.01114
    NO participation ratio (PR_NO):  4.443829
  
  
  Mulliken Population Analysis
  Atom  Charge (e)    Spin (e)  h+ (alpha)   h+ (beta)  e- (alpha)   e- (beta)
  ----------------------------------------------------------------------------
   1 C   -0.733381    0.482814    0.465898    0.028178   -0.480800   -0.525894
   2 C   -0.733381    0.482814    0.465898    0.028178   -0.480800   -0.525894
   3 H    0.116685    0.008593    0.002759    0.000183    0.004692   -0.001325
   4 H    0.116702    0.008593    0.002759    0.000183    0.004692   -0.001326
   5 H    0.116696    0.008593    0.002759    0.000183    0.004692   -0.001325
   6 H    0.116679    0.008593    0.002759    0.000183    0.004693   -0.001325
  ----------------------------------------------------------------------------
  Sum:   -1.000000    1.000000    0.942833    0.057089   -0.942833   -1.057089
  
  Multipole moment analysis of the density matrix
    Molecular charge:                      -1.000000
    Number of electrons:                   17.000000
      Center of electronic charge [Ang]: [ -0.000000,   0.000000,  -0.000000]
    Total nuclear charge:                  16.000000
      Center of nuclear charge [Ang]:    [  0.000000,   0.000000,   0.000000]
    Dipole moment [D]:                     0.000004
      Cartesian components [D]:          [  0.000000,  -0.000004,   0.000000]
    RMS size of the density [Ang]:         1.614333
      Cartesian components [Ang]:        [  1.213297,   0.812868,   0.687916]
  
  Exciton analysis of the difference density matrix
  Total:
    <r_h> [Ang]:                  [ -0.000000,   0.000000,   0.000000]
    <r_e> [Ang]:                  [ -0.000000,   0.000000,  -0.000000]
    |<r_e - r_h>| [Ang]:            0.000000
    Hole size [Ang]:                1.252528
      Cartesian components [Ang]: [  0.748552,   0.510761,   0.864651]
    Electron size [Ang]:            3.388126
      Cartesian components [Ang]: [  2.469348,   1.626470,   1.654181]
  
  Alpha spin:
    <r_h> [Ang]:                  [ -0.000000,   0.000000,   0.000000]
    <r_e> [Ang]:                  [ -0.000000,   0.000000,  -0.000000]
    |<r_e - r_h>| [Ang]:            0.000000
    Hole size [Ang]:                1.252681
      Cartesian components [Ang]: [  0.748544,   0.510785,   0.864865]
    Electron size [Ang]:            3.343512
      Cartesian components [Ang]: [  2.400039,   1.634348,   1.657645]
  
  Beta spin:
    <r_h> [Ang]:                  [  0.000000,   0.000000,   0.000000]
    <r_e> [Ang]:                  [ -0.000000,   0.000000,  -0.000000]
    |<r_e - r_h>| [Ang]:            0.000000
    Hole size [Ang]:                1.250000
      Cartesian components [Ang]: [  0.748691,   0.510351,   0.861106]
    Electron size [Ang]:            3.427428
      Cartesian components [Ang]: [  2.529563,   1.619411,   1.651085]
  ----------------------------------------------------------------------------


  Electron-attached state 6 (B2g)                                  [converged]
  ----------------------------------------------------------------------------
  Term symbol:  6 (2) B2g                                   R^2 =  2.30186e-07

  Total energy:                                            -77.9848860958 a.u.
  Electron attachment energy:                                      9.814505 eV

  Pole strength:                                                      0.035014

  Dip. moment [a.u.]:                  [   0.000000,   -0.000001,   -0.000000]
  Total dipole [Debye]:                                               0.000002
  <r^2> [a.u.]:                        [  78.989341,   36.304008,   39.798320]
  Total <r^2> [a.u.]:                                               155.091668

  V1^2 = 0.0351, V2^2 = 0.9649

  Important amplitudes:
       occ i       vir a        vir b           v   
    -------------------------------------------------
     1 (B1u) B    1 (B2g) B    2 (B1u) B     -0.4038
     1 (B1u) A    1 (B2g) A    2 (B1u) B     -0.3448
    -------------------------------------------------

  Density matrix analysis:
  ------------------------
  NOs (alpha)
    Occupation of frontier NOs:
       0.2797   0.5464
    Number of electrons:  8.000000
  NOs (beta)
    Occupation of frontier NOs:
       0.3613   0.4510
    Number of electrons:  9.000000
  NOs (spin-traced)
    Occupation of frontier NOs:
       0.6338   0.6375
    Number of electrons: 17.000000
    Number of unpaired electrons: n_u =  3.33296, n_u,nl =  2.96523
    NO participation ratio (PR_NO):  5.695753
  
  
  Mulliken Population Analysis
  Atom  Charge (e)    Spin (e)  h+ (alpha)   h+ (beta)  e- (alpha)   e- (beta)
  ----------------------------------------------------------------------------
   1 C   -0.702204    0.490454    0.216602    0.260245   -0.212096   -0.746193
   2 C   -0.702204    0.490454    0.216602    0.260245   -0.212096   -0.746193
   3 H    0.101096    0.004773    0.001787    0.001624   -0.004039   -0.008651
   4 H    0.101114    0.004773    0.001787    0.001624   -0.004040   -0.008651
   5 H    0.101108    0.004773    0.001787    0.001624   -0.004040   -0.008650
   6 H    0.101090    0.004773    0.001787    0.001624   -0.004039   -0.008650
  ----------------------------------------------------------------------------
  Sum:   -1.000000    1.000000    0.440351    0.526988   -0.440351   -1.526988
  
  Multipole moment analysis of the density matrix
    Molecular charge:                      -1.000000
    Number of electrons:                   17.000000
      Center of electronic charge [Ang]: [ -0.000000,   0.000000,   0.000000]
    Total nuclear charge:                  16.000000
      Center of nuclear charge [Ang]:    [  0.000000,   0.000000,   0.000000]
    Dipole moment [D]:                     0.000002
      Cartesian components [D]:          [  0.000000,  -0.000002,  -0.000000]
    RMS size of the density [Ang]:         1.598346
      Cartesian components [Ang]:        [  1.140672,   0.773311,   0.809672]
  
  Exciton analysis of the difference density matrix
  Total:
    <r_h> [Ang]:                  [  0.000000,   0.000000,   0.000000]
    <r_e> [Ang]:                  [ -0.000000,   0.000000,   0.000000]
    |<r_e - r_h>| [Ang]:            0.000000
    Hole size [Ang]:                1.259485
      Cartesian components [Ang]: [  0.758447,   0.519350,   0.861009]
    Electron size [Ang]:            3.347881
      Cartesian components [Ang]: [  2.172431,   1.465287,   2.083695]
  
  Alpha spin:
    <r_h> [Ang]:                  [  0.000000,   0.000000,   0.000000]
    <r_e> [Ang]:                  [ -0.000000,   0.000000,   0.000000]
    |<r_e - r_h>| [Ang]:            0.000000
    Hole size [Ang]:                1.253900
      Cartesian components [Ang]: [  0.759744,   0.517950,   0.852516]
    Electron size [Ang]:            2.968454
      Cartesian components [Ang]: [  2.038850,   1.320320,   1.706331]
  
  Beta spin:
    <r_h> [Ang]:                  [  0.000000,   0.000000,   0.000000]
    <r_e> [Ang]:                  [  0.000000,   0.000000,   0.000000]
    |<r_e - r_h>| [Ang]:            0.000000
    Hole size [Ang]:                1.264132
      Cartesian components [Ang]: [  0.757362,   0.520517,   0.868042]
    Electron size [Ang]:            3.449556
      Cartesian components [Ang]: [  2.209453,   1.504500,   2.180419]
  ----------------------------------------------------------------------------


  Electron-attached state 7 (B2g)                                  [converged]
  ----------------------------------------------------------------------------
  Term symbol:  7 (2) B2g                                   R^2 =  1.98305e-07

  Total energy:                                            -77.9792429963 a.u.
  Electron attachment energy:                                      9.968062 eV

  Pole strength:                                                      0.008786

  Dip. moment [a.u.]:                  [   0.000000,   -0.000001,    0.000000]
  Total dipole [Debye]:                                               0.000002
  <r^2> [a.u.]:                        [  87.780955,   46.729166,   29.513389]
  Total <r^2> [a.u.]:                                               164.023510

  V1^2 = 0.0088, V2^2 = 0.9912

  Important amplitudes:
       occ i       vir a        vir b           v   
    -------------------------------------------------
     1 (B1u) B    5 (Ag ) B    3 (B3u) B      0.3390
     1 (B1u) B    2 (B1g) B    2 (B2u) B      0.3146
    -------------------------------------------------

  Density matrix analysis:
  ------------------------
  NOs (alpha)
    Occupation of frontier NOs:
       0.1177   0.6073
    Number of electrons:  8.000000
  NOs (beta)
    Occupation of frontier NOs:
       0.3526   0.3533
    Number of electrons:  9.000000
  NOs (spin-traced)
    Occupation of frontier NOs:
       0.4277   0.4280
    Number of electrons: 17.000000
    Number of unpaired electrons: n_u =  3.30856, n_u,nl =  2.87631
    NO participation ratio (PR_NO):  6.762091
  
  
  Mulliken Population Analysis
  Atom  Charge (e)    Spin (e)  h+ (alpha)   h+ (beta)  e- (alpha)   e- (beta)
  ----------------------------------------------------------------------------
   1 C   -0.614621    0.422398    0.181563    0.306992   -0.167294   -0.715121
   2 C   -0.614621    0.422398    0.181563    0.306992   -0.167294   -0.715121
   3 H    0.057304    0.038801    0.001576    0.001987   -0.008711   -0.047923
   4 H    0.057323    0.038801    0.001576    0.001987   -0.008711   -0.047923
   5 H    0.057317    0.038801    0.001576    0.001987   -0.008711   -0.047922
   6 H    0.057298    0.038801    0.001576    0.001987   -0.008711   -0.047922
  ----------------------------------------------------------------------------
  Sum:   -1.000000    1.000000    0.369431    0.621931   -0.369431   -1.621931
  
  Multipole moment analysis of the density matrix
    Molecular charge:                      -1.000000
    Number of electrons:                   17.000000
      Center of electronic charge [Ang]: [ -0.000000,   0.000000,  -0.000000]
    Total nuclear charge:                  16.000000
      Center of nuclear charge [Ang]:    [  0.000000,   0.000000,   0.000000]
    Dipole moment [D]:                     0.000002
      Cartesian components [D]:          [  0.000000,  -0.000002,   0.000000]
    RMS size of the density [Ang]:         1.643727
      Cartesian components [Ang]:        [  1.202477,   0.877346,   0.697246]
  
  Exciton analysis of the difference density matrix
  Total:
    <r_h> [Ang]:                  [  0.000000,   0.000000,   0.000000]
    <r_e> [Ang]:                  [ -0.000000,   0.000000,   0.000000]
    |<r_e - r_h>| [Ang]:            0.000000
    Hole size [Ang]:                1.253711
      Cartesian components [Ang]: [  0.752273,   0.513668,   0.861407]
    Electron size [Ang]:            3.512978
      Cartesian components [Ang]: [  2.429220,   1.894069,   1.688907]
  
  Alpha spin:
    <r_h> [Ang]:                  [  0.000000,   0.000000,   0.000000]
    <r_e> [Ang]:                  [ -0.000000,   0.000000,  -0.000000]
    |<r_e - r_h>| [Ang]:            0.000000
    Hole size [Ang]:                1.252491
      Cartesian components [Ang]: [  0.754661,   0.514911,   0.856789]
    Electron size [Ang]:            3.382399
      Cartesian components [Ang]: [  2.396909,   1.802581,   1.564018]
  
  Beta spin:
    <r_h> [Ang]:                  [  0.000000,   0.000000,   0.000000]
    <r_e> [Ang]:                  [ -0.000000,   0.000000,   0.000000]
    |<r_e - r_h>| [Ang]:            0.000000
    Hole size [Ang]:                1.254436
      Cartesian components [Ang]: [  0.750851,   0.512929,   0.864139]
    Electron size [Ang]:            3.542047
      Cartesian components [Ang]: [  2.436519,   1.914296,   1.716083]
  ----------------------------------------------------------------------------


  Electron-attached state 8 (B2g)                                  [converged]
  ----------------------------------------------------------------------------
  Term symbol:  8 (2) B2g                                   R^2 =  1.64046e-07

  Total energy:                                            -77.9608325838 a.u.
  Electron attachment energy:                                     10.469035 eV

  Pole strength:                                                      0.001289

  Dip. moment [a.u.]:                  [   0.000000,   -0.000000,    0.000000]
  Total dipole [Debye]:                                               0.000001
  <r^2> [a.u.]:                        [  86.777818,   56.639004,   25.207265]
  Total <r^2> [a.u.]:                                               168.624087

  V1^2 = 0.0013, V2^2 = 0.9987

  Important amplitudes:
       occ i       vir a        vir b           v   
    -------------------------------------------------
     1 (B1u) B    2 (B1g) B    2 (B2u) B     -0.4405
     1 (B1u) B    5 (Ag ) B    3 (B3u) B      0.3148
    -------------------------------------------------

  Density matrix analysis:
  ------------------------
  NOs (alpha)
    Occupation of frontier NOs:
       0.1349   0.6244
    Number of electrons:  8.000000
  NOs (beta)
    Occupation of frontier NOs:
       0.3186   0.4958
    Number of electrons:  9.000000
  NOs (spin-traced)
    Occupation of frontier NOs:
       0.6307   0.6320
    Number of electrons: 17.000000
    Number of unpaired electrons: n_u =  3.29082, n_u,nl =  3.14010
    NO participation ratio (PR_NO):  5.653691
  
  
  Mulliken Population Analysis
  Atom  Charge (e)    Spin (e)  h+ (alpha)   h+ (beta)  e- (alpha)   e- (beta)
  ----------------------------------------------------------------------------
   1 C   -0.558286    0.389354    0.170973    0.322222   -0.145058   -0.685662
   2 C   -0.558286    0.389354    0.170973    0.322222   -0.145058   -0.685662
   3 H    0.029137    0.055323    0.001137    0.001944   -0.014095   -0.070224
   4 H    0.029155    0.055323    0.001137    0.001944   -0.014095   -0.070224
   5 H    0.029149    0.055323    0.001137    0.001944   -0.014095   -0.070224
   6 H    0.029131    0.055323    0.001137    0.001944   -0.014095   -0.070224
  ----------------------------------------------------------------------------
  Sum:   -1.000000    1.000000    0.346496    0.652220   -0.346496   -1.652220
  
  Multipole moment analysis of the density matrix
    Molecular charge:                      -1.000000
    Number of electrons:                   17.000000
      Center of electronic charge [Ang]: [ -0.000000,   0.000000,  -0.000000]
    Total nuclear charge:                  16.000000
      Center of nuclear charge [Ang]:    [  0.000000,   0.000000,   0.000000]
    Dipole moment [D]:                     0.000001
      Cartesian components [D]:          [  0.000000,  -0.000001,   0.000000]
    RMS size of the density [Ang]:         1.666620
      Cartesian components [Ang]:        [  1.195587,   0.965905,   0.644376]
  
  Exciton analysis of the difference density matrix
  Total:
    <r_h> [Ang]:                  [ -0.000000,   0.000000,   0.000000]
    <r_e> [Ang]:                  [ -0.000000,  -0.000000,   0.000000]
    |<r_e - r_h>| [Ang]:            0.000000
    Hole size [Ang]:                1.252503
      Cartesian components [Ang]: [  0.749193,   0.511153,   0.863826]
    Electron size [Ang]:            3.597838
      Cartesian components [Ang]: [  2.395543,   2.227643,   1.497806]
  
  Alpha spin:
    <r_h> [Ang]:                  [ -0.000000,   0.000000,   0.000000]
    <r_e> [Ang]:                  [ -0.000000,  -0.000000,   0.000000]
    |<r_e - r_h>| [Ang]:            0.000000
    Hole size [Ang]:                1.253125
      Cartesian components [Ang]: [  0.750240,   0.511974,   0.863334]
    Electron size [Ang]:            3.625884
      Cartesian components [Ang]: [  2.447986,   2.222166,   1.488752]
  
  Beta spin:
    <r_h> [Ang]:                  [ -0.000000,   0.000000,   0.000000]
    <r_e> [Ang]:                  [ -0.000000,  -0.000000,   0.000000]
    |<r_e - r_h>| [Ang]:            0.000000
    Hole size [Ang]:                1.252173
      Cartesian components [Ang]: [  0.748637,   0.510717,   0.864088]
    Electron size [Ang]:            3.591929
      Cartesian components [Ang]: [  2.384399,   2.228789,   1.499698]
  ----------------------------------------------------------------------------


  Electron-attached state 9 (B2g)                                  [converged]
  ----------------------------------------------------------------------------
  Term symbol:  9 (2) B2g                                   R^2 =  2.92091e-06

  Total energy:                                            -77.9416702877 a.u.
  Electron attachment energy:                                     10.990467 eV

  Pole strength:                                                      0.289374

  Dip. moment [a.u.]:                  [   0.000000,   -0.000001,    0.000000]
  Total dipole [Debye]:                                               0.000002
  <r^2> [a.u.]:                        [  80.195846,   36.802234,   26.466167]
  Total <r^2> [a.u.]:                                               143.464247

  V1^2 = 0.2900, V2^2 = 0.7100

  Important amplitudes:
       occ i       vir a        vir b           v   
    -------------------------------------------------
                               3 (B2g) B      0.5279
     1 (B1u) A    4 (Ag ) A    4 (B3u) B      0.1949
    -------------------------------------------------

  Density matrix analysis:
  ------------------------
  NOs (alpha)
    Occupation of frontier NOs:
       0.1960   0.4545
    Number of electrons:  8.000000
  NOs (beta)
    Occupation of frontier NOs:
       0.1661   0.2975
    Number of electrons:  9.000000
  NOs (spin-traced)
    Occupation of frontier NOs:
       0.3066   0.3615
    Number of electrons: 17.000000
    Number of unpaired electrons: n_u =  2.82502, n_u,nl =  2.02829
    NO participation ratio (PR_NO): 10.166573
  
  
  Mulliken Population Analysis
  Atom  Charge (e)    Spin (e)  h+ (alpha)   h+ (beta)  e- (alpha)   e- (beta)
  ----------------------------------------------------------------------------
   1 C   -0.644803    0.467361    0.323422    0.012894   -0.301762   -0.458595
   2 C   -0.644803    0.467361    0.323422    0.012894   -0.301762   -0.458595
   3 H    0.072395    0.016320    0.012716    0.000006   -0.023546   -0.027155
   4 H    0.072414    0.016319    0.012716    0.000006   -0.023546   -0.027155
   5 H    0.072408    0.016319    0.012716    0.000006   -0.023545   -0.027155
   6 H    0.072389    0.016320    0.012716    0.000006   -0.023545   -0.027155
  ----------------------------------------------------------------------------
  Sum:   -1.000000    1.000000    0.697706    0.025811   -0.697706   -1.025811
  
  Multipole moment analysis of the density matrix
    Molecular charge:                      -1.000000
    Number of electrons:                   17.000000
      Center of electronic charge [Ang]: [ -0.000000,   0.000000,  -0.000000]
    Total nuclear charge:                  16.000000
      Center of nuclear charge [Ang]:    [  0.000000,   0.000000,   0.000000]
    Dipole moment [D]:                     0.000002
      Cartesian components [D]:          [  0.000000,  -0.000002,   0.000000]
    RMS size of the density [Ang]:         1.537264
      Cartesian components [Ang]:        [  1.149351,   0.778599,   0.660271]
  
  Exciton analysis of the difference density matrix
  Total:
    <r_h> [Ang]:                  [  0.000000,   0.000000,   0.000000]
    <r_e> [Ang]:                  [ -0.000000,   0.000000,   0.000000]
    |<r_e - r_h>| [Ang]:            0.000000
    Hole size [Ang]:                1.243541
      Cartesian components [Ang]: [  0.834685,   0.545279,   0.743213]
    Electron size [Ang]:            3.265515
      Cartesian components [Ang]: [  2.356426,   1.582778,   1.614206]
  
  Alpha spin:
    <r_h> [Ang]:                  [  0.000000,   0.000000,   0.000000]
    <r_e> [Ang]:                  [ -0.000000,   0.000000,  -0.000000]
    |<r_e - r_h>| [Ang]:            0.000000
    Hole size [Ang]:                1.234760
      Cartesian components [Ang]: [  0.827783,   0.534580,   0.744065]
    Electron size [Ang]:            3.393667
      Cartesian components [Ang]: [  2.495123,   1.697314,   1.552566]
  
  Beta spin:
    <r_h> [Ang]:                  [  0.000000,  -0.000000,   0.000000]
    <r_e> [Ang]:                  [ -0.000000,   0.000000,   0.000000]
    |<r_e - r_h>| [Ang]:            0.000000
    Hole size [Ang]:                1.461023
      Cartesian components [Ang]: [  1.003427,   0.780779,   0.719796]
    Electron size [Ang]:            3.175399
      Cartesian components [Ang]: [  2.257227,   1.499887,   1.654819]
  ----------------------------------------------------------------------------


  Electron-attached state 10 (B2g)                                  [converged]
  ----------------------------------------------------------------------------
  Term symbol:  10 (2) B2g                                  R^2 =  3.10444e-06

  Total energy:                                            -77.9362806578 a.u.
  Electron attachment energy:                                     11.137127 eV

  Pole strength:                                                      0.192134

  Dip. moment [a.u.]:                  [  -0.000000,   -0.000001,    0.000000]
  Total dipole [Debye]:                                               0.000001
  <r^2> [a.u.]:                        [  79.173974,   47.549047,   25.395157]
  Total <r^2> [a.u.]:                                               152.118178

  V1^2 = 0.1925, V2^2 = 0.8075

  Important amplitudes:
       occ i       vir a        vir b           v   
    -------------------------------------------------
                               3 (B2g) B     -0.4307
     1 (B1u) A    2 (B2u) A    2 (B1g) B      0.3247
    -------------------------------------------------

  Density matrix analysis:
  ------------------------
  NOs (alpha)
    Occupation of frontier NOs:
       0.2337   0.3069
    Number of electrons:  8.000000
  NOs (beta)
    Occupation of frontier NOs:
       0.1979   0.2413
    Number of electrons:  9.000000
  NOs (spin-traced)
    Occupation of frontier NOs:
       0.4281   0.4382
    Number of electrons: 17.000000
    Number of unpaired electrons: n_u =  3.02145, n_u,nl =  2.43207
    NO participation ratio (PR_NO):  8.125789
  
  
  Mulliken Population Analysis
  Atom  Charge (e)    Spin (e)  h+ (alpha)   h+ (beta)  e- (alpha)   e- (beta)
  ----------------------------------------------------------------------------
   1 C   -0.609647    0.476971    0.372418    0.016989   -0.328375   -0.449918
   2 C   -0.609647    0.476971    0.372418    0.016989   -0.328375   -0.449918
   3 H    0.054817    0.011514    0.009231    0.000214   -0.031252   -0.033750
   4 H    0.054836    0.011514    0.009231    0.000214   -0.031252   -0.033750
   5 H    0.054830    0.011514    0.009231    0.000214   -0.031252   -0.033750
   6 H    0.054811    0.011514    0.009231    0.000214   -0.031252   -0.033750
  ----------------------------------------------------------------------------
  Sum:   -1.000000    1.000000    0.781759    0.034836   -0.781759   -1.034836
  
  Multipole moment analysis of the density matrix
    Molecular charge:                      -1.000000
    Number of electrons:                   17.000000
      Center of electronic charge [Ang]: [  0.000000,   0.000000,  -0.000000]
    Total nuclear charge:                  16.000000
      Center of nuclear charge [Ang]:    [  0.000000,   0.000000,   0.000000]
    Dipole moment [D]:                     0.000001
      Cartesian components [D]:          [ -0.000000,  -0.000001,   0.000000]
    RMS size of the density [Ang]:         1.582950
      Cartesian components [Ang]:        [  1.142005,   0.885009,   0.646773]
  
  Exciton analysis of the difference density matrix
  Total:
    <r_h> [Ang]:                  [  0.000000,   0.000000,   0.000000]
    <r_e> [Ang]:                  [  0.000000,   0.000000,  -0.000000]
    |<r_e - r_h>| [Ang]:            0.000000
    Hole size [Ang]:                1.260487
      Cartesian components [Ang]: [  0.808016,   0.537813,   0.804173]
    Electron size [Ang]:            3.398459
      Cartesian components [Ang]: [  2.264225,   2.011231,   1.541999]
  
  Alpha spin:
    <r_h> [Ang]:                  [  0.000000,   0.000000,   0.000000]
    <r_e> [Ang]:                  [  0.000000,  -0.000000,  -0.000000]
    |<r_e - r_h>| [Ang]:            0.000000
    Hole size [Ang]:                1.255240
      Cartesian components [Ang]: [  0.802437,   0.530559,   0.806367]
    Electron size [Ang]:            3.473193
      Cartesian components [Ang]: [  2.325821,   2.123205,   1.464795]
  
  Beta spin:
    <r_h> [Ang]:                  [  0.000000,  -0.000000,   0.000000]
    <r_e> [Ang]:                  [  0.000000,   0.000000,   0.000000]
    |<r_e - r_h>| [Ang]:            0.000000
    Hole size [Ang]:                1.372972
      Cartesian components [Ang]: [  0.924402,   0.680552,   0.753247]
    Electron size [Ang]:            3.340894
      Cartesian components [Ang]: [  2.216559,   1.922320,   1.597851]
  ----------------------------------------------------------------------------


--------------------------------------------------------------------------------
  Time of ADC calculation:  CPU 205.29 s  wall 48.65 s
================================================================================
 
 --------------------------------------------------------------
             Orbital Energies (a.u.) and Symmetries
 --------------------------------------------------------------
 
 Alpha MOs, Restricted
 -- Occupied --                  
-11.237 -11.235  -1.042  -0.782  -0.660  -0.567  -0.515  -0.377
  1 Ag    1 B3u   2 Ag    2 B3u   1 B2u   3 Ag    1 B1g   1 B1u                
 -- Virtual --                   
  0.075   0.087   0.090   0.099   0.100   0.120   0.141   0.189
  3 B3u   2 B2u   4 Ag    2 B1u   1 B2g   2 B1g   5 Ag    2 B2g                
  0.216   0.262   0.321   0.325   0.357   0.359   0.367   0.371
  4 B3u   6 Ag    3 B2u   5 B3u   7 Ag    4 B2u   6 B3u   3 B1u                
  0.384   0.456   0.547   0.618   0.837   0.850   0.934   0.970
  3 B1g   3 B2g   4 B1g   7 B3u   8 Ag    5 B2u   8 B3u   9 Ag                 
  1.023   1.067   1.072   1.114   1.142   1.143   1.187   1.285
  5 B1g  10 Ag    6 B2u   1 B3g   4 B1u   9 B3u   4 B2g   1 Au                 
  1.292   1.299   1.464   1.623   1.701   1.734   1.877   1.945
  5 B1u  10 B3u   6 B1g  11 Ag    7 B1g   7 B2u   5 B2g   6 B1u                
  1.964   2.017   2.078   2.099   2.183   2.333   2.412   2.475
 11 B3u   2 B3g  12 Ag    8 B2u   6 B2g  12 B3u   2 Au   13 Ag                 
  2.566   2.580   2.847   2.849   3.270   3.344
  8 B1g  13 B3u   9 B2u  14 Ag   14 B3u   9 B1g                                
 
 Beta MOs, Restricted
 -- Occupied --                  
-11.237 -11.235  -1.042  -0.782  -0.660  -0.567  -0.515  -0.377
  1 Ag    1 B3u   2 Ag    2 B3u   1 B2u   3 Ag    1 B1g   1 B1u                
 -- Virtual --                   
  0.075   0.087   0.090   0.099   0.100   0.120   0.141   0.189
  3 B3u   2 B2u   4 Ag    2 B1u   1 B2g   2 B1g   5 Ag    2 B2g                
  0.216   0.262   0.321   0.325   0.357   0.359   0.367   0.371
  4 B3u   6 Ag    3 B2u   5 B3u   7 Ag    4 B2u   6 B3u   3 B1u                
  0.384   0.456   0.547   0.618   0.837   0.850   0.934   0.970
  3 B1g   3 B2g   4 B1g   7 B3u   8 Ag    5 B2u   8 B3u   9 Ag                 
  1.023   1.067   1.072   1.114   1.142   1.143   1.187   1.285
  5 B1g  10 Ag    6 B2u   1 B3g   4 B1u   9 B3u   4 B2g   1 Au                 
  1.292   1.299   1.464   1.623   1.701   1.734   1.877   1.945
  5 B1u  10 B3u   6 B1g  11 Ag    7 B1g   7 B2u   5 B2g   6 B1u                
  1.964   2.017   2.078   2.099   2.183   2.333   2.412   2.475
 11 B3u   2 B3g  12 Ag    8 B2u   6 B2g  12 B3u   2 Au   13 Ag                 
  2.566   2.580   2.847   2.849   3.270   3.344
  8 B1g  13 B3u   9 B2u  14 Ag   14 B3u   9 B1g                                
 --------------------------------------------------------------
 
          Ground-State Mulliken Net Atomic Charges

     Atom                 Charge (a.u.)
  ----------------------------------------
      1 C                    -0.205469
      2 C                    -0.205469
      3 H                     0.102728
      4 H                     0.102747
      5 H                     0.102740
      6 H                     0.102722
  ----------------------------------------
  Sum of atomic charges =     0.000000

 -----------------------------------------------------------------
                    Cartesian Multipole Moments
 -----------------------------------------------------------------
    Charge (ESU x 10^10)
                 0.0000
    Dipole Moment (Debye)
         X      -0.0000      Y      -0.0000      Z      -0.0000
       Tot       0.0000
    Quadrupole Moments (Debye-Ang)
        XX     -12.9106     XY       0.0000     YY     -11.9586
        XZ       0.0000     YZ       0.0000     ZZ     -16.1454
    Octopole Moments (Debye-Ang^2)
       XXX       0.0000    XXY      -0.0000    XYY       0.0000
       YYY      -0.0000    XXZ      -0.0000    XYZ      -0.0000
       YYZ      -0.0000    XZZ       0.0000    YZZ      -0.0000
       ZZZ      -0.0000
    Hexadecapole Moments (Debye-Ang^3)
      XXXX     -68.0001   XXXY       0.0000   XXYY     -13.1677
      XYYY       0.0000   YYYY     -26.8394   XXXZ       0.0000
      XXYZ       0.0000   XYYZ       0.0000   YYYZ      -0.0000
      XXZZ     -15.6215   XYZZ       0.0000   YYZZ      -9.0121
      XZZZ       0.0000   YZZZ      -0.0000   ZZZZ     -21.7194
 -----------------------------------------------------------------
 Total job time:  132.28s(wall), 247.31s(cpu) 
 Sun Mar 27 22:21:01 2022

        *************************************************************
        *                                                           *
        *  Thank you very much for using Q-Chem.  Have a nice day.  *
        *                                                           *
        *************************************************************


