This is a multi-thread run using 8 threads
/src/tsommerfeld/qchem/exe/qcprog.exe .input0.638889.8820.qcin.1 /src/jdavis/qchem.scratch/qchem8820/

                  Welcome to Q-Chem
     A Quantum Leap Into The Future Of Chemistry


 Q-Chem 5.4 (devel), Q-Chem, Inc., Pleasanton, CA (2021)

 E. Epifanovsky,  A. T. B. Gilbert,  Xintian Feng,  Joonho Lee,  Yuezhi Mao,  
 N. Mardirossian,  P. Pokhilko,  A. White,  M. Wormit,  M. P. Coons,  
 A. L. Dempwolff,  Zhengting Gan,  D. Hait,  P. R. Horn,  L. D. Jacobson,  
 I. Kaliman,  J. Kussmann,  A. W. Lange,  Ka Un Lao,  D. S. Levine,  Jie Liu,  
 S. C. McKenzie,  A. F. Morrison,  K. Nanda,  F. Plasser,  D. R. Rehn,  
 M. L. Vidal,  Zhi-Qiang You,  Ying Zhu,  B. Alam,  B. Albrecht,  
 A. Aldossary,  E. Alguire,  J. H. Andersen,  D. Barton,  K. Begam,  A. Behn,  
 Y. A. Bernard,  E. J. Berquist,  H. Burton,  A. Carreras,  K. Carter-Fenk,  
 R. Chakraborty,  A. D. Chien,  K. D. Closser,  V. Cofer-Shabica,  
 S. Dasgupta,  Jia Deng,  M. de Wergifosse,  M. Diedenhofen,  Hainam Do,  
 S. Ehlert,  Po-Tung Fang,  S. Fatehi,  Qingguo Feng,  T. Friedhoff,  
 J. Gayvert,  Qinghui Ge,  G. Gidofalvi,  M. Goldey,  J. Gomes,  
 C. Gonzalez-Espinoza,  S. Gulania,  A. Gunina,  M. W. D. Hanson-Heine,  
 P. H. P. Harbach,  A. W. Hauser,  M. F. Herbst,  M. Hernandez Vera,  
 M. Hodecker,  Z. C. Holden,  S. Houck,  Xunkun Huang,  Kerwin Hui,  
 B. C. Huynh,  M. Ivanov,  Hyunjun Ji,  Hanjie Jiang,  B. Kaduk,  S. Kaehler,  
 K. Khistyaev,  Jaehoon Kim,  P. Klunzinger,  Z. Koczor-Benda,  
 Joong Hoon Koh,  D. Kosenkov,  L. Koulias,  T. Kowalczyk,  C. M. Krauter,  
 K. Kue,  A. Kunitsa,  T. Kus,  A. Landau,  K. V. Lawler,  D. Lefrancois,  
 S. Lehtola,  Rain Li,  Yi-Pei Li,  Jiashu Liang,  M. Liebenthal,  
 Hung-Hsuan Lin,  You-Sheng Lin,  Fenglai Liu,  Kuan-Yu Liu,  
 M. Loipersberger,  A. Luenser,  A. Manjanath,  P. Manohar,  E. Mansoor,  
 S. F. Manzer,  Shan-Ping Mao,  A. V. Marenich,  T. Markovich,  S. Mason,  
 S. A. Maurer,  P. F. McLaughlin,  M. F. S. J. Menger,  J.-M. Mewes,  
 S. A. Mewes,  P. Morgante,  J. W. Mullinax,  K. J. Oosterbaan,  G. Paran,  
 Alexander C. Paul,  Suranjan K. Paul,  F. Pavosevic,  Zheng Pei,  S. Prager,  
 E. I. Proynov,  E. Ramos,  B. Rana,  A. E. Rask,  A. Rettig,  R. M. Richard,  
 F. Rob,  E. Rossomme,  T. Scheele,  M. Scheurer,  M. Schneider,  
 N. Sergueev,  S. M. Sharada,  W. Skomorowski,  D. W. Small,  C. J. Stein,  
 Yu-Chuan Su,  E. J. Sundstrom,  Zhen Tao,  J. Thirman,  T. Tsuchimochi,  
 N. M. Tubman,  S. P. Veccham,  O. Vydrov,  J. Wenzel,  J. Witte,  A. Yamada,  
 Kun Yao,  S. Yeganeh,  S. R. Yost,  A. Zech,  Igor Ying Zhang,  Xing Zhang,  
 Yu Zhang,  D. Zuev,  A. Aspuru-Guzik,  A. T. Bell,  N. A. Besley,  
 K. B. Bravaya,  B. R. Brooks,  D. Casanova,  Jeng-Da Chai,  S. Coriani,  
 C. J. Cramer,  A. E. DePrince, III,  R. A. DiStasio Jr.,  A. Dreuw,  
 B. D. Dunietz,  T. R. Furlani,  W. A. Goddard III,  S. Grimme,  
 S. Hammes-Schiffer,  T. Head-Gordon,  W. J. Hehre,  Chao-Ping Hsu,  
 T.-C. Jagau,  Yousung Jung,  A. Klamt,  Jing Kong,  D. S. Lambrecht,  
 WanZhen Liang,  N. J. Mayhall,  C. W. McCurdy,  J. B. Neaton,  
 C. Ochsenfeld,  J. A. Parkhill,  R. Peverati,  V. A. Rassolov,  Yihan Shao,  
 L. V. Slipchenko,  T. Stauch,  R. P. Steele,  J. E. Subotnik,  
 A. J. W. Thom,  A. Tkatchenko,  D. G. Truhlar,  T. Van Voorhis,  
 T. A. Wesolowski,  K. B. Whaley,  H. L. Woodcock III,  P. M. Zimmerman,  
 S. Faraji,  P. M. W. Gill,  M. Head-Gordon,  J. M. Herbert,  A. I. Krylov

 Additional authors for Version 5.4.1: 
 S. Kotaru,  Shaozhi Li,  Xiangyuan Li,  F. Matz,  A. Molle,  Haisheng Ren,  
 Yingli Su,  Hung-Yi Tsai,  C. Utku,  Fang Wang

 Contributors to earlier versions of Q-Chem not listed above: 
 R. D. Adamson,  B. Austin,  R. Baer,  J. Baker,  G. J. O. Beran,  
 K. Brandhorst,  S. T. Brown,  E. F. C. Byrd,  A. K. Chakraborty,  
 G. K. L. Chan,  Chun-Min Chang,  Yunqing Chen,  C.-L. Cheng,  
 Siu Hung Chien,  D. M. Chipman,  D. L. Crittenden,  H. Dachsel,  
 R. J. Doerksen,  A. D. Dutoi,  R. G. Edgar,  J. Fosso-Tande,  
 L. Fusti-Molnar,  D. Ghosh,  A. Ghysels,  A. Golubeva-Zadorozhnaya,  
 J. Gonthier,  M. S. Gordon,  S. R. Gwaltney,  G. Hawkins,  J. E. Herr,  
 A. Heyden,  S. Hirata,  E. G. Hohenstein,  G. Kedziora,  F. J. Keil,  
 C. Kelley,  Jihan Kim,  R. A. King,  R. Z. Khaliullin,  P. P. Korambath,  
 W. Kurlancheek,  A. Laurent,  A. M. Lee,  M. S. Lee,  S. V. Levchenko,  
 Ching Yeh Lin,  D. Liotard,  E. Livshits,  R. C. Lochan,  I. Lotan,  
 L. A. Martinez-Martinez,  P. E. Maslen,  N. Nair,  D. P. O'Neill,  
 D. Neuhauser,  E. Neuscamman,  C. M. Oana,  R. Olivares-Amaya,  R. Olson,  
 T. M. Perrine,  B. Peters,  P. A. Pieniazek,  A. Prociuk,  Y. M. Rhee,  
 J. Ritchie,  M. A. Rohrdanz,  E. Rosta,  N. J. Russ,  H. F. Schaefer III,  
 M. W. Schmidt,  N. E. Schultz,  S. Sharma,  N. Shenvi,  C. D. Sherrill,  
 A. C. Simmonett,  A. Sodt,  T. Stein,  D. Stuck,  K. S. Thanthiriwatte,  
 V. Vanovschi,  L. Vogt,  Tao Wang,  A. Warshel,  M. A. Watson,  
 C. F. Williams,  Q. Wu,  X. Xu,  Jun Yang,  W. Zhang,  Yan Zhao

 Please cite Q-Chem as follows:
 Y. Shao et al., Mol. Phys. 113, 184-215 (2015)
 DOI: 10.1080/00268976.2014.952696

 Q-Chem 5.4.1 for Intel X86 EM64T Linux

 Parts of Q-Chem use Armadillo 9.900.5 (Nocturnal Misbehaviour).
 http://arma.sourceforge.net/

 Q-Chem begins on Sun Mar 27 21:19:59 2022  

 Host: node01
0

     Scratch files written to /src/jdavis/qchem.scratch/qchem8820//
 Processing $rem in /src/tsommerfeld/qchem/config/preferences:
 Processing $rem in /home/jdavis/.qchemrc:

 Checking the input file for inconsistencies... 	...done.

--------------------------------------------------------------
User input:
--------------------------------------------------------------
$molecule
0 1
C        -0.6645000000    0.0000000000   -0.2082049804
C         0.6645000000    0.0000000000   -0.2082049804
H        -1.1590800000    0.0000000000    0.7541440196
H         1.1590800000    0.0000000000    0.7541440196
H        -1.1590800000    0.0000000000   -1.1705529804
H         1.1590800000    0.0000000000   -1.1705529804
$end

$rem
   METHOD adc(3)
   BASIS gen
   PURECART 11
   EA_STATES [0,0,10,0,0,0,0,0]
   scf_convergence 8
   ADC_DAVIDSON_MAXITER 120
   ADC_DAVIDSON_MAXSUBSPACE 200
   adc_nguess_singles 100
   THRESH 14
   S2THRESH 14
   adc_davidson_conv 5
   adc_davidson_thresh 14
   THREADS 10
   MEM_TOTAL 95000
   STATE_ANALYSIS TRUE
$end
$basis
C 1
S   9   1.00
      6.665000D+03           6.920000D-04
      1.000000D+03           5.329000D-03
      2.280000D+02           2.707700D-02
      6.471000D+01           1.017180D-01
      2.106000D+01           2.747400D-01
      7.495000D+00           4.485640D-01
      2.797000D+00           2.850740D-01
      5.215000D-01           1.520400D-02
      1.596000D-01          -3.191000D-03
S   9   1.00
      6.665000D+03          -1.460000D-04
      1.000000D+03          -1.154000D-03
      2.280000D+02          -5.725000D-03
      6.471000D+01          -2.331200D-02
      2.106000D+01          -6.395500D-02
      7.495000D+00          -1.499810D-01
      2.797000D+00          -1.272620D-01
      5.215000D-01           5.445290D-01
      1.596000D-01           5.804960D-01
S   1   1.00
      1.596000D-01           1.000000D+00
S   1   1.00
      0.0469000              1.0000000
P   4   1.00
      9.439000D+00           3.810900D-02
      2.002000D+00           2.094800D-01
      5.456000D-01           5.085570D-01
      1.517000D-01           4.688420D-01
P   1   1.00
      1.517000D-01           1.000000D+00
P   1   1.00
      0.0387678      1.0000000
P   1   1.00
      0.0193839      1.0000000
D   1   1.00
      5.500000D-01           1.0000000
****
C 2
S   9   1.00
      6.665000D+03           6.920000D-04
      1.000000D+03           5.329000D-03
      2.280000D+02           2.707700D-02
      6.471000D+01           1.017180D-01
      2.106000D+01           2.747400D-01
      7.495000D+00           4.485640D-01
      2.797000D+00           2.850740D-01
      5.215000D-01           1.520400D-02
      1.596000D-01          -3.191000D-03
S   9   1.00
      6.665000D+03          -1.460000D-04
      1.000000D+03          -1.154000D-03
      2.280000D+02          -5.725000D-03
      6.471000D+01          -2.331200D-02
      2.106000D+01          -6.395500D-02
      7.495000D+00          -1.499810D-01
      2.797000D+00          -1.272620D-01
      5.215000D-01           5.445290D-01
      1.596000D-01           5.804960D-01
S   1   1.00
      1.596000D-01           1.000000D+00
S   1   1.00
      0.0469000              1.0000000
P   4   1.00
      9.439000D+00           3.810900D-02
      2.002000D+00           2.094800D-01
      5.456000D-01           5.085570D-01
      1.517000D-01           4.688420D-01
P   1   1.00
      1.517000D-01           1.000000D+00
P   1   1.00
      0.0387678      1.0000000
P   1   1.00
      0.0193839      1.0000000
D   1   1.00
      5.500000D-01           1.0000000
****
H 3
cc-pVDZ
****
H 4
cc-pVDZ
****
H 5
cc-pVDZ
****
H 6
cc-pVDZ
****
H 7
aug-cc-pVDZ
****
$end
--------------------------------------------------------------
 Atom   2: ( -0.6645000000, -0.0000001250,  0.0000000000)
         ->( -0.6645000000,  0.0000001250, -0.0000000000)
 Atom   1: (  0.6645000000, -0.0000001250, -0.0000000000)
         ->(  0.6645000000,  0.0000000000,  0.0000000000)
 Atom   6: ( -1.1590800000, -0.9623481250, -0.0000000000)
         ->( -1.1590800000, -0.9623488750,  0.0000000000)
 Atom   5: (  1.1590800000, -0.9623481250, -0.0000000000)
         ->(  1.1590800000, -0.9623488750, -0.0000000000)
 ----------------------------------------------------------------
             Standard Nuclear Orientation (Angstroms)
    I     Atom           X                Y                Z
 ----------------------------------------------------------------
    1      C       0.6645000000     0.0000000000     0.0000000000
    2      C      -0.6645000000     0.0000001250    -0.0000000000
    3      H       1.1590800000     0.9623488750     0.0000000000
    4      H      -1.1590800000     0.9623488750     0.0000000000
    5      H       1.1590800000    -0.9623488750    -0.0000000000
    6      H      -1.1590800000    -0.9623488750     0.0000000000
 ----------------------------------------------------------------
 Molecular Point Group                 D2h   NOp =  8
 Largest Abelian Subgroup              D2h   NOp =  8
 Nuclear Repulsion Energy =          33.58921667 hartrees
 There are        8 alpha and        8 beta electrons
 Requested basis set is non-standard
 There are 30 shells and 62 basis functions
 Total memory of 95000 MB is distributed as follows: 
   MEM_STATIC is set to 192 MB
   QALLOC/CCMAN JOB total memory use is  94808 MB
 Warning: actual memory use might exceed 95000 MB

 Total QAlloc Memory Limit  95000 MB
 Mega-Array Size       188 MB
 MEM_STATIC part       192 MB

                       Distance Matrix (Angstroms)
             C (  1)   C (  2)   H (  3)   H (  4)   H (  5)
   C (  2)  1.329000
   H (  3)  1.082000  2.061931
   H (  4)  2.061931  1.082000  2.318160
   H (  5)  1.082000  2.061931  1.924698  3.013026
   H (  6)  2.061931  1.082000  3.013026  1.924698  2.318160
 
 A cutoff of  1.0D-14 yielded    465 shell pairs
 There are      2009 function pairs (      2146 Cartesian)
 Smallest overlap matrix eigenvalue = 3.40E-04

 Scale SEOQF with 1.000000e-01/1.000000e-01/1.000000e-01

 Standard Electronic Orientation quadrupole field applied
 Nucleus-field energy     =     0.0000000006 hartrees
 ================ Generating on-the-fly SAD Guess ================
Attempting to make child job directory: /src/jdavis/qchem.scratch/qchem8820//Frg1/
Attempting to make child job directory: /src/jdavis/qchem.scratch/qchem8820//Frg2/
Creating input file /src/jdavis/qchem.scratch/qchem8820/Frg1.input
using default PutDataFrgm: nothing
calling putenv with: QCSCRATCH=/src/jdavis/qchem.scratch/qchem8820/ 
Spawning Job For Fragment 0
Done Job For Fragment 0
calling putenv with: QCSCRATCH=/src/jdavis/qchem.scratch 
calling putenv with: QCTHREADS=8 
Creating input file /src/jdavis/qchem.scratch/qchem8820/Frg2.input
using default PutDataFrgm: nothing
calling putenv with: QCSCRATCH=/src/jdavis/qchem.scratch/qchem8820/ 
Spawning Job For Fragment 1
Done Job For Fragment 1
calling putenv with: QCSCRATCH=/src/jdavis/qchem.scratch 
calling putenv with: QCTHREADS=8 
 Time for running child jobs:  CPU 1.77 s  wall 55.49 s
 ============= Method Specific SAD Guess Constructed =============
 Guess from on-the-fly superposition of atomic densities
 Warning: Energy on first SCF cycle will be non-variational
 A restricted Hartree-Fock SCF calculation will be
 performed using Pulay DIIS extrapolation
 SCF converges when DIIS error is below 1.0E-08
 using 10 threads for integral computing
 -------------------------------------------------------
 OpenMP Integral computing Module                
 Release: version 1.0, May 2013, Q-Chem Inc. Pittsburgh 
 -------------------------------------------------------
 ---------------------------------------
  Cycle       Energy         DIIS Error
 ---------------------------------------
    1     -78.4570106838      7.95E-02
    2     -78.0142877054      5.77E-03
    3     -78.0356390702      1.51E-03
    4     -78.0372725187      5.02E-04
    5     -78.0374434333      5.99E-05
    6     -78.0374482012      1.25E-05
    7     -78.0374485429      2.94E-06
    8     -78.0374485867      2.66E-07
    9     -78.0374485906      3.16E-08
   10     -78.0374485909      3.48E-09 Convergence criterion met
 ---------------------------------------
 SCF time:  CPU 8.71 s  wall 0.87 s
 SCF   energy in the final basis set = -78.03744859
 Total energy in the final basis set = -78.03744859
================================================================================
|                                                                              |
|                                 A D C  M A N                                 |
|                                                                              |
 ------------------------------------------------------------------------------ 
|                                                                              |
| Components:                                                                  |
|                                                                              |
| - libvmm - 1.3-trunk                                                         |
|   Authors:                                                                   |
|   Evgeny Epifanovsky, Ilya Kaliman                                           |
|                                                                              |
| - libtensor - 2.5-trunk                                                      |
|   Authors:                                                                   |
|   Evgeny Epifanovsky, Michael Wormit, Dmitry Zuev, Sam Manzer,               |
|   Ilya Kaliman                                                               |
|                                                                              |
| - libwfa - 1.1-trunk                                                         |
|   Authors:                                                                   |
|   Felix Plasser, Stefanie Mewes (Baeppler), Benjamin Thomitzni,              |
|   Michael Wormit, Feng Chen, Anna I. Krylov, Pavel Pokhilko                  |
|                                                                              |
| - libadc - 1.1-trunk                                                         |
|   Authors:                                                                   |
|   Michael Wormit, Adrian L. Dempwolff, Philipp H. P. Harbach,                |
|   Caroline Krauter, Dirk Rehn, Matthias Schneider, Jan Wenzel                |
|                                                                              |
| - adcman - 2.6-trunk                                                         |
|   Authors:                                                                   |
|   Michael Wormit, Adrian L. Dempwolff, Philipp H. P. Harbach,                |
|   Caroline Krauter, Daniel Lefrancois, Jan-Michael Mewes, Dirk Rehn,         |
|   Matthias Schneider, Jan Wenzel, Andreas Dreuw                              |
|                                                                              |
| Authors of earlier versions of ADCMAN:                                       |
| Andreas Dreuw, Jan Hendrik Starcke, Dirk Rehn, Michael Wormit                |
|                                                                              |
================================================================================

 
 Alpha MOs, Restricted
 -- Occupied --                  
-11.237 -11.235  -1.042  -0.782  -0.661  -0.567  -0.515  -0.377
  1 Ag    1 B3u   2 Ag    2 B3u   1 B2u   3 Ag    1 B1g   1 B1u                
 -- Virtual --                   
  0.037   0.039   0.044   0.056   0.057   0.061   0.098   0.127
  3 B3u   2 B2u   2 B1u   2 B1g   1 B2g   4 Ag    5 Ag    2 B2g                
  0.128   0.160   0.178   0.184   0.198   0.260   0.266   0.292
  4 B3u   3 B2u   3 B1g   3 B1u   6 Ag    3 B2g   7 Ag    5 B3u                
  0.338   0.348   0.458   0.506   0.682   0.765   0.860   0.862
  4 B2u   6 B3u   4 B1g   7 B3u   8 Ag    5 B2u   9 Ag    4 B1u                
  0.899   0.920   0.931   0.988   1.026   1.043   1.114   1.283
  6 B2u   4 B2g   8 B3u   9 B3u  10 Ag    5 B1g   1 B3g   5 B1u                
  1.284   1.325   1.346   1.606   1.615   1.697   1.848   1.916
  1 Au   10 B3u   6 B1g  11 Ag    7 B1g   7 B2u   5 B2g  11 B3u                
  1.938   1.979   2.017   2.038   2.171   2.277   2.412   2.440
  6 B1u  12 Ag    2 B3g   8 B2u   6 B2g  12 B3u   2 Au   13 Ag                 
  2.544   2.573   2.799   2.800   3.261   3.340
  8 B1g  13 B3u  14 Ag    9 B2u  14 B3u   9 B1g                                
 
 Beta MOs, Restricted
 -- Occupied --                  
-11.237 -11.235  -1.042  -0.782  -0.661  -0.567  -0.515  -0.377
  1 Ag    1 B3u   2 Ag    2 B3u   1 B2u   3 Ag    1 B1g   1 B1u                
 -- Virtual --                   
  0.037   0.039   0.044   0.056   0.057   0.061   0.098   0.127
  3 B3u   2 B2u   2 B1u   2 B1g   1 B2g   4 Ag    5 Ag    2 B2g                
  0.128   0.160   0.178   0.184   0.198   0.260   0.266   0.292
  4 B3u   3 B2u   3 B1g   3 B1u   6 Ag    3 B2g   7 Ag    5 B3u                
  0.338   0.348   0.458   0.506   0.682   0.765   0.860   0.862
  4 B2u   6 B3u   4 B1g   7 B3u   8 Ag    5 B2u   9 Ag    4 B1u                
  0.899   0.920   0.931   0.988   1.026   1.043   1.114   1.283
  6 B2u   4 B2g   8 B3u   9 B3u  10 Ag    5 B1g   1 B3g   5 B1u                
  1.284   1.325   1.346   1.606   1.615   1.697   1.848   1.916
  1 Au   10 B3u   6 B1g  11 Ag    7 B1g   7 B2u   5 B2g  11 B3u                
  1.938   1.979   2.017   2.038   2.171   2.277   2.412   2.440
  6 B1u  12 Ag    2 B3g   8 B2u   6 B2g  12 B3u   2 Au   13 Ag                 
  2.544   2.573   2.799   2.800   3.261   3.340
  8 B1g  13 B3u  14 Ag    9 B2u  14 B3u   9 B1g                                

--------------------------------------------------------------------------------
                                   HF Summary                                   
--------------------------------------------------------------------------------
  Energy:                                                  -78.0374485909 a.u.
  Dip. moment [a.u.]:                  [   0.000000,   -0.000001,   -0.000000]
  Total dipole [Debye]:                                               0.000001
  <r^2> [a.u.]:                        [  47.731607,   22.121187,   11.983685]
  Total <r^2> [a.u.]:                                                81.836479
--------------------------------------------------------------------------------

--------------------------------------------------------------------------------
                                 MP(2) Summary                                  
--------------------------------------------------------------------------------
  MP energy contribution:                                   -0.2816526335 a.u.
  Total energy:                                            -78.3191012244 a.u.
  Dip. moment [a.u.]:                  [   0.000000,   -0.000000,    0.000000]
  Total dipole [Debye]:                                               0.000001
  <r^2> [a.u.]:                        [  47.839927,   22.153466,   11.838141]
  Total <r^2> [a.u.]:                                                81.831535

  Density matrix analysis:
  ------------------------
  NOs (alpha)
    Occupation of frontier NOs:
       0.0223   0.9686
    Number of electrons:  8.000000
  NOs (beta)
    Occupation of frontier NOs:
       0.0223   0.9686
    Number of electrons:  8.000000
  NOs (spin-traced)
    Occupation of frontier NOs:
       0.0446   1.9372
    Number of electrons: 16.000000
    Number of unpaired electrons: n_u =  0.40857, n_u,nl =  0.04589
    NO participation ratio (PR_NO): 13.957890
  
  
  Mulliken Population Analysis
  Atom  Charge (e)    Spin (e)  h+ (alpha)   h+ (beta)  e- (alpha)   e- (beta)
  ----------------------------------------------------------------------------
   1 C   -0.165117   -0.000000    0.043950    0.043950   -0.051023   -0.051023
   2 C   -0.165117    0.000000    0.043950    0.043950   -0.051023   -0.051023
   3 H    0.082558    0.000000    0.008774    0.008774   -0.005237   -0.005237
   4 H    0.082561   -0.000000    0.008774    0.008774   -0.005237   -0.005237
   5 H    0.082559    0.000000    0.008774    0.008774   -0.005237   -0.005237
   6 H    0.082556    0.000000    0.008774    0.008774   -0.005237   -0.005237
  ----------------------------------------------------------------------------
  Sum:    0.000000    0.000000    0.122995    0.122995   -0.122995   -0.122995
  
  Multipole moment analysis of the density matrix
    Molecular charge:                      0.000000
    Number of electrons:                   16.000000
      Center of electronic charge [Ang]: [ -0.000000,   0.000000,  -0.000000]
    Total nuclear charge:                  16.000000
      Center of nuclear charge [Ang]:    [  0.000000,   0.000000,   0.000000]
    Dipole moment [D]:                     0.000001
      Cartesian components [D]:          [  0.000000,  -0.000001,   0.000000]
    RMS size of the density [Ang]:         1.196745
      Cartesian components [Ang]:        [  0.915032,   0.622676,   0.455180]
  
  Exciton analysis of the difference density matrix
  Total:
    <r_h> [Ang]:                  [ -0.000000,   0.000000,   0.000000]
    <r_e> [Ang]:                  [ -0.000000,  -0.000000,  -0.000000]
    |<r_e - r_h>| [Ang]:            0.000000
    Hole size [Ang]:                1.422783
      Cartesian components [Ang]: [  0.968221,   0.728251,   0.745996]
    Electron size [Ang]:            1.420804
      Cartesian components [Ang]: [  1.029933,   0.753058,   0.625161]
  
  Alpha spin:
    <r_h> [Ang]:                  [ -0.000000,   0.000000,   0.000000]
    <r_e> [Ang]:                  [ -0.000000,  -0.000000,  -0.000000]
    |<r_e - r_h>| [Ang]:            0.000000
    Hole size [Ang]:                1.422783
      Cartesian components [Ang]: [  0.968221,   0.728251,   0.745996]
    Electron size [Ang]:            1.420804
      Cartesian components [Ang]: [  1.029933,   0.753058,   0.625161]
  
  Beta spin:
    <r_h> [Ang]:                  [ -0.000000,   0.000000,   0.000000]
    <r_e> [Ang]:                  [ -0.000000,  -0.000000,  -0.000000]
    |<r_e - r_h>| [Ang]:            0.000000
    Hole size [Ang]:                1.422783
      Cartesian components [Ang]: [  0.968221,   0.728251,   0.745996]
    Electron size [Ang]:            1.420804
      Cartesian components [Ang]: [  1.029933,   0.753058,   0.625161]
--------------------------------------------------------------------------------

--------------------------------------------------------------------------------
                                 MP(3) Summary                                  
--------------------------------------------------------------------------------
  MP energy contribution:                                   -0.0245320415 a.u.
  Total energy:                                            -78.3436332659 a.u.
--------------------------------------------------------------------------------
Less particle guess vectors found than requested: 6 (found), 100 (requested).
Adjusting number of hole-2particle guess vectors to 94.
  Starting Davidson for electron-attached states of irrep B2g ... 
--------------------------------------------------------------------------------
   It NVec Conv  Avg. Norm  Max. Norm  Conv. states           Remark
--------------------------------------------------------------------------------
       100    0  3.877e-02  2.655e-01  0.0570 n n n n n n n n Guess.
    1  110    0  7.578e-03  4.110e-02  0.0552 n n n n n n n n 
    2  120    0  3.395e-03  2.932e-02  0.0551 n n n n n n n n 
    3  130    0  8.327e-04  7.275e-03  0.0551 n n n n n n n n 
    4  140    0  2.783e-04  2.599e-03  0.0551 n n n n n n n n 
    5  150    0  7.781e-05  7.354e-04  0.0551 n n n n n n n n 
    6  160    1  2.012e-05  1.903e-04  0.0551 y n n n n n n n 
    7  170    9  5.946e-06  5.753e-05  0.0551 y y y y y y y y 
    8  180    9  1.948e-06  1.912e-05  0.0551 y y y y y y y y 
    9  190   10  5.484e-07  5.412e-06  0.0551 y y y y y y y y Converged.
--------------------------------------------------------------------------------
  Davidson Summary: 
 ------------------------------------------------------------
  State  0: electron attachment energy =   0.0551 a.u.   (converged)
  State  1: electron attachment energy =   0.1000 a.u.   (converged)
  State  2: electron attachment energy =   0.1812 a.u.   (converged)
  State  3: electron attachment energy =   0.2256 a.u.   (converged)
  State  4: electron attachment energy =   0.2904 a.u.   (converged)
  State  5: electron attachment energy =   0.3009 a.u.   (converged)
  State  6: electron attachment energy =   0.3130 a.u.   (converged)
  State  7: electron attachment energy =   0.3186 a.u.   (converged)
  State  8: electron attachment energy =   0.3294 a.u.   (converged)
  State  9: electron attachment energy =   0.3349 a.u.   (converged)
 ------------------------------------------------------------


--------------------------------------------------------------------------------
                        Electron-Attached State Summary
--------------------------------------------------------------------------------

  Electron-attached state 1 (B2g)                                  [converged]
  ----------------------------------------------------------------------------
  Term symbol:  1 (2) B2g                                   R^2 =  1.24468e-08

  Total energy:                                            -78.2885084015 a.u.
  Electron attachment energy:                                      1.500024 eV

  Pole strength:                                                      0.992693

  Dip. moment [a.u.]:                  [   0.000000,   -0.000000,    0.000000]
  Total dipole [Debye]:                                               0.000001
  <r^2> [a.u.]:                        [  92.033907,   36.776175,   55.320813]
  Total <r^2> [a.u.]:                                               184.130895

  V1^2 = 0.9937, V2^2 = 0.0063

  Important amplitudes:
       occ i       vir a        vir b           v   
    -------------------------------------------------
                               1 (B2g) B     -0.9918
                               2 (B2g) B      0.0960
    -------------------------------------------------

  Density matrix analysis:
  ------------------------
  NOs (alpha)
    Occupation of frontier NOs:
       0.0220   0.9672
    Number of electrons:  8.000000
  NOs (beta)
    Occupation of frontier NOs:
       0.0246   0.9677
    Number of electrons:  9.000000
  NOs (spin-traced)
    Occupation of frontier NOs:
       0.0456   0.9952
    Number of electrons: 17.000000
    Number of unpaired electrons: n_u =  1.41676, n_u,nl =  1.04803
    NO participation ratio (PR_NO):  2.001120
  
  
  Mulliken Population Analysis
  Atom  Charge (e)    Spin (e)  h+ (alpha)   h+ (beta)  e- (alpha)   e- (beta)
  ----------------------------------------------------------------------------
   1 C   -0.652243    0.506308    0.011741    0.012488   -0.002151   -0.509205
   2 C   -0.652243    0.506308    0.011741    0.012488   -0.002151   -0.509205
   3 H    0.076121   -0.003154   -0.000259    0.000741   -0.004537   -0.002382
   4 H    0.076124   -0.003154   -0.000259    0.000741   -0.004537   -0.002382
   5 H    0.076122   -0.003154   -0.000259    0.000741   -0.004537   -0.002382
   6 H    0.076119   -0.003154   -0.000259    0.000741   -0.004537   -0.002382
  ----------------------------------------------------------------------------
  Sum:   -1.000000    1.000000    0.022448    0.027938   -0.022448   -1.027938
  
  Multipole moment analysis of the density matrix
    Molecular charge:                      -1.000000
    Number of electrons:                   17.000000
      Center of electronic charge [Ang]: [ -0.000000,   0.000000,  -0.000000]
    Total nuclear charge:                  16.000000
      Center of nuclear charge [Ang]:    [  0.000000,   0.000000,   0.000000]
    Dipole moment [D]:                     0.000001
      Cartesian components [D]:          [  0.000000,  -0.000001,   0.000000]
    RMS size of the density [Ang]:         1.741566
      Cartesian components [Ang]:        [  1.231262,   0.778323,   0.954599]
  
  Exciton analysis of the difference density matrix
  Total:
    <r_h> [Ang]:                  [  0.000000,   0.000000,   0.000000]
    <r_e> [Ang]:                  [ -0.000000,   0.000000,  -0.000000]
    |<r_e - r_h>| [Ang]:            0.000000
    Hole size [Ang]:                2.197029
      Cartesian components [Ang]: [  1.326540,   1.094221,   1.367445]
    Electron size [Ang]:            5.244438
      Cartesian components [Ang]: [  3.444756,   1.988916,   3.417894]
  
  Alpha spin:
    <r_h> [Ang]:                  [  0.000000,   0.000000,   0.000000]
    <r_e> [Ang]:                  [ -0.000000,   0.000000,  -0.000000]
    |<r_e - r_h>| [Ang]:            0.000000
    Hole size [Ang]:                1.911876
      Cartesian components [Ang]: [  1.202735,   0.985086,   1.112792]
    Electron size [Ang]:            2.533140
      Cartesian components [Ang]: [  1.469913,   1.438755,   1.478560]
  
  Beta spin:
    <r_h> [Ang]:                  [  0.000000,   0.000000,   0.000000]
    <r_e> [Ang]:                  [ -0.000000,   0.000000,  -0.000000]
    |<r_e - r_h>| [Ang]:            0.000000
    Hole size [Ang]:                2.401744
      Cartesian components [Ang]: [  1.418209,   1.174588,   1.541883]
    Electron size [Ang]:            5.288160
      Cartesian components [Ang]: [  3.475385,   1.999242,   3.448097]
  ----------------------------------------------------------------------------


  Electron-attached state 2 (B2g)                                  [converged]
  ----------------------------------------------------------------------------
  Term symbol:  2 (2) B2g                                   R^2 =  7.31230e-08

  Total energy:                                            -78.2436199205 a.u.
  Electron attachment energy:                                      2.721502 eV

  Pole strength:                                                      0.919606

  Dip. moment [a.u.]:                  [   0.000000,   -0.000000,   -0.000000]
  Total dipole [Debye]:                                               0.000001
  <r^2> [a.u.]:                        [  65.209204,   28.843984,   28.617404]
  Total <r^2> [a.u.]:                                               122.670592

  V1^2 = 0.9314, V2^2 = 0.0686

  Important amplitudes:
       occ i       vir a        vir b           v   
    -------------------------------------------------
                               2 (B2g) B     -0.9429
                               3 (B2g) B     -0.1689
    -------------------------------------------------

  Density matrix analysis:
  ------------------------
  NOs (alpha)
    Occupation of frontier NOs:
       0.0212   0.9568
    Number of electrons:  8.000000
  NOs (beta)
    Occupation of frontier NOs:
       0.0258   0.9687
    Number of electrons:  9.000000
  NOs (spin-traced)
    Occupation of frontier NOs:
       0.0344   0.9815
    Number of electrons: 17.000000
    Number of unpaired electrons: n_u =  1.44726, n_u,nl =  1.05405
    NO participation ratio (PR_NO):  2.142312
  
  
  Mulliken Population Analysis
  Atom  Charge (e)    Spin (e)  h+ (alpha)   h+ (beta)  e- (alpha)   e- (beta)
  ----------------------------------------------------------------------------
   1 C   -0.553969    0.547377    0.131887    0.081270   -0.052624   -0.549385
   2 C   -0.553969    0.547377    0.131887    0.081270   -0.052624   -0.549385
   3 H    0.026984   -0.023688    0.001288    0.008096   -0.040919   -0.024039
   4 H    0.026987   -0.023688    0.001288    0.008096   -0.040920   -0.024039
   5 H    0.026984   -0.023688    0.001288    0.008096   -0.040920   -0.024039
   6 H    0.026982   -0.023688    0.001288    0.008096   -0.040920   -0.024039
  ----------------------------------------------------------------------------
  Sum:   -1.000000    1.000000    0.268927    0.194926   -0.268927   -1.194926
  
  Multipole moment analysis of the density matrix
    Molecular charge:                      -1.000000
    Number of electrons:                   17.000000
      Center of electronic charge [Ang]: [ -0.000000,   0.000000,   0.000000]
    Total nuclear charge:                  16.000000
      Center of nuclear charge [Ang]:    [  0.000000,   0.000000,   0.000000]
    Dipole moment [D]:                     0.000001
      Cartesian components [D]:          [  0.000000,  -0.000001,  -0.000000]
    RMS size of the density [Ang]:         1.421500
      Cartesian components [Ang]:        [  1.036409,   0.689294,   0.686581]
  
  Exciton analysis of the difference density matrix
  Total:
    <r_h> [Ang]:                  [  0.000000,   0.000000,  -0.000000]
    <r_e> [Ang]:                  [  0.000000,   0.000000,   0.000000]
    |<r_e - r_h>| [Ang]:            0.000000
    Hole size [Ang]:                1.908313
      Cartesian components [Ang]: [  1.205850,   0.952408,   1.131594]
    Electron size [Ang]:            2.994372
      Cartesian components [Ang]: [  1.945101,   1.251916,   1.901461]
  
  Alpha spin:
    <r_h> [Ang]:                  [  0.000000,   0.000000,  -0.000000]
    <r_e> [Ang]:                  [  0.000000,   0.000000,  -0.000000]
    |<r_e - r_h>| [Ang]:            0.000000
    Hole size [Ang]:                1.908998
      Cartesian components [Ang]: [  1.187197,   0.937598,   1.164366]
    Electron size [Ang]:            2.656002
      Cartesian components [Ang]: [  1.549444,   1.401100,   1.640271]
  
  Beta spin:
    <r_h> [Ang]:                  [  0.000000,   0.000000,  -0.000000]
    <r_e> [Ang]:                  [  0.000000,   0.000000,   0.000000]
    |<r_e - r_h>| [Ang]:            0.000000
    Hole size [Ang]:                1.907368
      Cartesian components [Ang]: [  1.231120,   0.972469,   1.084758]
    Electron size [Ang]:            3.065380
      Cartesian components [Ang]: [  2.023510,   1.215820,   1.955440]
  ----------------------------------------------------------------------------


  Electron-attached state 3 (B2g)                                  [converged]
  ----------------------------------------------------------------------------
  Term symbol:  3 (2) B2g                                   R^2 =  7.98719e-08

  Total energy:                                            -78.1624171828 a.u.
  Electron attachment energy:                                      4.931140 eV

  Pole strength:                                                      0.049234

  Dip. moment [a.u.]:                  [  -0.000000,   -0.000000,   -0.000000]
  Total dipole [Debye]:                                               0.000001
  <r^2> [a.u.]:                        [  69.271553,   40.297084,   66.063192]
  Total <r^2> [a.u.]:                                               175.631829

  V1^2 = 0.0492, V2^2 = 0.9508

  Important amplitudes:
       occ i       vir a        vir b           v   
    -------------------------------------------------
     1 (B1u) A    2 (B1u) A    2 (B2g) B     -0.4535
     1 (B1u) A    2 (B1u) A    3 (B2g) B     -0.2997
    -------------------------------------------------

  Density matrix analysis:
  ------------------------
  NOs (alpha)
    Occupation of frontier NOs:
       0.1847   0.6369
    Number of electrons:  8.000000
  NOs (beta)
    Occupation of frontier NOs:
       0.3155   0.8028
    Number of electrons:  9.000000
  NOs (spin-traced)
    Occupation of frontier NOs:
       0.8995   0.9873
    Number of electrons: 17.000000
    Number of unpaired electrons: n_u =  3.20928, n_u,nl =  3.01033
    NO participation ratio (PR_NO):  3.803976
  
  
  Mulliken Population Analysis
  Atom  Charge (e)    Spin (e)  h+ (alpha)   h+ (beta)  e- (alpha)   e- (beta)
  ----------------------------------------------------------------------------
   1 C   -0.657313    0.490096    0.396797    0.077254   -0.397848   -0.568400
   2 C   -0.657313    0.490096    0.396797    0.077254   -0.397848   -0.568400
   3 H    0.078656    0.004952    0.002124    0.000554   -0.001599   -0.004981
   4 H    0.078659    0.004952    0.002124    0.000554   -0.001599   -0.004981
   5 H    0.078657    0.004952    0.002124    0.000554   -0.001599   -0.004981
   6 H    0.078654    0.004952    0.002124    0.000554   -0.001599   -0.004981
  ----------------------------------------------------------------------------
  Sum:   -1.000000    1.000000    0.802090    0.156725   -0.802090   -1.156725
  
  Multipole moment analysis of the density matrix
    Molecular charge:                      -1.000000
    Number of electrons:                   17.000000
      Center of electronic charge [Ang]: [  0.000000,   0.000000,   0.000000]
    Total nuclear charge:                  16.000000
      Center of nuclear charge [Ang]:    [  0.000000,   0.000000,   0.000000]
    Dipole moment [D]:                     0.000001
      Cartesian components [D]:          [ -0.000000,  -0.000001,  -0.000000]
    RMS size of the density [Ang]:         1.700898
      Cartesian components [Ang]:        [  1.068204,   0.814730,   1.043173]
  
  Exciton analysis of the difference density matrix
  Total:
    <r_h> [Ang]:                  [ -0.000000,   0.000000,   0.000000]
    <r_e> [Ang]:                  [  0.000000,   0.000000,   0.000000]
    |<r_e - r_h>| [Ang]:            0.000000
    Hole size [Ang]:                1.279355
      Cartesian components [Ang]: [  0.760762,   0.526197,   0.883804]
    Electron size [Ang]:            3.769706
      Cartesian components [Ang]: [  1.829514,   1.652062,   2.852061]
  
  Alpha spin:
    <r_h> [Ang]:                  [ -0.000000,   0.000000,   0.000000]
    <r_e> [Ang]:                  [  0.000000,   0.000000,   0.000000]
    |<r_e - r_h>| [Ang]:            0.000000
    Hole size [Ang]:                1.276166
      Cartesian components [Ang]: [  0.757844,   0.523585,   0.883250]
    Electron size [Ang]:            4.599416
      Cartesian components [Ang]: [  2.118199,   2.043516,   3.534389]
  
  Beta spin:
    <r_h> [Ang]:                  [  0.000000,   0.000000,  -0.000000]
    <r_e> [Ang]:                  [  0.000000,   0.000000,   0.000000]
    |<r_e - r_h>| [Ang]:            0.000000
    Hole size [Ang]:                1.295553
      Cartesian components [Ang]: [  0.775522,   0.539364,   0.886629]
    Electron size [Ang]:            3.065232
      Cartesian components [Ang]: [  1.599022,   1.313841,   2.261105]
  ----------------------------------------------------------------------------


  Electron-attached state 4 (B2g)                                  [converged]
  ----------------------------------------------------------------------------
  Term symbol:  4 (2) B2g                                   R^2 =  3.21522e-07

  Total energy:                                            -78.1180433225 a.u.
  Electron attachment energy:                                      6.138615 eV

  Pole strength:                                                      0.876021

  Dip. moment [a.u.]:                  [   0.000000,   -0.000000,   -0.000000]
  Total dipole [Debye]:                                               0.000001
  <r^2> [a.u.]:                        [  68.773453,   30.580705,   34.780932]
  Total <r^2> [a.u.]:                                               134.135090

  V1^2 = 0.8813, V2^2 = 0.1187

  Important amplitudes:
       occ i       vir a        vir b           v   
    -------------------------------------------------
                               3 (B2g) B      0.9167
                               2 (B2g) B     -0.1965
    -------------------------------------------------

  Density matrix analysis:
  ------------------------
  NOs (alpha)
    Occupation of frontier NOs:
       0.0481   0.9018
    Number of electrons:  8.000000
  NOs (beta)
    Occupation of frontier NOs:
       0.0843   0.8987
    Number of electrons:  9.000000
  NOs (spin-traced)
    Occupation of frontier NOs:
       0.1161   0.9087
    Number of electrons: 17.000000
    Number of unpaired electrons: n_u =  1.60449, n_u,nl =  1.15423
    NO participation ratio (PR_NO):  2.947436
  
  
  Mulliken Population Analysis
  Atom  Charge (e)    Spin (e)  h+ (alpha)   h+ (beta)  e- (alpha)   e- (beta)
  ----------------------------------------------------------------------------
   1 C   -0.575639    0.516983    0.108820    0.048483   -0.055590   -0.512235
   2 C   -0.575639    0.516983    0.108820    0.048483   -0.055590   -0.512235
   3 H    0.037819   -0.008491    0.000953    0.001754   -0.027568   -0.019878
   4 H    0.037822   -0.008491    0.000953    0.001754   -0.027568   -0.019878
   5 H    0.037820   -0.008491    0.000953    0.001754   -0.027568   -0.019878
   6 H    0.037817   -0.008491    0.000953    0.001754   -0.027568   -0.019878
  ----------------------------------------------------------------------------
  Sum:   -1.000000    1.000000    0.221452    0.103983   -0.221452   -1.103983
  
  Multipole moment analysis of the density matrix
    Molecular charge:                      -1.000000
    Number of electrons:                   17.000000
      Center of electronic charge [Ang]: [ -0.000000,   0.000000,   0.000000]
    Total nuclear charge:                  16.000000
      Center of nuclear charge [Ang]:    [  0.000000,   0.000000,   0.000000]
    Dipole moment [D]:                     0.000001
      Cartesian components [D]:          [  0.000000,  -0.000001,  -0.000000]
    RMS size of the density [Ang]:         1.486442
      Cartesian components [Ang]:        [  1.064356,   0.709742,   0.756915]
  
  Exciton analysis of the difference density matrix
  Total:
    <r_h> [Ang]:                  [  0.000000,   0.000000,  -0.000000]
    <r_e> [Ang]:                  [  0.000000,   0.000000,   0.000000]
    |<r_e - r_h>| [Ang]:            0.000000
    Hole size [Ang]:                1.966676
      Cartesian components [Ang]: [  1.188272,   0.962097,   1.237010]
    Electron size [Ang]:            3.464100
      Cartesian components [Ang]: [  2.183890,   1.416940,   2.285367]
  
  Alpha spin:
    <r_h> [Ang]:                  [  0.000000,   0.000000,  -0.000000]
    <r_e> [Ang]:                  [  0.000000,   0.000000,  -0.000000]
    |<r_e - r_h>| [Ang]:            0.000000
    Hole size [Ang]:                1.904581
      Cartesian components [Ang]: [  1.146167,   0.910677,   1.218358]
    Electron size [Ang]:            3.397788
      Cartesian components [Ang]: [  1.795780,   1.663022,   2.356798]
  
  Beta spin:
    <r_h> [Ang]:                  [  0.000000,   0.000000,   0.000000]
    <r_e> [Ang]:                  [  0.000000,   0.000000,   0.000000]
    |<r_e - r_h>| [Ang]:            0.000000
    Hole size [Ang]:                2.092789
      Cartesian components [Ang]: [  1.273312,   1.063350,   1.275825]
    Electron size [Ang]:            3.477250
      Cartesian components [Ang]: [  2.253708,   1.362235,   2.270767]
  ----------------------------------------------------------------------------


  Electron-attached state 5 (B2g)                                  [converged]
  ----------------------------------------------------------------------------
  Term symbol:  5 (2) B2g                                   R^2 =  1.93497e-07

  Total energy:                                            -78.0532457748 a.u.
  Electron attachment energy:                                      7.901845 eV

  Pole strength:                                                      0.001243

  Dip. moment [a.u.]:                  [   0.000000,   -0.000000,   -0.000000]
  Total dipole [Debye]:                                               0.000001
  <r^2> [a.u.]:                        [ 110.120924,   50.123665,   39.255013]
  Total <r^2> [a.u.]:                                               199.499602

  V1^2 = 0.0013, V2^2 = 0.9987

  Important amplitudes:
       occ i       vir a        vir b           v   
    -------------------------------------------------
     1 (B1u) A    3 (B3u) A    5 (Ag ) B      0.4502
     1 (B1u) B    5 (Ag ) B    3 (B3u) B     -0.3786
    -------------------------------------------------

  Density matrix analysis:
  ------------------------
  NOs (alpha)
    Occupation of frontier NOs:
       0.3539   0.4951
    Number of electrons:  8.000000
  NOs (beta)
    Occupation of frontier NOs:
       0.3824   0.5875
    Number of electrons:  9.000000
  NOs (spin-traced)
    Occupation of frontier NOs:
       0.8425   0.8737
    Number of electrons: 17.000000
    Number of unpaired electrons: n_u =  3.28656, n_u,nl =  3.00188
    NO participation ratio (PR_NO):  4.533576
  
  
  Mulliken Population Analysis
  Atom  Charge (e)    Spin (e)  h+ (alpha)   h+ (beta)  e- (alpha)   e- (beta)
  ----------------------------------------------------------------------------
   1 C   -0.732050    0.558039    0.304714    0.188871   -0.309161   -0.751357
   2 C   -0.732050    0.558039    0.304714    0.188871   -0.309161   -0.751357
   3 H    0.116025   -0.029020    0.001835    0.001100    0.000388    0.030144
   4 H    0.116027   -0.029019    0.001835    0.001100    0.000388    0.030143
   5 H    0.116025   -0.029019    0.001835    0.001100    0.000388    0.030143
   6 H    0.116023   -0.029020    0.001835    0.001100    0.000388    0.030144
  ----------------------------------------------------------------------------
  Sum:   -1.000000    1.000000    0.616769    0.382141   -0.616769   -1.382141
  
  Multipole moment analysis of the density matrix
    Molecular charge:                      -1.000000
    Number of electrons:                   17.000000
      Center of electronic charge [Ang]: [ -0.000000,   0.000000,   0.000000]
    Total nuclear charge:                  16.000000
      Center of nuclear charge [Ang]:    [  0.000000,   0.000000,   0.000000]
    Dipole moment [D]:                     0.000001
      Cartesian components [D]:          [  0.000000,  -0.000001,  -0.000000]
    RMS size of the density [Ang]:         1.812791
      Cartesian components [Ang]:        [  1.346826,   0.908653,   0.804126]
  
  Exciton analysis of the difference density matrix
  Total:
    <r_h> [Ang]:                  [ -0.000000,   0.000000,   0.000000]
    <r_e> [Ang]:                  [ -0.000000,   0.000000,   0.000000]
    |<r_e - r_h>| [Ang]:            0.000000
    Hole size [Ang]:                1.252593
      Cartesian components [Ang]: [  0.748533,   0.510895,   0.864682]
    Electron size [Ang]:            4.155510
      Cartesian components [Ang]: [  3.000830,   2.012163,   2.052920]
  
  Alpha spin:
    <r_h> [Ang]:                  [ -0.000000,   0.000000,   0.000000]
    <r_e> [Ang]:                  [ -0.000000,   0.000000,   0.000000]
    |<r_e - r_h>| [Ang]:            0.000000
    Hole size [Ang]:                1.250786
      Cartesian components [Ang]: [  0.747993,   0.510029,   0.863042]
    Electron size [Ang]:            5.038111
      Cartesian components [Ang]: [  3.820746,   2.324079,   2.320155]
  
  Beta spin:
    <r_h> [Ang]:                  [ -0.000000,   0.000000,   0.000000]
    <r_e> [Ang]:                  [ -0.000000,  -0.000000,  -0.000000]
    |<r_e - r_h>| [Ang]:            0.000000
    Hole size [Ang]:                1.255505
      Cartesian components [Ang]: [  0.749405,   0.512288,   0.867322]
    Electron size [Ang]:            3.694227
      Cartesian components [Ang]: [  2.551293,   1.856135,   1.921714]
  ----------------------------------------------------------------------------


  Electron-attached state 6 (B2g)                                  [converged]
  ----------------------------------------------------------------------------
  Term symbol:  6 (2) B2g                                   R^2 =  2.70562e-07

  Total energy:                                            -78.0427414009 a.u.
  Electron attachment energy:                                      8.187684 eV

  Pole strength:                                                      0.000442

  Dip. moment [a.u.]:                  [   0.000000,   -0.000000,    0.000000]
  Total dipole [Debye]:                                               0.000001
  <r^2> [a.u.]:                        [ 112.484953,   50.992895,   37.851498]
  Total <r^2> [a.u.]:                                               201.329347

  V1^2 = 0.0004, V2^2 = 0.9996

  Important amplitudes:
       occ i       vir a        vir b           v   
    -------------------------------------------------
     1 (B1u) A    5 (Ag ) A    3 (B3u) B      0.4603
     1 (B1u) B    5 (Ag ) B    3 (B3u) B      0.3271
    -------------------------------------------------

  Density matrix analysis:
  ------------------------
  NOs (alpha)
    Occupation of frontier NOs:
       0.2699   0.4951
    Number of electrons:  8.000000
  NOs (beta)
    Occupation of frontier NOs:
       0.3036   0.6714
    Number of electrons:  9.000000
  NOs (spin-traced)
    Occupation of frontier NOs:
       0.7851   0.8558
    Number of electrons: 17.000000
    Number of unpaired electrons: n_u =  3.28683, n_u,nl =  2.98920
    NO participation ratio (PR_NO):  4.763239
  
  
  Mulliken Population Analysis
  Atom  Charge (e)    Spin (e)  h+ (alpha)   h+ (beta)  e- (alpha)   e- (beta)
  ----------------------------------------------------------------------------
   1 C   -0.700106    0.487270    0.346801    0.147478   -0.370661   -0.658607
   2 C   -0.700106    0.487270    0.346801    0.147478   -0.370661   -0.658607
   3 H    0.100053    0.006365    0.001994    0.000864    0.009936    0.004701
   4 H    0.100055    0.006365    0.001994    0.000864    0.009935    0.004701
   5 H    0.100053    0.006365    0.001994    0.000864    0.009936    0.004701
   6 H    0.100051    0.006365    0.001994    0.000864    0.009936    0.004701
  ----------------------------------------------------------------------------
  Sum:   -1.000000    1.000000    0.701578    0.298410   -0.701578   -1.298410
  
  Multipole moment analysis of the density matrix
    Molecular charge:                      -1.000000
    Number of electrons:                   17.000000
      Center of electronic charge [Ang]: [ -0.000000,   0.000000,  -0.000000]
    Total nuclear charge:                  16.000000
      Center of nuclear charge [Ang]:    [  0.000000,   0.000000,   0.000000]
    Dipole moment [D]:                     0.000001
      Cartesian components [D]:          [  0.000000,  -0.000001,   0.000000]
    RMS size of the density [Ang]:         1.821085
      Cartesian components [Ang]:        [  1.361206,   0.916498,   0.789620]
  
  Exciton analysis of the difference density matrix
  Total:
    <r_h> [Ang]:                  [ -0.000000,   0.000000,   0.000000]
    <r_e> [Ang]:                  [ -0.000000,   0.000000,   0.000000]
    |<r_e - r_h>| [Ang]:            0.000000
    Hole size [Ang]:                1.255193
      Cartesian components [Ang]: [  0.749321,   0.512350,   0.866905]
    Electron size [Ang]:            4.185599
      Cartesian components [Ang]: [  3.054835,   2.041863,   2.004500]
  
  Alpha spin:
    <r_h> [Ang]:                  [ -0.000000,   0.000000,   0.000000]
    <r_e> [Ang]:                  [ -0.000000,  -0.000000,  -0.000000]
    |<r_e - r_h>| [Ang]:            0.000000
    Hole size [Ang]:                1.255700
      Cartesian components [Ang]: [  0.749394,   0.512484,   0.867497]
    Electron size [Ang]:            3.470024
      Cartesian components [Ang]: [  2.259085,   1.851889,   1.872994]
  
  Beta spin:
    <r_h> [Ang]:                  [ -0.000000,   0.000000,   0.000000]
    <r_e> [Ang]:                  [ -0.000000,   0.000000,   0.000000]
    |<r_e - r_h>| [Ang]:            0.000000
    Hole size [Ang]:                1.253999
      Cartesian components [Ang]: [  0.749147,   0.512034,   0.865513]
    Electron size [Ang]:            4.525406
      Cartesian components [Ang]: [  3.408351,   2.137498,   2.072088]
  ----------------------------------------------------------------------------


  Electron-attached state 7 (B2g)                                  [converged]
  ----------------------------------------------------------------------------
  Term symbol:  7 (2) B2g                                   R^2 =  4.39010e-07

  Total energy:                                            -78.0306709581 a.u.
  Electron attachment energy:                                      8.516138 eV

  Pole strength:                                                      0.000321

  Dip. moment [a.u.]:                  [   0.000000,   -0.000000,   -0.000000]
  Total dipole [Debye]:                                               0.000001
  <r^2> [a.u.]:                        [ 135.736606,   65.651724,   41.694740]
  Total <r^2> [a.u.]:                                               243.083071

  V1^2 = 0.0003, V2^2 = 0.9997

  Important amplitudes:
       occ i       vir a        vir b           v   
    -------------------------------------------------
     1 (B1u) B    4 (Ag ) B    3 (B3u) B     -0.4217
     1 (B1u) B    2 (B1g) B    2 (B2u) B     -0.2780
    -------------------------------------------------

  Density matrix analysis:
  ------------------------
  NOs (alpha)
    Occupation of frontier NOs:
       0.1291   0.6243
    Number of electrons:  8.000000
  NOs (beta)
    Occupation of frontier NOs:
       0.3165   0.4994
    Number of electrons:  9.000000
  NOs (spin-traced)
    Occupation of frontier NOs:
       0.6250   0.6306
    Number of electrons: 17.000000
    Number of unpaired electrons: n_u =  3.28685, n_u,nl =  3.03650
    NO participation ratio (PR_NO):  5.817748
  
  
  Mulliken Population Analysis
  Atom  Charge (e)    Spin (e)  h+ (alpha)   h+ (beta)  e- (alpha)   e- (beta)
  ----------------------------------------------------------------------------
   1 C   -0.636908    0.481514    0.170763    0.323292   -0.165902   -0.799944
   2 C   -0.636908    0.481514    0.170763    0.323292   -0.165902   -0.799944
   3 H    0.068453    0.009243    0.001024    0.001913   -0.003455   -0.013586
   4 H    0.068456    0.009243    0.001024    0.001913   -0.003455   -0.013587
   5 H    0.068454    0.009243    0.001024    0.001913   -0.003455   -0.013587
   6 H    0.068451    0.009243    0.001024    0.001913   -0.003455   -0.013586
  ----------------------------------------------------------------------------
  Sum:   -1.000000    1.000000    0.345624    0.654234   -0.345624   -1.654234
  
  Multipole moment analysis of the density matrix
    Molecular charge:                      -1.000000
    Number of electrons:                   17.000000
      Center of electronic charge [Ang]: [ -0.000000,   0.000000,   0.000000]
    Total nuclear charge:                  16.000000
      Center of nuclear charge [Ang]:    [  0.000000,   0.000000,   0.000000]
    Dipole moment [D]:                     0.000001
      Cartesian components [D]:          [  0.000000,  -0.000001,  -0.000000]
    RMS size of the density [Ang]:         2.001032
      Cartesian components [Ang]:        [  1.495289,   1.039920,   0.828738]
  
  Exciton analysis of the difference density matrix
  Total:
    <r_h> [Ang]:                  [ -0.000000,   0.000000,   0.000000]
    <r_e> [Ang]:                  [ -0.000000,   0.000000,   0.000000]
    |<r_e - r_h>| [Ang]:            0.000000
    Hole size [Ang]:                1.254597
      Cartesian components [Ang]: [  0.749268,   0.511943,   0.866329]
    Electron size [Ang]:            4.833846
      Cartesian components [Ang]: [  3.548005,   2.494362,   2.134451]
  
  Alpha spin:
    <r_h> [Ang]:                  [ -0.000000,   0.000000,   0.000000]
    <r_e> [Ang]:                  [ -0.000000,   0.000000,   0.000000]
    |<r_e - r_h>| [Ang]:            0.000000
    Hole size [Ang]:                1.254065
      Cartesian components [Ang]: [  0.749258,   0.511885,   0.865601]
    Electron size [Ang]:            4.802004
      Cartesian components [Ang]: [  3.529516,   2.484096,   2.105000]
  
  Beta spin:
    <r_h> [Ang]:                  [ -0.000000,   0.000000,   0.000000]
    <r_e> [Ang]:                  [ -0.000000,   0.000000,   0.000000]
    |<r_e - r_h>| [Ang]:            0.000000
    Hole size [Ang]:                1.254878
      Cartesian components [Ang]: [  0.749273,   0.511973,   0.866713]
    Electron size [Ang]:            4.840472
      Cartesian components [Ang]: [  3.551856,   2.496501,   2.140553]
  ----------------------------------------------------------------------------


  Electron-attached state 8 (B2g)                                  [converged]
  ----------------------------------------------------------------------------
  Term symbol:  8 (2) B2g                                   R^2 =  3.64933e-07

  Total energy:                                            -78.0250483959 a.u.
  Electron attachment energy:                                      8.669135 eV

  Pole strength:                                                      0.002838

  Dip. moment [a.u.]:                  [   0.000000,   -0.000000,    0.000000]
  Total dipole [Debye]:                                               0.000001
  <r^2> [a.u.]:                        [  93.108463,   62.412841,   67.115028]
  Total <r^2> [a.u.]:                                               222.636333

  V1^2 = 0.0028, V2^2 = 0.9972

  Important amplitudes:
       occ i       vir a        vir b           v   
    -------------------------------------------------
     1 (B1u) B    1 (B2g) B    2 (B1u) B     -0.3741
     1 (B1u) B    2 (B1g) B    2 (B2u) B      0.2794
    -------------------------------------------------

  Density matrix analysis:
  ------------------------
  NOs (alpha)
    Occupation of frontier NOs:
       0.2598   0.5654
    Number of electrons:  8.000000
  NOs (beta)
    Occupation of frontier NOs:
       0.3897   0.4119
    Number of electrons:  9.000000
  NOs (spin-traced)
    Occupation of frontier NOs:
       0.6611   0.6758
    Number of electrons: 17.000000
    Number of unpaired electrons: n_u =  3.31477, n_u,nl =  3.11556
    NO participation ratio (PR_NO):  5.507634
  
  
  Mulliken Population Analysis
  Atom  Charge (e)    Spin (e)  h+ (alpha)   h+ (beta)  e- (alpha)   e- (beta)
  ----------------------------------------------------------------------------
   1 C   -0.638927    0.480772    0.203020    0.288917   -0.199539   -0.766209
   2 C   -0.638927    0.480772    0.203020    0.288917   -0.199539   -0.766209
   3 H    0.069463    0.009614    0.001539    0.002070   -0.003279   -0.013424
   4 H    0.069466    0.009614    0.001539    0.002070   -0.003279   -0.013424
   5 H    0.069464    0.009614    0.001539    0.002070   -0.003279   -0.013424
   6 H    0.069461    0.009614    0.001539    0.002070   -0.003279   -0.013424
  ----------------------------------------------------------------------------
  Sum:   -1.000000    1.000000    0.412195    0.586112   -0.412195   -1.586112
  
  Multipole moment analysis of the density matrix
    Molecular charge:                      -1.000000
    Number of electrons:                   17.000000
      Center of electronic charge [Ang]: [ -0.000000,   0.000000,  -0.000000]
    Total nuclear charge:                  16.000000
      Center of nuclear charge [Ang]:    [  0.000000,   0.000000,   0.000000]
    Dipole moment [D]:                     0.000001
      Cartesian components [D]:          [  0.000000,  -0.000001,   0.000000]
    RMS size of the density [Ang]:         1.915026
      Cartesian components [Ang]:        [  1.238429,   1.013943,   1.051445]
  
  Exciton analysis of the difference density matrix
  Total:
    <r_h> [Ang]:                  [ -0.000000,   0.000000,   0.000000]
    <r_e> [Ang]:                  [  0.000000,   0.000000,  -0.000000]
    |<r_e - r_h>| [Ang]:            0.000000
    Hole size [Ang]:                1.262585
      Cartesian components [Ang]: [  0.755644,   0.518700,   0.868374]
    Electron size [Ang]:            4.530757
      Cartesian components [Ang]: [  2.574658,   2.403346,   2.850057]
  
  Alpha spin:
    <r_h> [Ang]:                  [ -0.000000,   0.000000,   0.000000]
    <r_e> [Ang]:                  [ -0.000000,   0.000000,  -0.000000]
    |<r_e - r_h>| [Ang]:            0.000000
    Hole size [Ang]:                1.260319
      Cartesian components [Ang]: [  0.755639,   0.518269,   0.865338]
    Electron size [Ang]:            4.157901
      Cartesian components [Ang]: [  2.646613,   2.189874,   2.342656]
  
  Beta spin:
    <r_h> [Ang]:                  [ -0.000000,   0.000000,   0.000000]
    <r_e> [Ang]:                  [  0.000000,   0.000000,  -0.000000]
    |<r_e - r_h>| [Ang]:            0.000000
    Hole size [Ang]:                1.264177
      Cartesian components [Ang]: [  0.755647,   0.519003,   0.870503]
    Electron size [Ang]:            4.622734
      Cartesian components [Ang]: [  2.555627,   2.455787,   2.967751]
  ----------------------------------------------------------------------------


  Electron-attached state 9 (B2g)                                  [converged]
  ----------------------------------------------------------------------------
  Term symbol:  9 (2) B2g                                   R^2 =  4.86372e-07

  Total energy:                                            -78.0142117639 a.u.
  Electron attachment energy:                                      8.964015 eV

  Pole strength:                                                      0.003528

  Dip. moment [a.u.]:                  [   0.000000,   -0.000000,   -0.000000]
  Total dipole [Debye]:                                               0.000001
  <r^2> [a.u.]:                        [ 110.546118,   70.427596,   46.659631]
  Total <r^2> [a.u.]:                                               227.633346

  V1^2 = 0.0036, V2^2 = 0.9964

  Important amplitudes:
       occ i       vir a        vir b           v   
    -------------------------------------------------
     1 (B1u) B    2 (B1g) B    2 (B2u) B     -0.3245
     1 (B1u) B    4 (Ag ) B    3 (B3u) B      0.2941
    -------------------------------------------------

  Density matrix analysis:
  ------------------------
  NOs (alpha)
    Occupation of frontier NOs:
       0.1275   0.5800
    Number of electrons:  8.000000
  NOs (beta)
    Occupation of frontier NOs:
       0.3058   0.3244
    Number of electrons:  9.000000
  NOs (spin-traced)
    Occupation of frontier NOs:
       0.3792   0.3796
    Number of electrons: 17.000000
    Number of unpaired electrons: n_u =  3.30565, n_u,nl =  2.84906
    NO participation ratio (PR_NO):  6.899699
  
  
  Mulliken Population Analysis
  Atom  Charge (e)    Spin (e)  h+ (alpha)   h+ (beta)  e- (alpha)   e- (beta)
  ----------------------------------------------------------------------------
   1 C   -0.613493    0.460571    0.194803    0.296690   -0.188705   -0.751164
   2 C   -0.613493    0.460571    0.194803    0.296690   -0.188705   -0.751164
   3 H    0.056746    0.019714    0.001396    0.002072   -0.004445   -0.024836
   4 H    0.056749    0.019715    0.001396    0.002072   -0.004445   -0.024836
   5 H    0.056747    0.019715    0.001396    0.002072   -0.004445   -0.024836
   6 H    0.056744    0.019714    0.001396    0.002072   -0.004445   -0.024835
  ----------------------------------------------------------------------------
  Sum:   -1.000000    1.000000    0.395191    0.601670   -0.395191   -1.601670
  
  Multipole moment analysis of the density matrix
    Molecular charge:                      -1.000000
    Number of electrons:                   17.000000
      Center of electronic charge [Ang]: [ -0.000000,   0.000000,   0.000000]
    Total nuclear charge:                  16.000000
      Center of nuclear charge [Ang]:    [  0.000000,   0.000000,   0.000000]
    Dipole moment [D]:                     0.000001
      Cartesian components [D]:          [  0.000000,  -0.000001,  -0.000000]
    RMS size of the density [Ang]:         1.936398
      Cartesian components [Ang]:        [  1.349424,   1.077080,   0.876693]
  
  Exciton analysis of the difference density matrix
  Total:
    <r_h> [Ang]:                  [ -0.000000,   0.000000,   0.000000]
    <r_e> [Ang]:                  [ -0.000000,   0.000000,   0.000000]
    |<r_e - r_h>| [Ang]:            0.000000
    Hole size [Ang]:                1.256506
      Cartesian components [Ang]: [  0.752509,   0.514931,   0.864513]
    Electron size [Ang]:            4.608101
      Cartesian components [Ang]: [  3.012682,   2.627178,   2.292657]
  
  Alpha spin:
    <r_h> [Ang]:                  [ -0.000000,   0.000000,   0.000000]
    <r_e> [Ang]:                  [ -0.000000,   0.000000,   0.000000]
    |<r_e - r_h>| [Ang]:            0.000000
    Hole size [Ang]:                1.261576
      Cartesian components [Ang]: [  0.755245,   0.518051,   0.867641]
    Electron size [Ang]:            4.314270
      Cartesian components [Ang]: [  2.907442,   2.432401,   2.059886]
  
  Beta spin:
    <r_h> [Ang]:                  [ -0.000000,   0.000000,   0.000000]
    <r_e> [Ang]:                  [ -0.000000,  -0.000000,   0.000000]
    |<r_e - r_h>| [Ang]:            0.000000
    Hole size [Ang]:                1.253164
      Cartesian components [Ang]: [  0.750706,   0.512871,   0.862453]
    Electron size [Ang]:            4.677762
      Cartesian components [Ang]: [  3.038088,   2.673054,   2.346541]
  ----------------------------------------------------------------------------


  Electron-attached state 10 (B2g)                                  [converged]
  ----------------------------------------------------------------------------
  Term symbol:  10 (2) B2g                                  R^2 =  5.41175e-06

  Total energy:                                            -78.0087773495 a.u.
  Electron attachment energy:                                      9.111893 eV

  Pole strength:                                                      0.040984

  Dip. moment [a.u.]:                  [   0.000000,   -0.000000,   -0.000000]
  Total dipole [Debye]:                                               0.000001
  <r^2> [a.u.]:                        [  67.171816,   36.440645,   40.391330]
  Total <r^2> [a.u.]:                                               144.003790

  V1^2 = 0.0416, V2^2 = 0.9584

  Important amplitudes:
       occ i       vir a        vir b           v   
    -------------------------------------------------
     1 (B1u) A    3 (B1u) A    2 (B2g) B     -0.4200
     1 (B1u) A    3 (B1u) A    3 (B2g) B     -0.2478
    -------------------------------------------------

  Density matrix analysis:
  ------------------------
  NOs (alpha)
    Occupation of frontier NOs:
       0.1730   0.5688
    Number of electrons:  8.000000
  NOs (beta)
    Occupation of frontier NOs:
       0.2638   0.7280
    Number of electrons:  9.000000
  NOs (spin-traced)
    Occupation of frontier NOs:
       0.7122   0.8953
    Number of electrons: 17.000000
    Number of unpaired electrons: n_u =  3.13630, n_u,nl =  2.87577
    NO participation ratio (PR_NO):  4.647086
  
  
  Mulliken Population Analysis
  Atom  Charge (e)    Spin (e)  h+ (alpha)   h+ (beta)  e- (alpha)   e- (beta)
  ----------------------------------------------------------------------------
   1 C   -0.620067    0.493973    0.404596    0.097138   -0.385085   -0.571600
   2 C   -0.620067    0.493973    0.404596    0.097138   -0.385085   -0.571600
   3 H    0.060033    0.003014    0.002192    0.001026   -0.011947   -0.013795
   4 H    0.060036    0.003014    0.002192    0.001026   -0.011947   -0.013795
   5 H    0.060034    0.003014    0.002192    0.001026   -0.011947   -0.013795
   6 H    0.060031    0.003014    0.002192    0.001026   -0.011947   -0.013795
  ----------------------------------------------------------------------------
  Sum:   -1.000000    1.000000    0.817960    0.198380   -0.817960   -1.198380
  
  Multipole moment analysis of the density matrix
    Molecular charge:                      -1.000000
    Number of electrons:                   17.000000
      Center of electronic charge [Ang]: [ -0.000000,   0.000000,   0.000000]
    Total nuclear charge:                  16.000000
      Center of nuclear charge [Ang]:    [  0.000000,   0.000000,   0.000000]
    Dipole moment [D]:                     0.000001
      Cartesian components [D]:          [  0.000000,  -0.000001,  -0.000000]
    RMS size of the density [Ang]:         1.540152
      Cartesian components [Ang]:        [  1.051890,   0.774764,   0.815682]
  
  Exciton analysis of the difference density matrix
  Total:
    <r_h> [Ang]:                  [  0.000000,   0.000000,  -0.000000]
    <r_e> [Ang]:                  [ -0.000000,   0.000000,   0.000000]
    |<r_e - r_h>| [Ang]:            0.000000
    Hole size [Ang]:                1.367718
      Cartesian components [Ang]: [  0.817312,   0.582311,   0.929284]
    Electron size [Ang]:            3.094732
      Cartesian components [Ang]: [  1.738249,   1.468031,   2.097794]
  
  Alpha spin:
    <r_h> [Ang]:                  [ -0.000000,   0.000000,  -0.000000]
    <r_e> [Ang]:                  [ -0.000000,   0.000000,   0.000000]
    |<r_e - r_h>| [Ang]:            0.000000
    Hole size [Ang]:                1.356476
      Cartesian components [Ang]: [  0.805939,   0.569882,   0.930443]
    Electron size [Ang]:            3.483201
      Cartesian components [Ang]: [  1.804472,   1.655222,   2.477258]
  
  Beta spin:
    <r_h> [Ang]:                  [  0.000000,   0.000000,  -0.000000]
    <r_e> [Ang]:                  [ -0.000000,   0.000000,   0.000000]
    |<r_e - r_h>| [Ang]:            0.000000
    Hole size [Ang]:                1.413128
      Cartesian components [Ang]: [  0.862624,   0.630976,   0.924490]
    Electron size [Ang]:            2.798788
      Cartesian components [Ang]: [  1.691560,   1.325165,   1.793259]
  ----------------------------------------------------------------------------


--------------------------------------------------------------------------------
  Time of ADC calculation:  CPU 224.89 s  wall 51.78 s
================================================================================
 
 --------------------------------------------------------------
             Orbital Energies (a.u.) and Symmetries
 --------------------------------------------------------------
 
 Alpha MOs, Restricted
 -- Occupied --                  
-11.237 -11.235  -1.042  -0.782  -0.661  -0.567  -0.515  -0.377
  1 Ag    1 B3u   2 Ag    2 B3u   1 B2u   3 Ag    1 B1g   1 B1u                
 -- Virtual --                   
  0.037   0.039   0.044   0.056   0.057   0.061   0.098   0.127
  3 B3u   2 B2u   2 B1u   2 B1g   1 B2g   4 Ag    5 Ag    2 B2g                
  0.128   0.160   0.178   0.184   0.198   0.260   0.266   0.292
  4 B3u   3 B2u   3 B1g   3 B1u   6 Ag    3 B2g   7 Ag    5 B3u                
  0.338   0.348   0.458   0.506   0.682   0.765   0.860   0.862
  4 B2u   6 B3u   4 B1g   7 B3u   8 Ag    5 B2u   9 Ag    4 B1u                
  0.899   0.920   0.931   0.988   1.026   1.043   1.114   1.283
  6 B2u   4 B2g   8 B3u   9 B3u  10 Ag    5 B1g   1 B3g   5 B1u                
  1.284   1.325   1.346   1.606   1.615   1.697   1.848   1.916
  1 Au   10 B3u   6 B1g  11 Ag    7 B1g   7 B2u   5 B2g  11 B3u                
  1.938   1.979   2.017   2.038   2.171   2.277   2.412   2.440
  6 B1u  12 Ag    2 B3g   8 B2u   6 B2g  12 B3u   2 Au   13 Ag                 
  2.544   2.573   2.799   2.800   3.261   3.340
  8 B1g  13 B3u  14 Ag    9 B2u  14 B3u   9 B1g                                
 
 Beta MOs, Restricted
 -- Occupied --                  
-11.237 -11.235  -1.042  -0.782  -0.661  -0.567  -0.515  -0.377
  1 Ag    1 B3u   2 Ag    2 B3u   1 B2u   3 Ag    1 B1g   1 B1u                
 -- Virtual --                   
  0.037   0.039   0.044   0.056   0.057   0.061   0.098   0.127
  3 B3u   2 B2u   2 B1u   2 B1g   1 B2g   4 Ag    5 Ag    2 B2g                
  0.128   0.160   0.178   0.184   0.198   0.260   0.266   0.292
  4 B3u   3 B2u   3 B1g   3 B1u   6 Ag    3 B2g   7 Ag    5 B3u                
  0.338   0.348   0.458   0.506   0.682   0.765   0.860   0.862
  4 B2u   6 B3u   4 B1g   7 B3u   8 Ag    5 B2u   9 Ag    4 B1u                
  0.899   0.920   0.931   0.988   1.026   1.043   1.114   1.283
  6 B2u   4 B2g   8 B3u   9 B3u  10 Ag    5 B1g   1 B3g   5 B1u                
  1.284   1.325   1.346   1.606   1.615   1.697   1.848   1.916
  1 Au   10 B3u   6 B1g  11 Ag    7 B1g   7 B2u   5 B2g  11 B3u                
  1.938   1.979   2.017   2.038   2.171   2.277   2.412   2.440
  6 B1u  12 Ag    2 B3g   8 B2u   6 B2g  12 B3u   2 Au   13 Ag                 
  2.544   2.573   2.799   2.800   3.261   3.340
  8 B1g  13 B3u  14 Ag    9 B2u  14 B3u   9 B1g                                
 --------------------------------------------------------------
 
          Ground-State Mulliken Net Atomic Charges

     Atom                 Charge (a.u.)
  ----------------------------------------
      1 C                    -0.150970
      2 C                    -0.150970
      3 H                     0.075484
      4 H                     0.075488
      5 H                     0.075485
      6 H                     0.075482
  ----------------------------------------
  Sum of atomic charges =     0.000000

 -----------------------------------------------------------------
                    Cartesian Multipole Moments
 -----------------------------------------------------------------
    Charge (ESU x 10^10)
                 0.0000
    Dipole Moment (Debye)
         X       0.0000      Y      -0.0000      Z      -0.0000
       Tot       0.0000
    Quadrupole Moments (Debye-Ang)
        XX     -12.9380     XY       0.0000     YY     -11.9605
        XZ      -0.0000     YZ      -0.0000     ZZ     -16.1185
    Octopole Moments (Debye-Ang^2)
       XXX       0.0000    XXY      -0.0000    XYY       0.0000
       YYY      -0.0000    XXZ      -0.0000    XYZ      -0.0000
       YYZ      -0.0000    XZZ       0.0000    YZZ      -0.0000
       ZZZ      -0.0000
    Hexadecapole Moments (Debye-Ang^3)
      XXXX     -68.1641   XXXY       0.0000   XXYY     -13.2277
      XYYY       0.0000   YYYY     -26.8116   XXXZ       0.0000
      XXYZ      -0.0000   XYYZ       0.0000   YYYZ      -0.0000
      XXZZ     -15.5082   XYZZ      -0.0000   YYZZ      -8.8894
      XZZZ      -0.0000   YZZZ      -0.0000   ZZZZ     -21.2546
 -----------------------------------------------------------------
 Total job time:  135.37s(wall), 267.70s(cpu) 
 Sun Mar 27 21:22:15 2022

        *************************************************************
        *                                                           *
        *  Thank you very much for using Q-Chem.  Have a nice day.  *
        *                                                           *
        *************************************************************


