This is a multi-thread run using 8 threads
/src/tsommerfeld/qchem/exe/qcprog.exe .input1.333333.11815.qcin.1 /src/jdavis/qchem.scratch/qchem11815/

                  Welcome to Q-Chem
     A Quantum Leap Into The Future Of Chemistry


 Q-Chem 5.4 (devel), Q-Chem, Inc., Pleasanton, CA (2021)

 E. Epifanovsky,  A. T. B. Gilbert,  Xintian Feng,  Joonho Lee,  Yuezhi Mao,  
 N. Mardirossian,  P. Pokhilko,  A. White,  M. Wormit,  M. P. Coons,  
 A. L. Dempwolff,  Zhengting Gan,  D. Hait,  P. R. Horn,  L. D. Jacobson,  
 I. Kaliman,  J. Kussmann,  A. W. Lange,  Ka Un Lao,  D. S. Levine,  Jie Liu,  
 S. C. McKenzie,  A. F. Morrison,  K. Nanda,  F. Plasser,  D. R. Rehn,  
 M. L. Vidal,  Zhi-Qiang You,  Ying Zhu,  B. Alam,  B. Albrecht,  
 A. Aldossary,  E. Alguire,  J. H. Andersen,  D. Barton,  K. Begam,  A. Behn,  
 Y. A. Bernard,  E. J. Berquist,  H. Burton,  A. Carreras,  K. Carter-Fenk,  
 R. Chakraborty,  A. D. Chien,  K. D. Closser,  V. Cofer-Shabica,  
 S. Dasgupta,  Jia Deng,  M. de Wergifosse,  M. Diedenhofen,  Hainam Do,  
 S. Ehlert,  Po-Tung Fang,  S. Fatehi,  Qingguo Feng,  T. Friedhoff,  
 J. Gayvert,  Qinghui Ge,  G. Gidofalvi,  M. Goldey,  J. Gomes,  
 C. Gonzalez-Espinoza,  S. Gulania,  A. Gunina,  M. W. D. Hanson-Heine,  
 P. H. P. Harbach,  A. W. Hauser,  M. F. Herbst,  M. Hernandez Vera,  
 M. Hodecker,  Z. C. Holden,  S. Houck,  Xunkun Huang,  Kerwin Hui,  
 B. C. Huynh,  M. Ivanov,  Hyunjun Ji,  Hanjie Jiang,  B. Kaduk,  S. Kaehler,  
 K. Khistyaev,  Jaehoon Kim,  P. Klunzinger,  Z. Koczor-Benda,  
 Joong Hoon Koh,  D. Kosenkov,  L. Koulias,  T. Kowalczyk,  C. M. Krauter,  
 K. Kue,  A. Kunitsa,  T. Kus,  A. Landau,  K. V. Lawler,  D. Lefrancois,  
 S. Lehtola,  Rain Li,  Yi-Pei Li,  Jiashu Liang,  M. Liebenthal,  
 Hung-Hsuan Lin,  You-Sheng Lin,  Fenglai Liu,  Kuan-Yu Liu,  
 M. Loipersberger,  A. Luenser,  A. Manjanath,  P. Manohar,  E. Mansoor,  
 S. F. Manzer,  Shan-Ping Mao,  A. V. Marenich,  T. Markovich,  S. Mason,  
 S. A. Maurer,  P. F. McLaughlin,  M. F. S. J. Menger,  J.-M. Mewes,  
 S. A. Mewes,  P. Morgante,  J. W. Mullinax,  K. J. Oosterbaan,  G. Paran,  
 Alexander C. Paul,  Suranjan K. Paul,  F. Pavosevic,  Zheng Pei,  S. Prager,  
 E. I. Proynov,  E. Ramos,  B. Rana,  A. E. Rask,  A. Rettig,  R. M. Richard,  
 F. Rob,  E. Rossomme,  T. Scheele,  M. Scheurer,  M. Schneider,  
 N. Sergueev,  S. M. Sharada,  W. Skomorowski,  D. W. Small,  C. J. Stein,  
 Yu-Chuan Su,  E. J. Sundstrom,  Zhen Tao,  J. Thirman,  T. Tsuchimochi,  
 N. M. Tubman,  S. P. Veccham,  O. Vydrov,  J. Wenzel,  J. Witte,  A. Yamada,  
 Kun Yao,  S. Yeganeh,  S. R. Yost,  A. Zech,  Igor Ying Zhang,  Xing Zhang,  
 Yu Zhang,  D. Zuev,  A. Aspuru-Guzik,  A. T. Bell,  N. A. Besley,  
 K. B. Bravaya,  B. R. Brooks,  D. Casanova,  Jeng-Da Chai,  S. Coriani,  
 C. J. Cramer,  A. E. DePrince, III,  R. A. DiStasio Jr.,  A. Dreuw,  
 B. D. Dunietz,  T. R. Furlani,  W. A. Goddard III,  S. Grimme,  
 S. Hammes-Schiffer,  T. Head-Gordon,  W. J. Hehre,  Chao-Ping Hsu,  
 T.-C. Jagau,  Yousung Jung,  A. Klamt,  Jing Kong,  D. S. Lambrecht,  
 WanZhen Liang,  N. J. Mayhall,  C. W. McCurdy,  J. B. Neaton,  
 C. Ochsenfeld,  J. A. Parkhill,  R. Peverati,  V. A. Rassolov,  Yihan Shao,  
 L. V. Slipchenko,  T. Stauch,  R. P. Steele,  J. E. Subotnik,  
 A. J. W. Thom,  A. Tkatchenko,  D. G. Truhlar,  T. Van Voorhis,  
 T. A. Wesolowski,  K. B. Whaley,  H. L. Woodcock III,  P. M. Zimmerman,  
 S. Faraji,  P. M. W. Gill,  M. Head-Gordon,  J. M. Herbert,  A. I. Krylov

 Additional authors for Version 5.4.1: 
 S. Kotaru,  Shaozhi Li,  Xiangyuan Li,  F. Matz,  A. Molle,  Haisheng Ren,  
 Yingli Su,  Hung-Yi Tsai,  C. Utku,  Fang Wang

 Contributors to earlier versions of Q-Chem not listed above: 
 R. D. Adamson,  B. Austin,  R. Baer,  J. Baker,  G. J. O. Beran,  
 K. Brandhorst,  S. T. Brown,  E. F. C. Byrd,  A. K. Chakraborty,  
 G. K. L. Chan,  Chun-Min Chang,  Yunqing Chen,  C.-L. Cheng,  
 Siu Hung Chien,  D. M. Chipman,  D. L. Crittenden,  H. Dachsel,  
 R. J. Doerksen,  A. D. Dutoi,  R. G. Edgar,  J. Fosso-Tande,  
 L. Fusti-Molnar,  D. Ghosh,  A. Ghysels,  A. Golubeva-Zadorozhnaya,  
 J. Gonthier,  M. S. Gordon,  S. R. Gwaltney,  G. Hawkins,  J. E. Herr,  
 A. Heyden,  S. Hirata,  E. G. Hohenstein,  G. Kedziora,  F. J. Keil,  
 C. Kelley,  Jihan Kim,  R. A. King,  R. Z. Khaliullin,  P. P. Korambath,  
 W. Kurlancheek,  A. Laurent,  A. M. Lee,  M. S. Lee,  S. V. Levchenko,  
 Ching Yeh Lin,  D. Liotard,  E. Livshits,  R. C. Lochan,  I. Lotan,  
 L. A. Martinez-Martinez,  P. E. Maslen,  N. Nair,  D. P. O'Neill,  
 D. Neuhauser,  E. Neuscamman,  C. M. Oana,  R. Olivares-Amaya,  R. Olson,  
 T. M. Perrine,  B. Peters,  P. A. Pieniazek,  A. Prociuk,  Y. M. Rhee,  
 J. Ritchie,  M. A. Rohrdanz,  E. Rosta,  N. J. Russ,  H. F. Schaefer III,  
 M. W. Schmidt,  N. E. Schultz,  S. Sharma,  N. Shenvi,  C. D. Sherrill,  
 A. C. Simmonett,  A. Sodt,  T. Stein,  D. Stuck,  K. S. Thanthiriwatte,  
 V. Vanovschi,  L. Vogt,  Tao Wang,  A. Warshel,  M. A. Watson,  
 C. F. Williams,  Q. Wu,  X. Xu,  Jun Yang,  W. Zhang,  Yan Zhao

 Please cite Q-Chem as follows:
 Y. Shao et al., Mol. Phys. 113, 184-215 (2015)
 DOI: 10.1080/00268976.2014.952696

 Q-Chem 5.4.1 for Intel X86 EM64T Linux

 Parts of Q-Chem use Armadillo 9.900.5 (Nocturnal Misbehaviour).
 http://arma.sourceforge.net/

 Q-Chem begins on Sun Mar 27 22:14:21 2022  

 Host: node01
0

     Scratch files written to /src/jdavis/qchem.scratch/qchem11815//
 Processing $rem in /src/tsommerfeld/qchem/config/preferences:
 Processing $rem in /home/jdavis/.qchemrc:

 Checking the input file for inconsistencies... 	...done.

--------------------------------------------------------------
User input:
--------------------------------------------------------------
$molecule
0 1
C        -0.6645000000    0.0000000000   -0.2082049804
C         0.6645000000    0.0000000000   -0.2082049804
H        -1.1590800000    0.0000000000    0.7541440196
H         1.1590800000    0.0000000000    0.7541440196
H        -1.1590800000    0.0000000000   -1.1705529804
H         1.1590800000    0.0000000000   -1.1705529804
$end

$rem
   METHOD adc(3)
   BASIS gen
   PURECART 11
   EA_STATES [0,0,10,0,0,0,0,0]
   scf_convergence 8
   ADC_DAVIDSON_MAXITER 120
   ADC_DAVIDSON_MAXSUBSPACE 200
   adc_nguess_singles 100
   THRESH 14
   S2THRESH 14
   adc_davidson_conv 5
   adc_davidson_thresh 14
   THREADS 10
   MEM_TOTAL 95000
   STATE_ANALYSIS TRUE
$end
$basis
C 1
S   9   1.00
      6.665000D+03           6.920000D-04
      1.000000D+03           5.329000D-03
      2.280000D+02           2.707700D-02
      6.471000D+01           1.017180D-01
      2.106000D+01           2.747400D-01
      7.495000D+00           4.485640D-01
      2.797000D+00           2.850740D-01
      5.215000D-01           1.520400D-02
      1.596000D-01          -3.191000D-03
S   9   1.00
      6.665000D+03          -1.460000D-04
      1.000000D+03          -1.154000D-03
      2.280000D+02          -5.725000D-03
      6.471000D+01          -2.331200D-02
      2.106000D+01          -6.395500D-02
      7.495000D+00          -1.499810D-01
      2.797000D+00          -1.272620D-01
      5.215000D-01           5.445290D-01
      1.596000D-01           5.804960D-01
S   1   1.00
      1.596000D-01           1.000000D+00
S   1   1.00
      0.0469000              1.0000000
P   4   1.00
      9.439000D+00           3.810900D-02
      2.002000D+00           2.094800D-01
      5.456000D-01           5.085570D-01
      1.517000D-01           4.688420D-01
P   1   1.00
      1.517000D-01           1.000000D+00
P   1   1.00
      0.0809067      1.0000000
P   1   1.00
      0.0404533      1.0000000
D   1   1.00
      5.500000D-01           1.0000000
****
C 2
S   9   1.00
      6.665000D+03           6.920000D-04
      1.000000D+03           5.329000D-03
      2.280000D+02           2.707700D-02
      6.471000D+01           1.017180D-01
      2.106000D+01           2.747400D-01
      7.495000D+00           4.485640D-01
      2.797000D+00           2.850740D-01
      5.215000D-01           1.520400D-02
      1.596000D-01          -3.191000D-03
S   9   1.00
      6.665000D+03          -1.460000D-04
      1.000000D+03          -1.154000D-03
      2.280000D+02          -5.725000D-03
      6.471000D+01          -2.331200D-02
      2.106000D+01          -6.395500D-02
      7.495000D+00          -1.499810D-01
      2.797000D+00          -1.272620D-01
      5.215000D-01           5.445290D-01
      1.596000D-01           5.804960D-01
S   1   1.00
      1.596000D-01           1.000000D+00
S   1   1.00
      0.0469000              1.0000000
P   4   1.00
      9.439000D+00           3.810900D-02
      2.002000D+00           2.094800D-01
      5.456000D-01           5.085570D-01
      1.517000D-01           4.688420D-01
P   1   1.00
      1.517000D-01           1.000000D+00
P   1   1.00
      0.0809067      1.0000000
P   1   1.00
      0.0404533      1.0000000
D   1   1.00
      5.500000D-01           1.0000000
****
H 3
cc-pVDZ
****
H 4
cc-pVDZ
****
H 5
cc-pVDZ
****
H 6
cc-pVDZ
****
H 7
aug-cc-pVDZ
****
$end
--------------------------------------------------------------
 Atom   2: ( -0.6645000000, -0.0000001250,  0.0000000000)
         ->( -0.6645000000,  0.0000001250, -0.0000000000)
 Atom   1: (  0.6645000000, -0.0000001250, -0.0000000000)
         ->(  0.6645000000,  0.0000000000,  0.0000000000)
 Atom   6: ( -1.1590800000, -0.9623481250, -0.0000000000)
         ->( -1.1590800000, -0.9623488750,  0.0000000000)
 Atom   5: (  1.1590800000, -0.9623481250, -0.0000000000)
         ->(  1.1590800000, -0.9623488750, -0.0000000000)
 ----------------------------------------------------------------
             Standard Nuclear Orientation (Angstroms)
    I     Atom           X                Y                Z
 ----------------------------------------------------------------
    1      C       0.6645000000     0.0000000000     0.0000000000
    2      C      -0.6645000000     0.0000001250    -0.0000000000
    3      H       1.1590800000     0.9623488750     0.0000000000
    4      H      -1.1590800000     0.9623488750     0.0000000000
    5      H       1.1590800000    -0.9623488750    -0.0000000000
    6      H      -1.1590800000    -0.9623488750     0.0000000000
 ----------------------------------------------------------------
 Molecular Point Group                 D2h   NOp =  8
 Largest Abelian Subgroup              D2h   NOp =  8
 Nuclear Repulsion Energy =          33.58921667 hartrees
 There are        8 alpha and        8 beta electrons
 Requested basis set is non-standard
 There are 30 shells and 62 basis functions
 Total memory of 95000 MB is distributed as follows: 
   MEM_STATIC is set to 192 MB
   QALLOC/CCMAN JOB total memory use is  94808 MB
 Warning: actual memory use might exceed 95000 MB

 Total QAlloc Memory Limit  95000 MB
 Mega-Array Size       188 MB
 MEM_STATIC part       192 MB

                       Distance Matrix (Angstroms)
             C (  1)   C (  2)   H (  3)   H (  4)   H (  5)
   C (  2)  1.329000
   H (  3)  1.082000  2.061931
   H (  4)  2.061931  1.082000  2.318160
   H (  5)  1.082000  2.061931  1.924698  3.013026
   H (  6)  2.061931  1.082000  3.013026  1.924698  2.318160
 
 A cutoff of  1.0D-14 yielded    465 shell pairs
 There are      2009 function pairs (      2146 Cartesian)
 Smallest overlap matrix eigenvalue = 2.34E-04

 Scale SEOQF with 1.000000e-01/1.000000e-01/1.000000e-01

 Standard Electronic Orientation quadrupole field applied
 Nucleus-field energy     =     0.0000000006 hartrees
 ================ Generating on-the-fly SAD Guess ================
Attempting to make child job directory: /src/jdavis/qchem.scratch/qchem11815//Frg1/
Attempting to make child job directory: /src/jdavis/qchem.scratch/qchem11815//Frg2/
Creating input file /src/jdavis/qchem.scratch/qchem11815/Frg1.input
using default PutDataFrgm: nothing
calling putenv with: QCSCRATCH=/src/jdavis/qchem.scratch/qchem11815/ 
Spawning Job For Fragment 0
Done Job For Fragment 0
calling putenv with: QCSCRATCH=/src/jdavis/qchem.scratch 
calling putenv with: QCTHREADS=8 
Creating input file /src/jdavis/qchem.scratch/qchem11815/Frg2.input
using default PutDataFrgm: nothing
calling putenv with: QCSCRATCH=/src/jdavis/qchem.scratch/qchem11815/ 
Spawning Job For Fragment 1
Done Job For Fragment 1
calling putenv with: QCSCRATCH=/src/jdavis/qchem.scratch 
calling putenv with: QCTHREADS=8 
 Time for running child jobs:  CPU 1.77 s  wall 55.58 s
 ============= Method Specific SAD Guess Constructed =============
 Guess from on-the-fly superposition of atomic densities
 Warning: Energy on first SCF cycle will be non-variational
 A restricted Hartree-Fock SCF calculation will be
 performed using Pulay DIIS extrapolation
 SCF converges when DIIS error is below 1.0E-08
 using 10 threads for integral computing
 -------------------------------------------------------
 OpenMP Integral computing Module                
 Release: version 1.0, May 2013, Q-Chem Inc. Pittsburgh 
 -------------------------------------------------------
 ---------------------------------------
  Cycle       Energy         DIIS Error
 ---------------------------------------
    1     -78.4584270700      7.95E-02
    2     -78.0144523868      5.76E-03
    3     -78.0357453562      1.51E-03
    4     -78.0373804294      5.01E-04
    5     -78.0375505168      6.08E-05
    6     -78.0375553185      1.29E-05
    7     -78.0375556917      3.05E-06
    8     -78.0375557519      2.76E-07
    9     -78.0375557574      3.51E-08
   10     -78.0375557578      3.69E-09 Convergence criterion met
 ---------------------------------------
 SCF time:  CPU 8.77 s  wall 0.88 s
 SCF   energy in the final basis set = -78.03755576
 Total energy in the final basis set = -78.03755576
================================================================================
|                                                                              |
|                                 A D C  M A N                                 |
|                                                                              |
 ------------------------------------------------------------------------------ 
|                                                                              |
| Components:                                                                  |
|                                                                              |
| - libvmm - 1.3-trunk                                                         |
|   Authors:                                                                   |
|   Evgeny Epifanovsky, Ilya Kaliman                                           |
|                                                                              |
| - libtensor - 2.5-trunk                                                      |
|   Authors:                                                                   |
|   Evgeny Epifanovsky, Michael Wormit, Dmitry Zuev, Sam Manzer,               |
|   Ilya Kaliman                                                               |
|                                                                              |
| - libwfa - 1.1-trunk                                                         |
|   Authors:                                                                   |
|   Felix Plasser, Stefanie Mewes (Baeppler), Benjamin Thomitzni,              |
|   Michael Wormit, Feng Chen, Anna I. Krylov, Pavel Pokhilko                  |
|                                                                              |
| - libadc - 1.1-trunk                                                         |
|   Authors:                                                                   |
|   Michael Wormit, Adrian L. Dempwolff, Philipp H. P. Harbach,                |
|   Caroline Krauter, Dirk Rehn, Matthias Schneider, Jan Wenzel                |
|                                                                              |
| - adcman - 2.6-trunk                                                         |
|   Authors:                                                                   |
|   Michael Wormit, Adrian L. Dempwolff, Philipp H. P. Harbach,                |
|   Caroline Krauter, Daniel Lefrancois, Jan-Michael Mewes, Dirk Rehn,         |
|   Matthias Schneider, Jan Wenzel, Andreas Dreuw                              |
|                                                                              |
| Authors of earlier versions of ADCMAN:                                       |
| Andreas Dreuw, Jan Hendrik Starcke, Dirk Rehn, Michael Wormit                |
|                                                                              |
================================================================================

 
 Alpha MOs, Restricted
 -- Occupied --                  
-11.237 -11.235  -1.042  -0.782  -0.660  -0.567  -0.515  -0.377
  1 Ag    1 B3u   2 Ag    2 B3u   1 B2u   3 Ag    1 B1g   1 B1u                
 -- Virtual --                   
  0.071   0.083   0.088   0.095   0.098   0.115   0.138   0.184
  3 B3u   2 B2u   4 Ag    2 B1u   1 B2g   2 B1g   5 Ag    2 B2g                
  0.213   0.262   0.316   0.319   0.346   0.351   0.359   0.368
  4 B3u   6 Ag    3 B2u   5 B3u   7 Ag    4 B2u   3 B1u   3 B1g                
  0.369   0.442   0.549   0.616   0.835   0.851   0.935   0.958
  6 B3u   3 B2g   4 B1g   7 B3u   8 Ag    5 B2u   8 B3u   9 Ag                 
  1.023   1.051   1.058   1.114   1.122   1.138   1.166   1.285
  5 B1g   6 B2u  10 Ag    1 B3g   4 B1u   9 B3u   4 B2g   1 Au                 
  1.288   1.291   1.452   1.622   1.682   1.732   1.875   1.944
 10 B3u   5 B1u   6 B1g  11 Ag    7 B1g   7 B2u   5 B2g   6 B1u                
  1.962   2.017   2.073   2.097   2.182   2.331   2.412   2.473
 11 B3u   2 B3g  12 Ag    8 B2u   6 B2g  12 B3u   2 Au   13 Ag                 
  2.570   2.580   2.839   2.843   3.265   3.343
  8 B1g  13 B3u   9 B2u  14 Ag   14 B3u   9 B1g                                
 
 Beta MOs, Restricted
 -- Occupied --                  
-11.237 -11.235  -1.042  -0.782  -0.660  -0.567  -0.515  -0.377
  1 Ag    1 B3u   2 Ag    2 B3u   1 B2u   3 Ag    1 B1g   1 B1u                
 -- Virtual --                   
  0.071   0.083   0.088   0.095   0.098   0.115   0.138   0.184
  3 B3u   2 B2u   4 Ag    2 B1u   1 B2g   2 B1g   5 Ag    2 B2g                
  0.213   0.262   0.316   0.319   0.346   0.351   0.359   0.368
  4 B3u   6 Ag    3 B2u   5 B3u   7 Ag    4 B2u   3 B1u   3 B1g                
  0.369   0.442   0.549   0.616   0.835   0.851   0.935   0.958
  6 B3u   3 B2g   4 B1g   7 B3u   8 Ag    5 B2u   8 B3u   9 Ag                 
  1.023   1.051   1.058   1.114   1.122   1.138   1.166   1.285
  5 B1g   6 B2u  10 Ag    1 B3g   4 B1u   9 B3u   4 B2g   1 Au                 
  1.288   1.291   1.452   1.622   1.682   1.732   1.875   1.944
 10 B3u   5 B1u   6 B1g  11 Ag    7 B1g   7 B2u   5 B2g   6 B1u                
  1.962   2.017   2.073   2.097   2.182   2.331   2.412   2.473
 11 B3u   2 B3g  12 Ag    8 B2u   6 B2g  12 B3u   2 Au   13 Ag                 
  2.570   2.580   2.839   2.843   3.265   3.343
  8 B1g  13 B3u   9 B2u  14 Ag   14 B3u   9 B1g                                

--------------------------------------------------------------------------------
                                   HF Summary                                   
--------------------------------------------------------------------------------
  Energy:                                                  -78.0375557578 a.u.
  Dip. moment [a.u.]:                  [  -0.000000,   -0.000001,   -0.000000]
  Total dipole [Debye]:                                               0.000001
  <r^2> [a.u.]:                        [  47.713497,   22.120807,   12.000914]
  Total <r^2> [a.u.]:                                                81.835218
--------------------------------------------------------------------------------

--------------------------------------------------------------------------------
                                 MP(2) Summary                                  
--------------------------------------------------------------------------------
  MP energy contribution:                                   -0.2832787118 a.u.
  Total energy:                                            -78.3208344695 a.u.
  Dip. moment [a.u.]:                  [   0.000000,   -0.000001,    0.000000]
  Total dipole [Debye]:                                               0.000001
  <r^2> [a.u.]:                        [  47.822712,   22.153019,   11.853376]
  Total <r^2> [a.u.]:                                                81.829106

  Density matrix analysis:
  ------------------------
  NOs (alpha)
    Occupation of frontier NOs:
       0.0224   0.9685
    Number of electrons:  8.000000
  NOs (beta)
    Occupation of frontier NOs:
       0.0224   0.9685
    Number of electrons:  8.000000
  NOs (spin-traced)
    Occupation of frontier NOs:
       0.0447   1.9370
    Number of electrons: 16.000000
    Number of unpaired electrons: n_u =  0.40961, n_u,nl =  0.04608
    NO participation ratio (PR_NO): 13.967023
  
  
  Mulliken Population Analysis
  Atom  Charge (e)    Spin (e)  h+ (alpha)   h+ (beta)  e- (alpha)   e- (beta)
  ----------------------------------------------------------------------------
   1 C   -0.213822   -0.000000    0.043699    0.043699   -0.051258   -0.051258
   2 C   -0.213822    0.000000    0.043699    0.043699   -0.051258   -0.051258
   3 H    0.106905    0.000000    0.009043    0.009043   -0.005264   -0.005264
   4 H    0.106923    0.000000    0.009043    0.009043   -0.005264   -0.005264
   5 H    0.106917    0.000000    0.009043    0.009043   -0.005264   -0.005264
   6 H    0.106899   -0.000000    0.009043    0.009043   -0.005264   -0.005264
  ----------------------------------------------------------------------------
  Sum:    0.000000    0.000000    0.123571    0.123571   -0.123571   -0.123571
  
  Multipole moment analysis of the density matrix
    Molecular charge:                      0.000000
    Number of electrons:                   16.000000
      Center of electronic charge [Ang]: [ -0.000000,   0.000000,  -0.000000]
    Total nuclear charge:                  16.000000
      Center of nuclear charge [Ang]:    [  0.000000,   0.000000,   0.000000]
    Dipole moment [D]:                     0.000001
      Cartesian components [D]:          [  0.000000,  -0.000001,   0.000000]
    RMS size of the density [Ang]:         1.196727
      Cartesian components [Ang]:        [  0.914868,   0.622670,   0.455473]
  
  Exciton analysis of the difference density matrix
  Total:
    <r_h> [Ang]:                  [  0.000000,   0.000000,  -0.000000]
    <r_e> [Ang]:                  [ -0.000000,  -0.000000,  -0.000000]
    |<r_e - r_h>| [Ang]:            0.000000
    Hole size [Ang]:                1.411946
      Cartesian components [Ang]: [  0.960121,   0.720318,   0.743572]
    Electron size [Ang]:            1.409491
      Cartesian components [Ang]: [  1.022536,   0.745222,   0.621070]
  
  Alpha spin:
    <r_h> [Ang]:                  [  0.000000,   0.000000,  -0.000000]
    <r_e> [Ang]:                  [ -0.000000,  -0.000000,  -0.000000]
    |<r_e - r_h>| [Ang]:            0.000000
    Hole size [Ang]:                1.411946
      Cartesian components [Ang]: [  0.960121,   0.720318,   0.743572]
    Electron size [Ang]:            1.409491
      Cartesian components [Ang]: [  1.022536,   0.745222,   0.621070]
  
  Beta spin:
    <r_h> [Ang]:                  [  0.000000,   0.000000,  -0.000000]
    <r_e> [Ang]:                  [ -0.000000,  -0.000000,  -0.000000]
    |<r_e - r_h>| [Ang]:            0.000000
    Hole size [Ang]:                1.411946
      Cartesian components [Ang]: [  0.960121,   0.720318,   0.743572]
    Electron size [Ang]:            1.409491
      Cartesian components [Ang]: [  1.022536,   0.745222,   0.621070]
--------------------------------------------------------------------------------

--------------------------------------------------------------------------------
                                 MP(3) Summary                                  
--------------------------------------------------------------------------------
  MP energy contribution:                                   -0.0245451719 a.u.
  Total energy:                                            -78.3453796414 a.u.
--------------------------------------------------------------------------------
Less particle guess vectors found than requested: 6 (found), 100 (requested).
Adjusting number of hole-2particle guess vectors to 94.
  Starting Davidson for electron-attached states of irrep B2g ... 
--------------------------------------------------------------------------------
   It NVec Conv  Avg. Norm  Max. Norm  Conv. states           Remark
--------------------------------------------------------------------------------
       100    0  3.859e-02  2.632e-01  0.0986 n n n n n n n n Guess.
    1  110    0  8.199e-03  4.275e-02  0.0825 n n n n n n n n 
    2  120    0  2.829e-03  2.272e-02  0.0821 n n n n n n n n 
    3  130    0  1.071e-03  9.686e-03  0.0820 n n n n n n n n 
    4  140    0  3.657e-04  3.346e-03  0.0820 n n n n n n n n 
    5  150    0  1.036e-04  9.528e-04  0.0820 n n n n n n n n 
    6  160    3  2.690e-05  2.442e-04  0.0820 y n n y y n n n 
    7  170    8  7.676e-06  7.002e-05  0.0820 y y y y y y y y 
    8  180    9  1.590e-06  1.453e-05  0.0820 y y y y y y y y 
    9  190   10  3.298e-07  3.014e-06  0.0820 y y y y y y y y Converged.
--------------------------------------------------------------------------------
  Davidson Summary: 
 ------------------------------------------------------------
  State  0: electron attachment energy =   0.0820 a.u.   (converged)
  State  1: electron attachment energy =   0.1510 a.u.   (converged)
  State  2: electron attachment energy =   0.2397 a.u.   (converged)
  State  3: electron attachment energy =   0.3074 a.u.   (converged)
  State  4: electron attachment energy =   0.3297 a.u.   (converged)
  State  5: electron attachment energy =   0.3566 a.u.   (converged)
  State  6: electron attachment energy =   0.3619 a.u.   (converged)
  State  7: electron attachment energy =   0.3797 a.u.   (converged)
  State  8: electron attachment energy =   0.3967 a.u.   (converged)
  State  9: electron attachment energy =   0.4041 a.u.   (converged)
 ------------------------------------------------------------


--------------------------------------------------------------------------------
                        Electron-Attached State Summary
--------------------------------------------------------------------------------

  Electron-attached state 1 (B2g)                                  [converged]
  ----------------------------------------------------------------------------
  Term symbol:  1 (2) B2g                                   R^2 =  1.95771e-08

  Total energy:                                            -78.2633384856 a.u.
  Electron attachment energy:                                      2.232453 eV

  Pole strength:                                                      0.948991

  Dip. moment [a.u.]:                  [   0.000000,   -0.000000,    0.000000]
  Total dipole [Debye]:                                               0.000001
  <r^2> [a.u.]:                        [  62.873419,   27.678797,   26.103602]
  Total <r^2> [a.u.]:                                               116.655818

  V1^2 = 0.9574, V2^2 = 0.0426

  Important amplitudes:
       occ i       vir a        vir b           v   
    -------------------------------------------------
                               1 (B2g) B     -0.9520
                               2 (B2g) B     -0.2211
    -------------------------------------------------

  Density matrix analysis:
  ------------------------
  NOs (alpha)
    Occupation of frontier NOs:
       0.0197   0.9617
    Number of electrons:  8.000000
  NOs (beta)
    Occupation of frontier NOs:
       0.0282   0.9709
    Number of electrons:  9.000000
  NOs (spin-traced)
    Occupation of frontier NOs:
       0.0401   0.9832
    Number of electrons: 17.000000
    Number of unpaired electrons: n_u =  1.43641, n_u,nl =  1.05146
    NO participation ratio (PR_NO):  2.104704
  
  
  Mulliken Population Analysis
  Atom  Charge (e)    Spin (e)  h+ (alpha)   h+ (beta)  e- (alpha)   e- (beta)
  ----------------------------------------------------------------------------
   1 C   -0.641945    0.545033    0.087431    0.065315   -0.028976   -0.551894
   2 C   -0.641945    0.545033    0.087431    0.065315   -0.028976   -0.551894
   3 H    0.070967   -0.022516    0.000239    0.006326   -0.029466   -0.013037
   4 H    0.070985   -0.022516    0.000239    0.006326   -0.029466   -0.013037
   5 H    0.070978   -0.022516    0.000239    0.006326   -0.029466   -0.013037
   6 H    0.070960   -0.022516    0.000239    0.006326   -0.029466   -0.013037
  ----------------------------------------------------------------------------
  Sum:   -1.000000    1.000000    0.175817    0.155936   -0.175817   -1.155936
  
  Multipole moment analysis of the density matrix
    Molecular charge:                      -1.000000
    Number of electrons:                   17.000000
      Center of electronic charge [Ang]: [ -0.000000,   0.000000,  -0.000000]
    Total nuclear charge:                  16.000000
      Center of nuclear charge [Ang]:    [  0.000000,   0.000000,   0.000000]
    Dipole moment [D]:                     0.000001
      Cartesian components [D]:          [  0.000000,  -0.000001,   0.000000]
    RMS size of the density [Ang]:         1.386213
      Cartesian components [Ang]:        [  1.017678,   0.675228,   0.655733]
  
  Exciton analysis of the difference density matrix
  Total:
    <r_h> [Ang]:                  [ -0.000000,   0.000000,   0.000000]
    <r_e> [Ang]:                  [ -0.000000,  -0.000000,  -0.000000]
    |<r_e - r_h>| [Ang]:            0.000000
    Hole size [Ang]:                1.881300
      Cartesian components [Ang]: [  1.200273,   0.944022,   1.098844]
    Electron size [Ang]:            2.864386
      Cartesian components [Ang]: [  1.877127,   1.176397,   1.815818]
  
  Alpha spin:
    <r_h> [Ang]:                  [ -0.000000,   0.000000,   0.000000]
    <r_e> [Ang]:                  [ -0.000000,  -0.000000,   0.000000]
    |<r_e - r_h>| [Ang]:            0.000001
    Hole size [Ang]:                1.811395
      Cartesian components [Ang]: [  1.161353,   0.906424,   1.053947]
    Electron size [Ang]:            2.526693
      Cartesian components [Ang]: [  1.504087,   1.369390,   1.498890]
  
  Beta spin:
    <r_h> [Ang]:                  [  0.000000,   0.000000,   0.000000]
    <r_e> [Ang]:                  [ -0.000000,  -0.000000,  -0.000000]
    |<r_e - r_h>| [Ang]:            0.000000
    Hole size [Ang]:                1.957126
      Cartesian components [Ang]: [  1.242694,   0.984694,   1.147360]
    Electron size [Ang]:            2.912320
      Cartesian components [Ang]: [  1.927550,   1.144195,   1.859295]
  ----------------------------------------------------------------------------


  Electron-attached state 2 (B2g)                                  [converged]
  ----------------------------------------------------------------------------
  Term symbol:  2 (2) B2g                                   R^2 =  4.28950e-08

  Total energy:                                            -78.1943541110 a.u.
  Electron attachment energy:                                      4.109614 eV

  Pole strength:                                                      0.911270

  Dip. moment [a.u.]:                  [   0.000000,   -0.000000,    0.000000]
  Total dipole [Debye]:                                               0.000001
  <r^2> [a.u.]:                        [  66.528561,   29.170809,   30.430949]
  Total <r^2> [a.u.]:                                               126.130319

  V1^2 = 0.9191, V2^2 = 0.0809

  Important amplitudes:
       occ i       vir a        vir b           v   
    -------------------------------------------------
                               2 (B2g) B      0.9153
                               1 (B2g) B     -0.2697
    -------------------------------------------------

  Density matrix analysis:
  ------------------------
  NOs (alpha)
    Occupation of frontier NOs:
       0.0326   0.9312
    Number of electrons:  8.000000
  NOs (beta)
    Occupation of frontier NOs:
       0.0479   0.9428
    Number of electrons:  9.000000
  NOs (spin-traced)
    Occupation of frontier NOs:
       0.0672   0.9561
    Number of electrons: 17.000000
    Number of unpaired electrons: n_u =  1.51225, n_u,nl =  1.08883
    NO participation ratio (PR_NO):  2.435797
  
  
  Mulliken Population Analysis
  Atom  Charge (e)    Spin (e)  h+ (alpha)   h+ (beta)  e- (alpha)   e- (beta)
  ----------------------------------------------------------------------------
   1 C   -0.619768    0.522839    0.114328    0.049437   -0.055882   -0.513830
   2 C   -0.619768    0.522839    0.114328    0.049437   -0.055882   -0.513830
   3 H    0.059878   -0.011420    0.001270    0.003792   -0.030493   -0.021596
   4 H    0.059896   -0.011420    0.001270    0.003792   -0.030493   -0.021596
   5 H    0.059889   -0.011420    0.001270    0.003792   -0.030494   -0.021596
   6 H    0.059872   -0.011420    0.001270    0.003792   -0.030494   -0.021596
  ----------------------------------------------------------------------------
  Sum:   -1.000000    1.000000    0.233737    0.114043   -0.233737   -1.114043
  
  Multipole moment analysis of the density matrix
    Molecular charge:                      -1.000000
    Number of electrons:                   17.000000
      Center of electronic charge [Ang]: [ -0.000000,   0.000000,  -0.000000]
    Total nuclear charge:                  16.000000
      Center of nuclear charge [Ang]:    [  0.000000,   0.000000,   0.000000]
    Dipole moment [D]:                     0.000001
      Cartesian components [D]:          [  0.000000,  -0.000001,   0.000000]
    RMS size of the density [Ang]:         1.441406
      Cartesian components [Ang]:        [  1.046841,   0.693188,   0.708002]
  
  Exciton analysis of the difference density matrix
  Total:
    <r_h> [Ang]:                  [ -0.000000,   0.000000,   0.000000]
    <r_e> [Ang]:                  [ -0.000000,  -0.000000,  -0.000000]
    |<r_e - r_h>| [Ang]:            0.000000
    Hole size [Ang]:                1.719706
      Cartesian components [Ang]: [  1.109549,   0.862551,   0.991108]
    Electron size [Ang]:            3.157149
      Cartesian components [Ang]: [  2.050412,   1.284549,   2.028136]
  
  Alpha spin:
    <r_h> [Ang]:                  [ -0.000000,   0.000000,   0.000000]
    <r_e> [Ang]:                  [ -0.000000,  -0.000000,   0.000000]
    |<r_e - r_h>| [Ang]:            0.000000
    Hole size [Ang]:                1.712283
      Cartesian components [Ang]: [  1.087316,   0.834050,   1.026653]
    Electron size [Ang]:            2.629897
      Cartesian components [Ang]: [  1.516291,   1.357459,   1.665690]
  
  Beta spin:
    <r_h> [Ang]:                  [ -0.000000,   0.000000,  -0.000000]
    <r_e> [Ang]:                  [ -0.000000,  -0.000000,  -0.000000]
    |<r_e - r_h>| [Ang]:            0.000000
    Hole size [Ang]:                1.734821
      Cartesian components [Ang]: [  1.153777,   0.918206,   0.913946]
    Electron size [Ang]:            3.256957
      Cartesian components [Ang]: [  2.145667,   1.268721,   2.096242]
  ----------------------------------------------------------------------------


  Electron-attached state 3 (B2g)                                  [converged]
  ----------------------------------------------------------------------------
  Term symbol:  3 (2) B2g                                   R^2 =  6.82354e-08

  Total energy:                                            -78.1056657815 a.u.
  Electron attachment energy:                                      6.522946 eV

  Pole strength:                                                      0.058483

  Dip. moment [a.u.]:                  [   0.000000,   -0.000000,   -0.000000]
  Total dipole [Debye]:                                               0.000001
  <r^2> [a.u.]:                        [  60.603766,   31.992975,   40.431285]
  Total <r^2> [a.u.]:                                               133.028026

  V1^2 = 0.0591, V2^2 = 0.9409

  Important amplitudes:
       occ i       vir a        vir b           v   
    -------------------------------------------------
     1 (B1u) A    2 (B1u) A    2 (B2g) B      0.4010
     1 (B1u) A    2 (B1u) A    1 (B2g) B      0.3537
    -------------------------------------------------

  Density matrix analysis:
  ------------------------
  NOs (alpha)
    Occupation of frontier NOs:
       0.1828   0.6657
    Number of electrons:  8.000000
  NOs (beta)
    Occupation of frontier NOs:
       0.2988   0.8225
    Number of electrons:  9.000000
  NOs (spin-traced)
    Occupation of frontier NOs:
       0.7393   1.0050
    Number of electrons: 17.000000
    Number of unpaired electrons: n_u =  2.90142, n_u,nl =  2.82081
    NO participation ratio (PR_NO):  3.855293
  
  
  Mulliken Population Analysis
  Atom  Charge (e)    Spin (e)  h+ (alpha)   h+ (beta)  e- (alpha)   e- (beta)
  ----------------------------------------------------------------------------
   1 C   -0.678869    0.495555    0.411377    0.091235   -0.396123   -0.571537
   2 C   -0.678869    0.495555    0.411377    0.091235   -0.396123   -0.571537
   3 H    0.089429    0.002222    0.001573    0.000915   -0.009200   -0.010764
   4 H    0.089447    0.002222    0.001573    0.000915   -0.009200   -0.010764
   5 H    0.089440    0.002222    0.001573    0.000915   -0.009200   -0.010764
   6 H    0.089422    0.002222    0.001573    0.000915   -0.009200   -0.010764
  ----------------------------------------------------------------------------
  Sum:   -1.000000    1.000000    0.829045    0.186130   -0.829045   -1.186130
  
  Multipole moment analysis of the density matrix
    Molecular charge:                      -1.000000
    Number of electrons:                   17.000000
      Center of electronic charge [Ang]: [ -0.000000,   0.000000,   0.000000]
    Total nuclear charge:                  16.000000
      Center of nuclear charge [Ang]:    [  0.000000,   0.000000,   0.000000]
    Dipole moment [D]:                     0.000001
      Cartesian components [D]:          [  0.000000,  -0.000001,  -0.000000]
    RMS size of the density [Ang]:         1.480295
      Cartesian components [Ang]:        [  0.999140,   0.725945,   0.816085]
  
  Exciton analysis of the difference density matrix
  Total:
    <r_h> [Ang]:                  [ -0.000000,   0.000000,   0.000000]
    <r_e> [Ang]:                  [  0.000000,   0.000000,   0.000000]
    |<r_e - r_h>| [Ang]:            0.000000
    Hole size [Ang]:                1.405805
      Cartesian components [Ang]: [  0.822315,   0.598464,   0.970529]
    Electron size [Ang]:            2.847838
      Cartesian components [Ang]: [  1.454889,   1.244101,   2.108481]
  
  Alpha spin:
    <r_h> [Ang]:                  [ -0.000000,   0.000000,   0.000000]
    <r_e> [Ang]:                  [  0.000000,   0.000000,   0.000000]
    |<r_e - r_h>| [Ang]:            0.000000
    Hole size [Ang]:                1.392067
      Cartesian components [Ang]: [  0.810372,   0.586379,   0.968146]
    Electron size [Ang]:            3.383433
      Cartesian components [Ang]: [  1.606478,   1.506858,   2.568312]
  
  Beta spin:
    <r_h> [Ang]:                  [ -0.000000,   0.000000,   0.000000]
    <r_e> [Ang]:                  [ -0.000000,   0.000000,   0.000000]
    |<r_e - r_h>| [Ang]:            0.000000
    Hole size [Ang]:                1.465431
      Cartesian components [Ang]: [  0.873528,   0.649567,   0.981070]
    Electron size [Ang]:            2.403639
      Cartesian components [Ang]: [  1.338782,   1.021060,   1.715395]
  ----------------------------------------------------------------------------


  Electron-attached state 4 (B2g)                                  [converged]
  ----------------------------------------------------------------------------
  Term symbol:  4 (2) B2g                                   R^2 =  2.02967e-08

  Total energy:                                            -78.0379482505 a.u.
  Electron attachment energy:                                      8.365634 eV

  Pole strength:                                                      0.000709

  Dip. moment [a.u.]:                  [   0.000000,   -0.000001,   -0.000000]
  Total dipole [Debye]:                                               0.000003
  <r^2> [a.u.]:                        [ 103.447416,   38.208969,   26.437674]
  Total <r^2> [a.u.]:                                               168.094059

  V1^2 = 0.0007, V2^2 = 0.9993

  Important amplitudes:
       occ i       vir a        vir b           v   
    -------------------------------------------------
     1 (B1u) B    4 (Ag ) B    3 (B3u) B     -0.5113
     1 (B1u) A    3 (B3u) A    4 (Ag ) B      0.3053
    -------------------------------------------------

  Density matrix analysis:
  ------------------------
  NOs (alpha)
    Occupation of frontier NOs:
       0.2602   0.6043
    Number of electrons:  8.000000
  NOs (beta)
    Occupation of frontier NOs:
       0.3361   0.7123
    Number of electrons:  9.000000
  NOs (spin-traced)
    Occupation of frontier NOs:
       0.9402   0.9547
    Number of electrons: 17.000000
    Number of unpaired electrons: n_u =  3.28657, n_u,nl =  3.02473
    NO participation ratio (PR_NO):  3.929172
  
  
  Mulliken Population Analysis
  Atom  Charge (e)    Spin (e)  h+ (alpha)   h+ (beta)  e- (alpha)   e- (beta)
  ----------------------------------------------------------------------------
   1 C   -0.721759    0.528706    0.180496    0.313407   -0.170112   -0.831729
   2 C   -0.721759    0.528706    0.180496    0.313407   -0.170112   -0.831729
   3 H    0.110874   -0.014353    0.001073    0.001829   -0.006265    0.007333
   4 H    0.110891   -0.014352    0.001073    0.001829   -0.006265    0.007332
   5 H    0.110885   -0.014352    0.001073    0.001829   -0.006265    0.007332
   6 H    0.110868   -0.014353    0.001073    0.001829   -0.006265    0.007333
  ----------------------------------------------------------------------------
  Sum:   -1.000000    1.000000    0.365286    0.634129   -0.365286   -1.634129
  
  Multipole moment analysis of the density matrix
    Molecular charge:                      -1.000000
    Number of electrons:                   17.000000
      Center of electronic charge [Ang]: [ -0.000000,   0.000000,   0.000000]
    Total nuclear charge:                  16.000000
      Center of nuclear charge [Ang]:    [  0.000000,   0.000000,   0.000000]
    Dipole moment [D]:                     0.000003
      Cartesian components [D]:          [  0.000000,  -0.000003,  -0.000000]
    RMS size of the density [Ang]:         1.663998
      Cartesian components [Ang]:        [  1.305379,   0.793340,   0.659915]
  
  Exciton analysis of the difference density matrix
  Total:
    <r_h> [Ang]:                  [ -0.000000,   0.000000,   0.000000]
    <r_e> [Ang]:                  [ -0.000000,   0.000000,   0.000000]
    |<r_e - r_h>| [Ang]:            0.000000
    Hole size [Ang]:                1.253202
      Cartesian components [Ang]: [  0.748821,   0.510984,   0.865262]
    Electron size [Ang]:            3.587044
      Cartesian components [Ang]: [  2.840918,   1.542476,   1.554618]
  
  Alpha spin:
    <r_h> [Ang]:                  [ -0.000000,   0.000000,   0.000000]
    <r_e> [Ang]:                  [ -0.000000,   0.000000,   0.000000]
    |<r_e - r_h>| [Ang]:            0.000000
    Hole size [Ang]:                1.252237
      Cartesian components [Ang]: [  0.748656,   0.510591,   0.864238]
    Electron size [Ang]:            3.880591
      Cartesian components [Ang]: [  3.196175,   1.576114,   1.536007]
  
  Beta spin:
    <r_h> [Ang]:                  [ -0.000000,   0.000000,   0.000000]
    <r_e> [Ang]:                  [ -0.000000,   0.000000,   0.000000]
    |<r_e - r_h>| [Ang]:            0.000000
    Hole size [Ang]:                1.253758
      Cartesian components [Ang]: [  0.748916,   0.511210,   0.865851]
    Electron size [Ang]:            3.518077
      Cartesian components [Ang]: [  2.755248,   1.534856,   1.558748]
  ----------------------------------------------------------------------------


  Electron-attached state 5 (B2g)                                  [converged]
  ----------------------------------------------------------------------------
  Term symbol:  5 (2) B2g                                   R^2 =  7.27426e-08

  Total energy:                                            -78.0156948921 a.u.
  Electron attachment energy:                                      8.971178 eV

  Pole strength:                                                      0.000099

  Dip. moment [a.u.]:                  [   0.000000,   -0.000001,   -0.000000]
  Total dipole [Debye]:                                               0.000003
  <r^2> [a.u.]:                        [  90.936465,   40.605172,   29.169695]
  Total <r^2> [a.u.]:                                               160.711333

  V1^2 = 0.0001, V2^2 = 0.9999

  Important amplitudes:
       occ i       vir a        vir b           v   
    -------------------------------------------------
     1 (B1u) A    3 (B3u) A    5 (Ag ) B     -0.4018
     1 (B1u) A    5 (Ag ) A    3 (B3u) B     -0.3583
    -------------------------------------------------

  Density matrix analysis:
  ------------------------
  NOs (alpha)
    Occupation of frontier NOs:
       0.3921   0.4638
    Number of electrons:  8.000000
  NOs (beta)
    Occupation of frontier NOs:
       0.3936   0.5125
    Number of electrons:  9.000000
  NOs (spin-traced)
    Occupation of frontier NOs:
       0.8372   0.9045
    Number of electrons: 17.000000
    Number of unpaired electrons: n_u =  3.28796, n_u,nl =  3.01054
    NO participation ratio (PR_NO):  4.455667
  
  
  Mulliken Population Analysis
  Atom  Charge (e)    Spin (e)  h+ (alpha)   h+ (beta)  e- (alpha)   e- (beta)
  ----------------------------------------------------------------------------
   1 C   -0.726542    0.482607    0.464377    0.029687   -0.479434   -0.527351
   2 C   -0.726542    0.482607    0.464377    0.029687   -0.479434   -0.527351
   3 H    0.113266    0.008697    0.002757    0.000192    0.004772   -0.001360
   4 H    0.113282    0.008696    0.002757    0.000192    0.004771   -0.001361
   5 H    0.113276    0.008696    0.002757    0.000192    0.004771   -0.001361
   6 H    0.113260    0.008697    0.002757    0.000192    0.004772   -0.001360
  ----------------------------------------------------------------------------
  Sum:   -1.000000    1.000000    0.939782    0.060144   -0.939782   -1.060144
  
  Multipole moment analysis of the density matrix
    Molecular charge:                      -1.000000
    Number of electrons:                   17.000000
      Center of electronic charge [Ang]: [ -0.000000,   0.000000,   0.000000]
    Total nuclear charge:                  16.000000
      Center of nuclear charge [Ang]:    [  0.000000,   0.000000,   0.000000]
    Dipole moment [D]:                     0.000003
      Cartesian components [D]:          [  0.000000,  -0.000003,  -0.000000]
    RMS size of the density [Ang]:         1.627046
      Cartesian components [Ang]:        [  1.223899,   0.817838,   0.693175]
  
  Exciton analysis of the difference density matrix
  Total:
    <r_h> [Ang]:                  [ -0.000000,   0.000000,   0.000000]
    <r_e> [Ang]:                  [ -0.000000,   0.000000,   0.000000]
    |<r_e - r_h>| [Ang]:            0.000000
    Hole size [Ang]:                1.252460
      Cartesian components [Ang]: [  0.748490,   0.510747,   0.864613]
    Electron size [Ang]:            3.439381
      Cartesian components [Ang]: [  2.513339,   1.647448,   1.672838]
  
  Alpha spin:
    <r_h> [Ang]:                  [ -0.000000,   0.000000,   0.000000]
    <r_e> [Ang]:                  [ -0.000000,   0.000000,   0.000000]
    |<r_e - r_h>| [Ang]:            0.000000
    Hole size [Ang]:                1.252634
      Cartesian components [Ang]: [  0.748492,   0.510785,   0.864842]
    Electron size [Ang]:            3.385997
      Cartesian components [Ang]: [  2.435493,   1.652381,   1.674212]
  
  Beta spin:
    <r_h> [Ang]:                  [ -0.000000,   0.000000,   0.000000]
    <r_e> [Ang]:                  [ -0.000000,   0.000000,   0.000000]
    |<r_e - r_h>| [Ang]:            0.000000
    Hole size [Ang]:                1.249736
      Cartesian components [Ang]: [  0.748472,   0.510141,   0.861038]
    Electron size [Ang]:            3.486021
      Cartesian components [Ang]: [  2.580383,   1.643064,   1.671618]
  ----------------------------------------------------------------------------


  Electron-attached state 6 (B2g)                                  [converged]
  ----------------------------------------------------------------------------
  Term symbol:  6 (2) B2g                                   R^2 =  2.51813e-07

  Total energy:                                            -77.9887907224 a.u.
  Electron attachment energy:                                      9.703278 eV

  Pole strength:                                                      0.043694

  Dip. moment [a.u.]:                  [   0.000000,   -0.000001,   -0.000000]
  Total dipole [Debye]:                                               0.000002
  <r^2> [a.u.]:                        [  81.222478,   37.201867,   39.646638]
  Total <r^2> [a.u.]:                                               158.070983

  V1^2 = 0.0438, V2^2 = 0.9562

  Important amplitudes:
       occ i       vir a        vir b           v   
    -------------------------------------------------
     1 (B1u) B    1 (B2g) B    2 (B1u) B     -0.3884
     1 (B1u) A    1 (B2g) A    2 (B1u) B     -0.3256
    -------------------------------------------------

  Density matrix analysis:
  ------------------------
  NOs (alpha)
    Occupation of frontier NOs:
       0.2557   0.5576
    Number of electrons:  8.000000
  NOs (beta)
    Occupation of frontier NOs:
       0.3383   0.4465
    Number of electrons:  9.000000
  NOs (spin-traced)
    Occupation of frontier NOs:
       0.5867   0.5902
    Number of electrons: 17.000000
    Number of unpaired electrons: n_u =  3.31704, n_u,nl =  2.93356
    NO participation ratio (PR_NO):  5.919228
  
  
  Mulliken Population Analysis
  Atom  Charge (e)    Spin (e)  h+ (alpha)   h+ (beta)  e- (alpha)   e- (beta)
  ----------------------------------------------------------------------------
   1 C   -0.690674    0.486947    0.210847    0.262156   -0.205800   -0.744055
   2 C   -0.690674    0.486947    0.210847    0.262156   -0.205800   -0.744055
   3 H    0.095331    0.006527    0.001651    0.001560   -0.004174   -0.010610
   4 H    0.095349    0.006526    0.001651    0.001560   -0.004174   -0.010610
   5 H    0.095342    0.006526    0.001651    0.001560   -0.004174   -0.010610
   6 H    0.095325    0.006527    0.001651    0.001560   -0.004174   -0.010610
  ----------------------------------------------------------------------------
  Sum:   -1.000000    1.000000    0.428296    0.530551   -0.428296   -1.530551
  
  Multipole moment analysis of the density matrix
    Molecular charge:                      -1.000000
    Number of electrons:                   17.000000
      Center of electronic charge [Ang]: [ -0.000000,   0.000000,   0.000000]
    Total nuclear charge:                  16.000000
      Center of nuclear charge [Ang]:    [  0.000000,   0.000000,   0.000000]
    Dipole moment [D]:                     0.000002
      Cartesian components [D]:          [  0.000000,  -0.000002,  -0.000000]
    RMS size of the density [Ang]:         1.613625
      Cartesian components [Ang]:        [  1.156684,   0.782815,   0.808127]
  
  Exciton analysis of the difference density matrix
  Total:
    <r_h> [Ang]:                  [  0.000000,   0.000000,   0.000000]
    <r_e> [Ang]:                  [ -0.000000,   0.000000,   0.000000]
    |<r_e - r_h>| [Ang]:            0.000000
    Hole size [Ang]:                1.257498
      Cartesian components [Ang]: [  0.757523,   0.518159,   0.859636]
    Electron size [Ang]:            3.416614
      Cartesian components [Ang]: [  2.248462,   1.510875,   2.082050]
  
  Alpha spin:
    <r_h> [Ang]:                  [  0.000000,   0.000000,   0.000000]
    <r_e> [Ang]:                  [ -0.000000,  -0.000000,   0.000000]
    |<r_e - r_h>| [Ang]:            0.000000
    Hole size [Ang]:                1.252065
      Cartesian components [Ang]: [  0.759231,   0.516853,   0.850939]
    Electron size [Ang]:            3.031976
      Cartesian components [Ang]: [  2.080208,   1.374665,   1.725083]
  
  Beta spin:
    <r_h> [Ang]:                  [  0.000000,   0.000000,   0.000000]
    <r_e> [Ang]:                  [ -0.000000,   0.000000,   0.000000]
    |<r_e - r_h>| [Ang]:            0.000000
    Hole size [Ang]:                1.261868
      Cartesian components [Ang]: [  0.756141,   0.519210,   0.866593]
    Electron size [Ang]:            3.516723
      Cartesian components [Ang]: [  2.293335,   1.546844,   2.171457]
  ----------------------------------------------------------------------------


  Electron-attached state 7 (B2g)                                  [converged]
  ----------------------------------------------------------------------------
  Term symbol:  7 (2) B2g                                   R^2 =  2.34103e-07

  Total energy:                                            -77.9835051436 a.u.
  Electron attachment energy:                                      9.847106 eV

  Pole strength:                                                      0.014725

  Dip. moment [a.u.]:                  [   0.000000,   -0.000001,   -0.000000]
  Total dipole [Debye]:                                               0.000002
  <r^2> [a.u.]:                        [  87.331573,   47.489138,   30.920523]
  Total <r^2> [a.u.]:                                               165.741234

  V1^2 = 0.0148, V2^2 = 0.9852

  Important amplitudes:
       occ i       vir a        vir b           v   
    -------------------------------------------------
     1 (B1u) B    5 (Ag ) B    3 (B3u) B      0.3173
     1 (B1u) B    2 (B1g) B    2 (B2u) B     -0.3166
    -------------------------------------------------

  Density matrix analysis:
  ------------------------
  NOs (alpha)
    Occupation of frontier NOs:
       0.1314   0.6063
    Number of electrons:  8.000000
  NOs (beta)
    Occupation of frontier NOs:
       0.3174   0.3232
    Number of electrons:  9.000000
  NOs (spin-traced)
    Occupation of frontier NOs:
       0.3854   0.3855
    Number of electrons: 17.000000
    Number of unpaired electrons: n_u =  3.31132, n_u,nl =  2.84784
    NO participation ratio (PR_NO):  6.837762
  
  
  Mulliken Population Analysis
  Atom  Charge (e)    Spin (e)  h+ (alpha)   h+ (beta)  e- (alpha)   e- (beta)
  ----------------------------------------------------------------------------
   1 C   -0.606515    0.422401    0.182530    0.303152   -0.167676   -0.710700
   2 C   -0.606515    0.422401    0.182530    0.303152   -0.167676   -0.710700
   3 H    0.053252    0.038799    0.001602    0.001949   -0.009028   -0.048175
   4 H    0.053270    0.038799    0.001602    0.001949   -0.009028   -0.048175
   5 H    0.053263    0.038800    0.001602    0.001949   -0.009028   -0.048175
   6 H    0.053246    0.038799    0.001602    0.001949   -0.009028   -0.048175
  ----------------------------------------------------------------------------
  Sum:   -1.000000    1.000000    0.371465    0.614099   -0.371465   -1.614099
  
  Multipole moment analysis of the density matrix
    Molecular charge:                      -1.000000
    Number of electrons:                   17.000000
      Center of electronic charge [Ang]: [ -0.000000,   0.000000,   0.000000]
    Total nuclear charge:                  16.000000
      Center of nuclear charge [Ang]:    [  0.000000,   0.000000,   0.000000]
    Dipole moment [D]:                     0.000002
      Cartesian components [D]:          [  0.000000,  -0.000002,  -0.000000]
    RMS size of the density [Ang]:         1.652312
      Cartesian components [Ang]:        [  1.199395,   0.884451,   0.713674]
  
  Exciton analysis of the difference density matrix
  Total:
    <r_h> [Ang]:                  [  0.000000,   0.000000,   0.000000]
    <r_e> [Ang]:                  [ -0.000000,   0.000000,   0.000000]
    |<r_e - r_h>| [Ang]:            0.000000
    Hole size [Ang]:                1.253218
      Cartesian components [Ang]: [  0.752508,   0.513767,   0.860425]
    Electron size [Ang]:            3.551603
      Cartesian components [Ang]: [  2.419318,   1.924637,   1.748301]
  
  Alpha spin:
    <r_h> [Ang]:                  [  0.000000,   0.000000,   0.000000]
    <r_e> [Ang]:                  [ -0.000000,   0.000000,   0.000000]
    |<r_e - r_h>| [Ang]:            0.000000
    Hole size [Ang]:                1.251884
      Cartesian components [Ang]: [  0.755255,   0.515101,   0.855263]
    Electron size [Ang]:            3.406492
      Cartesian components [Ang]: [  2.394812,   1.821010,   1.597808]
  
  Beta spin:
    <r_h> [Ang]:                  [  0.000000,   0.000000,   0.000000]
    <r_e> [Ang]:                  [ -0.000000,   0.000000,   0.000000]
    |<r_e - r_h>| [Ang]:            0.000000
    Hole size [Ang]:                1.254025
      Cartesian components [Ang]: [  0.750841,   0.512959,   0.863533]
    Electron size [Ang]:            3.584167
      Cartesian components [Ang]: [  2.424922,   1.947705,   1.781136]
  ----------------------------------------------------------------------------


  Electron-attached state 8 (B2g)                                  [converged]
  ----------------------------------------------------------------------------
  Term symbol:  8 (2) B2g                                   R^2 =  1.92936e-07

  Total energy:                                            -77.9656391980 a.u.
  Electron attachment energy:                                     10.333263 eV

  Pole strength:                                                      0.002879

  Dip. moment [a.u.]:                  [   0.000000,   -0.000001,    0.000000]
  Total dipole [Debye]:                                               0.000003
  <r^2> [a.u.]:                        [  88.156775,   57.472732,   25.850472]
  Total <r^2> [a.u.]:                                               171.479979

  V1^2 = 0.0029, V2^2 = 0.9971

  Important amplitudes:
       occ i       vir a        vir b           v   
    -------------------------------------------------
     1 (B1u) B    2 (B1g) B    2 (B2u) B      0.4355
     1 (B1u) B    5 (Ag ) B    3 (B3u) B      0.3177
    -------------------------------------------------

  Density matrix analysis:
  ------------------------
  NOs (alpha)
    Occupation of frontier NOs:
       0.1308   0.6253
    Number of electrons:  8.000000
  NOs (beta)
    Occupation of frontier NOs:
       0.3197   0.4859
    Number of electrons:  9.000000
  NOs (spin-traced)
    Occupation of frontier NOs:
       0.6167   0.6180
    Number of electrons: 17.000000
    Number of unpaired electrons: n_u =  3.29136, n_u,nl =  3.13577
    NO participation ratio (PR_NO):  5.707957
  
  
  Mulliken Population Analysis
  Atom  Charge (e)    Spin (e)  h+ (alpha)   h+ (beta)  e- (alpha)   e- (beta)
  ----------------------------------------------------------------------------
   1 C   -0.547604    0.387464    0.170651    0.321782   -0.143810   -0.682405
   2 C   -0.547604    0.387464    0.170651    0.321782   -0.143810   -0.682405
   3 H    0.023797    0.056268    0.001135    0.001934   -0.014555   -0.071622
   4 H    0.023814    0.056268    0.001135    0.001934   -0.014555   -0.071623
   5 H    0.023807    0.056268    0.001135    0.001934   -0.014555   -0.071623
   6 H    0.023790    0.056268    0.001135    0.001934   -0.014555   -0.071623
  ----------------------------------------------------------------------------
  Sum:   -1.000000    1.000000    0.345841    0.651302   -0.345841   -1.651302
  
  Multipole moment analysis of the density matrix
    Molecular charge:                      -1.000000
    Number of electrons:                   17.000000
      Center of electronic charge [Ang]: [ -0.000000,   0.000000,  -0.000000]
    Total nuclear charge:                  16.000000
      Center of nuclear charge [Ang]:    [  0.000000,   0.000000,   0.000000]
    Dipole moment [D]:                     0.000003
      Cartesian components [D]:          [  0.000000,  -0.000003,   0.000000]
    RMS size of the density [Ang]:         1.680674
      Cartesian components [Ang]:        [  1.205048,   0.972988,   0.652546]
  
  Exciton analysis of the difference density matrix
  Total:
    <r_h> [Ang]:                  [ -0.000000,   0.000000,   0.000000]
    <r_e> [Ang]:                  [ -0.000000,   0.000000,  -0.000000]
    |<r_e - r_h>| [Ang]:            0.000000
    Hole size [Ang]:                1.252365
      Cartesian components [Ang]: [  0.749190,   0.511147,   0.863633]
    Electron size [Ang]:            3.654237
      Cartesian components [Ang]: [  2.436322,   2.254504,   1.528069]
  
  Alpha spin:
    <r_h> [Ang]:                  [ -0.000000,   0.000000,   0.000000]
    <r_e> [Ang]:                  [ -0.000000,   0.000000,  -0.000000]
    |<r_e - r_h>| [Ang]:            0.000000
    Hole size [Ang]:                1.253155
      Cartesian components [Ang]: [  0.750418,   0.512065,   0.863168]
    Electron size [Ang]:            3.673024
      Cartesian components [Ang]: [  2.475939,   2.250089,   1.515892]
  
  Beta spin:
    <r_h> [Ang]:                  [ -0.000000,   0.000000,   0.000000]
    <r_e> [Ang]:                  [ -0.000000,   0.000000,  -0.000000]
    |<r_e - r_h>| [Ang]:            0.000000
    Hole size [Ang]:                1.251946
      Cartesian components [Ang]: [  0.748538,   0.510660,   0.863879]
    Electron size [Ang]:            3.650290
      Cartesian components [Ang]: [  2.427943,   2.255427,   1.530607]
  ----------------------------------------------------------------------------


  Electron-attached state 9 (B2g)                                  [converged]
  ----------------------------------------------------------------------------
  Term symbol:  9 (2) B2g                                   R^2 =  3.01448e-06

  Total energy:                                            -77.9486910224 a.u.
  Electron attachment energy:                                     10.794446 eV

  Pole strength:                                                      0.561493

  Dip. moment [a.u.]:                  [   0.000000,   -0.000001,   -0.000000]
  Total dipole [Debye]:                                               0.000003
  <r^2> [a.u.]:                        [  71.326852,   31.348386,   28.047025]
  Total <r^2> [a.u.]:                                               130.722263

  V1^2 = 0.5629, V2^2 = 0.4371

  Important amplitudes:
       occ i       vir a        vir b           v   
    -------------------------------------------------
                               3 (B2g) B      0.7380
     1 (B1u) A    1 (B2g) A    2 (B1u) B     -0.1581
    -------------------------------------------------

  Density matrix analysis:
  ------------------------
  NOs (alpha)
    Occupation of frontier NOs:
       0.1107   0.7271
    Number of electrons:  8.000000
  NOs (beta)
    Occupation of frontier NOs:
       0.1349   0.5708
    Number of electrons:  9.000000
  NOs (spin-traced)
    Occupation of frontier NOs:
       0.2280   0.5757
    Number of electrons: 17.000000
    Number of unpaired electrons: n_u =  2.27330, n_u,nl =  1.50165
    NO participation ratio (PR_NO):  8.686282
  
  
  Mulliken Population Analysis
  Atom  Charge (e)    Spin (e)  h+ (alpha)   h+ (beta)  e- (alpha)   e- (beta)
  ----------------------------------------------------------------------------
   1 C   -0.658082    0.475742    0.193764    0.028810   -0.178024   -0.488811
   2 C   -0.658082    0.475742    0.193764    0.028810   -0.178024   -0.488811
   3 H    0.079036    0.012129    0.008887    0.000174   -0.016757   -0.020173
   4 H    0.079053    0.012129    0.008887    0.000174   -0.016757   -0.020173
   5 H    0.079047    0.012129    0.008887    0.000174   -0.016757   -0.020174
   6 H    0.079029    0.012129    0.008887    0.000174   -0.016757   -0.020174
  ----------------------------------------------------------------------------
  Sum:   -1.000000    1.000000    0.423077    0.058316   -0.423077   -1.058316
  
  Multipole moment analysis of the density matrix
    Molecular charge:                      -1.000000
    Number of electrons:                   17.000000
      Center of electronic charge [Ang]: [ -0.000000,   0.000000,   0.000000]
    Total nuclear charge:                  16.000000
      Center of nuclear charge [Ang]:    [  0.000000,   0.000000,   0.000000]
    Dipole moment [D]:                     0.000003
      Cartesian components [D]:          [  0.000000,  -0.000003,  -0.000000]
    RMS size of the density [Ang]:         1.467410
      Cartesian components [Ang]:        [  1.083935,   0.718595,   0.679704]
  
  Exciton analysis of the difference density matrix
  Total:
    <r_h> [Ang]:                  [  0.000000,   0.000000,   0.000000]
    <r_e> [Ang]:                  [ -0.000000,   0.000000,   0.000000]
    |<r_e - r_h>| [Ang]:            0.000000
    Hole size [Ang]:                1.224999
      Cartesian components [Ang]: [  0.872959,   0.558066,   0.653550]
    Electron size [Ang]:            3.119285
      Cartesian components [Ang]: [  2.165788,   1.356248,   1.788825]
  
  Alpha spin:
    <r_h> [Ang]:                  [  0.000000,   0.000000,   0.000000]
    <r_e> [Ang]:                  [ -0.000000,   0.000000,   0.000000]
    |<r_e - r_h>| [Ang]:            0.000000
    Hole size [Ang]:                1.207197
      Cartesian components [Ang]: [  0.862921,   0.541099,   0.648000]
    Electron size [Ang]:            3.291202
      Cartesian components [Ang]: [  2.422030,   1.521198,   1.628416]
  
  Beta spin:
    <r_h> [Ang]:                  [  0.000000,  -0.000000,   0.000000]
    <r_e> [Ang]:                  [ -0.000000,   0.000000,   0.000000]
    |<r_e - r_h>| [Ang]:            0.000000
    Hole size [Ang]:                1.347123
      Cartesian components [Ang]: [  0.942589,   0.668380,   0.692484]
    Electron size [Ang]:            3.047847
      Cartesian components [Ang]: [  2.054429,   1.284394,   1.849061]
  ----------------------------------------------------------------------------


  Electron-attached state 10 (B2g)                                  [converged]
  ----------------------------------------------------------------------------
  Term symbol:  10 (2) B2g                                  R^2 =  1.27349e-06

  Total energy:                                            -77.9412666670 a.u.
  Electron attachment energy:                                     10.996473 eV

  Pole strength:                                                      0.066074

  Dip. moment [a.u.]:                  [   0.000000,   -0.000002,   -0.000000]
  Total dipole [Debye]:                                               0.000006
  <r^2> [a.u.]:                        [  86.089271,   54.192999,   25.124928]
  Total <r^2> [a.u.]:                                               165.407197

  V1^2 = 0.0662, V2^2 = 0.9338

  Important amplitudes:
       occ i       vir a        vir b           v   
    -------------------------------------------------
     1 (B1u) A    2 (B2u) A    2 (B1g) B      0.3646
     1 (B1u) A    2 (B1g) A    2 (B2u) B      0.3300
    -------------------------------------------------

  Density matrix analysis:
  ------------------------
  NOs (alpha)
    Occupation of frontier NOs:
       0.2432   0.2931
    Number of electrons:  8.000000
  NOs (beta)
    Occupation of frontier NOs:
       0.2466   0.2955
    Number of electrons:  9.000000
  NOs (spin-traced)
    Occupation of frontier NOs:
       0.5386   0.5395
    Number of electrons: 17.000000
    Number of unpaired electrons: n_u =  3.27467, n_u,nl =  2.81046
    NO participation ratio (PR_NO):  6.207778
  
  
  Mulliken Population Analysis
  Atom  Charge (e)    Spin (e)  h+ (alpha)   h+ (beta)  e- (alpha)   e- (beta)
  ----------------------------------------------------------------------------
   1 C   -0.542324    0.494417    0.453522    0.009269   -0.370565   -0.420729
   2 C   -0.542324    0.494417    0.453522    0.009269   -0.370565   -0.420729
   3 H    0.021157    0.002792    0.002973    0.000023   -0.044451   -0.044293
   4 H    0.021174    0.002792    0.002973    0.000023   -0.044451   -0.044293
   5 H    0.021167    0.002792    0.002973    0.000023   -0.044452   -0.044293
   6 H    0.021150    0.002792    0.002973    0.000023   -0.044451   -0.044293
  ----------------------------------------------------------------------------
  Sum:   -1.000000    1.000000    0.918936    0.018631   -0.918936   -1.018631
  
  Multipole moment analysis of the density matrix
    Molecular charge:                      -1.000000
    Number of electrons:                   17.000000
      Center of electronic charge [Ang]: [ -0.000000,   0.000000,   0.000000]
    Total nuclear charge:                  16.000000
      Center of nuclear charge [Ang]:    [  0.000000,   0.000000,   0.000000]
    Dipole moment [D]:                     0.000006
      Cartesian components [D]:          [  0.000000,  -0.000006,  -0.000000]
    RMS size of the density [Ang]:         1.650646
      Cartesian components [Ang]:        [  1.190834,   0.944818,   0.643323]
  
  Exciton analysis of the difference density matrix
  Total:
    <r_h> [Ang]:                  [  0.000000,   0.000000,   0.000000]
    <r_e> [Ang]:                  [ -0.000000,   0.000001,   0.000000]
    |<r_e - r_h>| [Ang]:            0.000000
    Hole size [Ang]:                1.257709
      Cartesian components [Ang]: [  0.756867,   0.517004,   0.861215]
    Electron size [Ang]:            3.583940
      Cartesian components [Ang]: [  2.409918,   2.181730,   1.508966]
  
  Alpha spin:
    <r_h> [Ang]:                  [  0.000000,   0.000000,   0.000000]
    <r_e> [Ang]:                  [ -0.000000,   0.000001,   0.000000]
    |<r_e - r_h>| [Ang]:            0.000000
    Hole size [Ang]:                1.255434
      Cartesian components [Ang]: [  0.754377,   0.514382,   0.861650]
    Electron size [Ang]:            3.590084
      Cartesian components [Ang]: [  2.400762,   2.224899,   1.474745]
  
  Beta spin:
    <r_h> [Ang]:                  [  0.000000,  -0.000000,   0.000000]
    <r_e> [Ang]:                  [ -0.000000,   0.000000,   0.000000]
    |<r_e - r_h>| [Ang]:            0.000001
    Hole size [Ang]:                1.365227
      Cartesian components [Ang]: [  0.870892,   0.632989,   0.839474]
    Electron size [Ang]:            3.578388
      Cartesian components [Ang]: [  2.418147,   2.142040,   1.539185]
  ----------------------------------------------------------------------------


--------------------------------------------------------------------------------
  Time of ADC calculation:  CPU 215.10 s  wall 49.76 s
================================================================================
 
 --------------------------------------------------------------
             Orbital Energies (a.u.) and Symmetries
 --------------------------------------------------------------
 
 Alpha MOs, Restricted
 -- Occupied --                  
-11.237 -11.235  -1.042  -0.782  -0.660  -0.567  -0.515  -0.377
  1 Ag    1 B3u   2 Ag    2 B3u   1 B2u   3 Ag    1 B1g   1 B1u                
 -- Virtual --                   
  0.071   0.083   0.088   0.095   0.098   0.115   0.138   0.184
  3 B3u   2 B2u   4 Ag    2 B1u   1 B2g   2 B1g   5 Ag    2 B2g                
  0.213   0.262   0.316   0.319   0.346   0.351   0.359   0.368
  4 B3u   6 Ag    3 B2u   5 B3u   7 Ag    4 B2u   3 B1u   3 B1g                
  0.369   0.442   0.549   0.616   0.835   0.851   0.935   0.958
  6 B3u   3 B2g   4 B1g   7 B3u   8 Ag    5 B2u   8 B3u   9 Ag                 
  1.023   1.051   1.058   1.114   1.122   1.138   1.166   1.285
  5 B1g   6 B2u  10 Ag    1 B3g   4 B1u   9 B3u   4 B2g   1 Au                 
  1.288   1.291   1.452   1.622   1.682   1.732   1.875   1.944
 10 B3u   5 B1u   6 B1g  11 Ag    7 B1g   7 B2u   5 B2g   6 B1u                
  1.962   2.017   2.073   2.097   2.182   2.331   2.412   2.473
 11 B3u   2 B3g  12 Ag    8 B2u   6 B2g  12 B3u   2 Au   13 Ag                 
  2.570   2.580   2.839   2.843   3.265   3.343
  8 B1g  13 B3u   9 B2u  14 Ag   14 B3u   9 B1g                                
 
 Beta MOs, Restricted
 -- Occupied --                  
-11.237 -11.235  -1.042  -0.782  -0.660  -0.567  -0.515  -0.377
  1 Ag    1 B3u   2 Ag    2 B3u   1 B2u   3 Ag    1 B1g   1 B1u                
 -- Virtual --                   
  0.071   0.083   0.088   0.095   0.098   0.115   0.138   0.184
  3 B3u   2 B2u   4 Ag    2 B1u   1 B2g   2 B1g   5 Ag    2 B2g                
  0.213   0.262   0.316   0.319   0.346   0.351   0.359   0.368
  4 B3u   6 Ag    3 B2u   5 B3u   7 Ag    4 B2u   3 B1u   3 B1g                
  0.369   0.442   0.549   0.616   0.835   0.851   0.935   0.958
  6 B3u   3 B2g   4 B1g   7 B3u   8 Ag    5 B2u   8 B3u   9 Ag                 
  1.023   1.051   1.058   1.114   1.122   1.138   1.166   1.285
  5 B1g   6 B2u  10 Ag    1 B3g   4 B1u   9 B3u   4 B2g   1 Au                 
  1.288   1.291   1.452   1.622   1.682   1.732   1.875   1.944
 10 B3u   5 B1u   6 B1g  11 Ag    7 B1g   7 B2u   5 B2g   6 B1u                
  1.962   2.017   2.073   2.097   2.182   2.331   2.412   2.473
 11 B3u   2 B3g  12 Ag    8 B2u   6 B2g  12 B3u   2 Au   13 Ag                 
  2.570   2.580   2.839   2.843   3.265   3.343
  8 B1g  13 B3u   9 B2u  14 Ag   14 B3u   9 B1g                                
 --------------------------------------------------------------
 
          Ground-State Mulliken Net Atomic Charges

     Atom                 Charge (a.u.)
  ----------------------------------------
      1 C                    -0.198703
      2 C                    -0.198703
      3 H                     0.099346
      4 H                     0.099363
      5 H                     0.099357
      6 H                     0.099339
  ----------------------------------------
  Sum of atomic charges =     0.000000

 -----------------------------------------------------------------
                    Cartesian Multipole Moments
 -----------------------------------------------------------------
    Charge (ESU x 10^10)
                 0.0000
    Dipole Moment (Debye)
         X      -0.0000      Y      -0.0000      Z      -0.0000
       Tot       0.0000
    Quadrupole Moments (Debye-Ang)
        XX     -12.9137     XY       0.0000     YY     -11.9600
        XZ      -0.0000     YZ      -0.0000     ZZ     -16.1416
    Octopole Moments (Debye-Ang^2)
       XXX       0.0000    XXY      -0.0000    XYY       0.0000
       YYY      -0.0000    XXZ      -0.0000    XYZ       0.0000
       YYZ      -0.0000    XZZ       0.0000    YZZ      -0.0000
       ZZZ      -0.0000
    Hexadecapole Moments (Debye-Ang^3)
      XXXX     -68.0356   XXXY       0.0000   XXYY     -13.1829
      XYYY       0.0000   YYYY     -26.8543   XXXZ      -0.0000
      XXYZ      -0.0000   XYYZ      -0.0000   YYYZ      -0.0000
      XXZZ     -15.6162   XYZZ       0.0000   YYZZ      -9.0069
      XZZZ      -0.0000   YZZZ      -0.0000   ZZZZ     -21.7053
 -----------------------------------------------------------------
 Total job time:  133.57s(wall), 258.01s(cpu) 
 Sun Mar 27 22:16:35 2022

        *************************************************************
        *                                                           *
        *  Thank you very much for using Q-Chem.  Have a nice day.  *
        *                                                           *
        *************************************************************


