This is a multi-thread run using 8 threads
/src/tsommerfeld/qchem/exe/qcprog.exe .input0.611111.8701.qcin.1 /src/jdavis/qchem.scratch/qchem8701/

                  Welcome to Q-Chem
     A Quantum Leap Into The Future Of Chemistry


 Q-Chem 5.4 (devel), Q-Chem, Inc., Pleasanton, CA (2021)

 E. Epifanovsky,  A. T. B. Gilbert,  Xintian Feng,  Joonho Lee,  Yuezhi Mao,  
 N. Mardirossian,  P. Pokhilko,  A. White,  M. Wormit,  M. P. Coons,  
 A. L. Dempwolff,  Zhengting Gan,  D. Hait,  P. R. Horn,  L. D. Jacobson,  
 I. Kaliman,  J. Kussmann,  A. W. Lange,  Ka Un Lao,  D. S. Levine,  Jie Liu,  
 S. C. McKenzie,  A. F. Morrison,  K. Nanda,  F. Plasser,  D. R. Rehn,  
 M. L. Vidal,  Zhi-Qiang You,  Ying Zhu,  B. Alam,  B. Albrecht,  
 A. Aldossary,  E. Alguire,  J. H. Andersen,  D. Barton,  K. Begam,  A. Behn,  
 Y. A. Bernard,  E. J. Berquist,  H. Burton,  A. Carreras,  K. Carter-Fenk,  
 R. Chakraborty,  A. D. Chien,  K. D. Closser,  V. Cofer-Shabica,  
 S. Dasgupta,  Jia Deng,  M. de Wergifosse,  M. Diedenhofen,  Hainam Do,  
 S. Ehlert,  Po-Tung Fang,  S. Fatehi,  Qingguo Feng,  T. Friedhoff,  
 J. Gayvert,  Qinghui Ge,  G. Gidofalvi,  M. Goldey,  J. Gomes,  
 C. Gonzalez-Espinoza,  S. Gulania,  A. Gunina,  M. W. D. Hanson-Heine,  
 P. H. P. Harbach,  A. W. Hauser,  M. F. Herbst,  M. Hernandez Vera,  
 M. Hodecker,  Z. C. Holden,  S. Houck,  Xunkun Huang,  Kerwin Hui,  
 B. C. Huynh,  M. Ivanov,  Hyunjun Ji,  Hanjie Jiang,  B. Kaduk,  S. Kaehler,  
 K. Khistyaev,  Jaehoon Kim,  P. Klunzinger,  Z. Koczor-Benda,  
 Joong Hoon Koh,  D. Kosenkov,  L. Koulias,  T. Kowalczyk,  C. M. Krauter,  
 K. Kue,  A. Kunitsa,  T. Kus,  A. Landau,  K. V. Lawler,  D. Lefrancois,  
 S. Lehtola,  Rain Li,  Yi-Pei Li,  Jiashu Liang,  M. Liebenthal,  
 Hung-Hsuan Lin,  You-Sheng Lin,  Fenglai Liu,  Kuan-Yu Liu,  
 M. Loipersberger,  A. Luenser,  A. Manjanath,  P. Manohar,  E. Mansoor,  
 S. F. Manzer,  Shan-Ping Mao,  A. V. Marenich,  T. Markovich,  S. Mason,  
 S. A. Maurer,  P. F. McLaughlin,  M. F. S. J. Menger,  J.-M. Mewes,  
 S. A. Mewes,  P. Morgante,  J. W. Mullinax,  K. J. Oosterbaan,  G. Paran,  
 Alexander C. Paul,  Suranjan K. Paul,  F. Pavosevic,  Zheng Pei,  S. Prager,  
 E. I. Proynov,  E. Ramos,  B. Rana,  A. E. Rask,  A. Rettig,  R. M. Richard,  
 F. Rob,  E. Rossomme,  T. Scheele,  M. Scheurer,  M. Schneider,  
 N. Sergueev,  S. M. Sharada,  W. Skomorowski,  D. W. Small,  C. J. Stein,  
 Yu-Chuan Su,  E. J. Sundstrom,  Zhen Tao,  J. Thirman,  T. Tsuchimochi,  
 N. M. Tubman,  S. P. Veccham,  O. Vydrov,  J. Wenzel,  J. Witte,  A. Yamada,  
 Kun Yao,  S. Yeganeh,  S. R. Yost,  A. Zech,  Igor Ying Zhang,  Xing Zhang,  
 Yu Zhang,  D. Zuev,  A. Aspuru-Guzik,  A. T. Bell,  N. A. Besley,  
 K. B. Bravaya,  B. R. Brooks,  D. Casanova,  Jeng-Da Chai,  S. Coriani,  
 C. J. Cramer,  A. E. DePrince, III,  R. A. DiStasio Jr.,  A. Dreuw,  
 B. D. Dunietz,  T. R. Furlani,  W. A. Goddard III,  S. Grimme,  
 S. Hammes-Schiffer,  T. Head-Gordon,  W. J. Hehre,  Chao-Ping Hsu,  
 T.-C. Jagau,  Yousung Jung,  A. Klamt,  Jing Kong,  D. S. Lambrecht,  
 WanZhen Liang,  N. J. Mayhall,  C. W. McCurdy,  J. B. Neaton,  
 C. Ochsenfeld,  J. A. Parkhill,  R. Peverati,  V. A. Rassolov,  Yihan Shao,  
 L. V. Slipchenko,  T. Stauch,  R. P. Steele,  J. E. Subotnik,  
 A. J. W. Thom,  A. Tkatchenko,  D. G. Truhlar,  T. Van Voorhis,  
 T. A. Wesolowski,  K. B. Whaley,  H. L. Woodcock III,  P. M. Zimmerman,  
 S. Faraji,  P. M. W. Gill,  M. Head-Gordon,  J. M. Herbert,  A. I. Krylov

 Additional authors for Version 5.4.1: 
 S. Kotaru,  Shaozhi Li,  Xiangyuan Li,  F. Matz,  A. Molle,  Haisheng Ren,  
 Yingli Su,  Hung-Yi Tsai,  C. Utku,  Fang Wang

 Contributors to earlier versions of Q-Chem not listed above: 
 R. D. Adamson,  B. Austin,  R. Baer,  J. Baker,  G. J. O. Beran,  
 K. Brandhorst,  S. T. Brown,  E. F. C. Byrd,  A. K. Chakraborty,  
 G. K. L. Chan,  Chun-Min Chang,  Yunqing Chen,  C.-L. Cheng,  
 Siu Hung Chien,  D. M. Chipman,  D. L. Crittenden,  H. Dachsel,  
 R. J. Doerksen,  A. D. Dutoi,  R. G. Edgar,  J. Fosso-Tande,  
 L. Fusti-Molnar,  D. Ghosh,  A. Ghysels,  A. Golubeva-Zadorozhnaya,  
 J. Gonthier,  M. S. Gordon,  S. R. Gwaltney,  G. Hawkins,  J. E. Herr,  
 A. Heyden,  S. Hirata,  E. G. Hohenstein,  G. Kedziora,  F. J. Keil,  
 C. Kelley,  Jihan Kim,  R. A. King,  R. Z. Khaliullin,  P. P. Korambath,  
 W. Kurlancheek,  A. Laurent,  A. M. Lee,  M. S. Lee,  S. V. Levchenko,  
 Ching Yeh Lin,  D. Liotard,  E. Livshits,  R. C. Lochan,  I. Lotan,  
 L. A. Martinez-Martinez,  P. E. Maslen,  N. Nair,  D. P. O'Neill,  
 D. Neuhauser,  E. Neuscamman,  C. M. Oana,  R. Olivares-Amaya,  R. Olson,  
 T. M. Perrine,  B. Peters,  P. A. Pieniazek,  A. Prociuk,  Y. M. Rhee,  
 J. Ritchie,  M. A. Rohrdanz,  E. Rosta,  N. J. Russ,  H. F. Schaefer III,  
 M. W. Schmidt,  N. E. Schultz,  S. Sharma,  N. Shenvi,  C. D. Sherrill,  
 A. C. Simmonett,  A. Sodt,  T. Stein,  D. Stuck,  K. S. Thanthiriwatte,  
 V. Vanovschi,  L. Vogt,  Tao Wang,  A. Warshel,  M. A. Watson,  
 C. F. Williams,  Q. Wu,  X. Xu,  Jun Yang,  W. Zhang,  Yan Zhao

 Please cite Q-Chem as follows:
 Y. Shao et al., Mol. Phys. 113, 184-215 (2015)
 DOI: 10.1080/00268976.2014.952696

 Q-Chem 5.4.1 for Intel X86 EM64T Linux

 Parts of Q-Chem use Armadillo 9.900.5 (Nocturnal Misbehaviour).
 http://arma.sourceforge.net/

 Q-Chem begins on Sun Mar 27 21:17:44 2022  

 Host: node01
0

     Scratch files written to /src/jdavis/qchem.scratch/qchem8701//
 Processing $rem in /src/tsommerfeld/qchem/config/preferences:
 Processing $rem in /home/jdavis/.qchemrc:

 Checking the input file for inconsistencies... 	...done.

--------------------------------------------------------------
User input:
--------------------------------------------------------------
$molecule
0 1
C        -0.6645000000    0.0000000000   -0.2082049804
C         0.6645000000    0.0000000000   -0.2082049804
H        -1.1590800000    0.0000000000    0.7541440196
H         1.1590800000    0.0000000000    0.7541440196
H        -1.1590800000    0.0000000000   -1.1705529804
H         1.1590800000    0.0000000000   -1.1705529804
$end

$rem
   METHOD adc(3)
   BASIS gen
   PURECART 11
   EA_STATES [0,0,10,0,0,0,0,0]
   scf_convergence 8
   ADC_DAVIDSON_MAXITER 120
   ADC_DAVIDSON_MAXSUBSPACE 200
   adc_nguess_singles 100
   THRESH 14
   S2THRESH 14
   adc_davidson_conv 5
   adc_davidson_thresh 14
   THREADS 10
   MEM_TOTAL 95000
   STATE_ANALYSIS TRUE
$end
$basis
C 1
S   9   1.00
      6.665000D+03           6.920000D-04
      1.000000D+03           5.329000D-03
      2.280000D+02           2.707700D-02
      6.471000D+01           1.017180D-01
      2.106000D+01           2.747400D-01
      7.495000D+00           4.485640D-01
      2.797000D+00           2.850740D-01
      5.215000D-01           1.520400D-02
      1.596000D-01          -3.191000D-03
S   9   1.00
      6.665000D+03          -1.460000D-04
      1.000000D+03          -1.154000D-03
      2.280000D+02          -5.725000D-03
      6.471000D+01          -2.331200D-02
      2.106000D+01          -6.395500D-02
      7.495000D+00          -1.499810D-01
      2.797000D+00          -1.272620D-01
      5.215000D-01           5.445290D-01
      1.596000D-01           5.804960D-01
S   1   1.00
      1.596000D-01           1.000000D+00
S   1   1.00
      0.0469000              1.0000000
P   4   1.00
      9.439000D+00           3.810900D-02
      2.002000D+00           2.094800D-01
      5.456000D-01           5.085570D-01
      1.517000D-01           4.688420D-01
P   1   1.00
      1.517000D-01           1.000000D+00
P   1   1.00
      0.0370822      1.0000000
P   1   1.00
      0.0185411      1.0000000
D   1   1.00
      5.500000D-01           1.0000000
****
C 2
S   9   1.00
      6.665000D+03           6.920000D-04
      1.000000D+03           5.329000D-03
      2.280000D+02           2.707700D-02
      6.471000D+01           1.017180D-01
      2.106000D+01           2.747400D-01
      7.495000D+00           4.485640D-01
      2.797000D+00           2.850740D-01
      5.215000D-01           1.520400D-02
      1.596000D-01          -3.191000D-03
S   9   1.00
      6.665000D+03          -1.460000D-04
      1.000000D+03          -1.154000D-03
      2.280000D+02          -5.725000D-03
      6.471000D+01          -2.331200D-02
      2.106000D+01          -6.395500D-02
      7.495000D+00          -1.499810D-01
      2.797000D+00          -1.272620D-01
      5.215000D-01           5.445290D-01
      1.596000D-01           5.804960D-01
S   1   1.00
      1.596000D-01           1.000000D+00
S   1   1.00
      0.0469000              1.0000000
P   4   1.00
      9.439000D+00           3.810900D-02
      2.002000D+00           2.094800D-01
      5.456000D-01           5.085570D-01
      1.517000D-01           4.688420D-01
P   1   1.00
      1.517000D-01           1.000000D+00
P   1   1.00
      0.0370822      1.0000000
P   1   1.00
      0.0185411      1.0000000
D   1   1.00
      5.500000D-01           1.0000000
****
H 3
cc-pVDZ
****
H 4
cc-pVDZ
****
H 5
cc-pVDZ
****
H 6
cc-pVDZ
****
H 7
aug-cc-pVDZ
****
$end
--------------------------------------------------------------
 Atom   2: ( -0.6645000000, -0.0000001250,  0.0000000000)
         ->( -0.6645000000,  0.0000001250, -0.0000000000)
 Atom   1: (  0.6645000000, -0.0000001250, -0.0000000000)
         ->(  0.6645000000,  0.0000000000,  0.0000000000)
 Atom   6: ( -1.1590800000, -0.9623481250, -0.0000000000)
         ->( -1.1590800000, -0.9623488750,  0.0000000000)
 Atom   5: (  1.1590800000, -0.9623481250, -0.0000000000)
         ->(  1.1590800000, -0.9623488750, -0.0000000000)
 ----------------------------------------------------------------
             Standard Nuclear Orientation (Angstroms)
    I     Atom           X                Y                Z
 ----------------------------------------------------------------
    1      C       0.6645000000     0.0000000000     0.0000000000
    2      C      -0.6645000000     0.0000001250    -0.0000000000
    3      H       1.1590800000     0.9623488750     0.0000000000
    4      H      -1.1590800000     0.9623488750     0.0000000000
    5      H       1.1590800000    -0.9623488750    -0.0000000000
    6      H      -1.1590800000    -0.9623488750     0.0000000000
 ----------------------------------------------------------------
 Molecular Point Group                 D2h   NOp =  8
 Largest Abelian Subgroup              D2h   NOp =  8
 Nuclear Repulsion Energy =          33.58921667 hartrees
 There are        8 alpha and        8 beta electrons
 Requested basis set is non-standard
 There are 30 shells and 62 basis functions
 Total memory of 95000 MB is distributed as follows: 
   MEM_STATIC is set to 192 MB
   QALLOC/CCMAN JOB total memory use is  94808 MB
 Warning: actual memory use might exceed 95000 MB

 Total QAlloc Memory Limit  95000 MB
 Mega-Array Size       188 MB
 MEM_STATIC part       192 MB

                       Distance Matrix (Angstroms)
             C (  1)   C (  2)   H (  3)   H (  4)   H (  5)
   C (  2)  1.329000
   H (  3)  1.082000  2.061931
   H (  4)  2.061931  1.082000  2.318160
   H (  5)  1.082000  2.061931  1.924698  3.013026
   H (  6)  2.061931  1.082000  3.013026  1.924698  2.318160
 
 A cutoff of  1.0D-14 yielded    465 shell pairs
 There are      2009 function pairs (      2146 Cartesian)
 Smallest overlap matrix eigenvalue = 4.24E-04

 Scale SEOQF with 1.000000e-01/1.000000e-01/1.000000e-01

 Standard Electronic Orientation quadrupole field applied
 Nucleus-field energy     =     0.0000000006 hartrees
 ================ Generating on-the-fly SAD Guess ================
Attempting to make child job directory: /src/jdavis/qchem.scratch/qchem8701//Frg1/
Attempting to make child job directory: /src/jdavis/qchem.scratch/qchem8701//Frg2/
Creating input file /src/jdavis/qchem.scratch/qchem8701/Frg1.input
using default PutDataFrgm: nothing
calling putenv with: QCSCRATCH=/src/jdavis/qchem.scratch/qchem8701/ 
Spawning Job For Fragment 0
Done Job For Fragment 0
calling putenv with: QCSCRATCH=/src/jdavis/qchem.scratch 
calling putenv with: QCTHREADS=8 
Creating input file /src/jdavis/qchem.scratch/qchem8701/Frg2.input
using default PutDataFrgm: nothing
calling putenv with: QCSCRATCH=/src/jdavis/qchem.scratch/qchem8701/ 
Spawning Job For Fragment 1
Done Job For Fragment 1
calling putenv with: QCSCRATCH=/src/jdavis/qchem.scratch 
calling putenv with: QCTHREADS=8 
 Time for running child jobs:  CPU 1.77 s  wall 55.16 s
 ============= Method Specific SAD Guess Constructed =============
 Guess from on-the-fly superposition of atomic densities
 Warning: Energy on first SCF cycle will be non-variational
 A restricted Hartree-Fock SCF calculation will be
 performed using Pulay DIIS extrapolation
 SCF converges when DIIS error is below 1.0E-08
 using 10 threads for integral computing
 -------------------------------------------------------
 OpenMP Integral computing Module                
 Release: version 1.0, May 2013, Q-Chem Inc. Pittsburgh 
 -------------------------------------------------------
 ---------------------------------------
  Cycle       Energy         DIIS Error
 ---------------------------------------
    1     -78.4570390338      7.95E-02
    2     -78.0143023635      5.77E-03
    3     -78.0356548741      1.51E-03
    4     -78.0372868278      5.02E-04
    5     -78.0374577420      5.97E-05
    6     -78.0374624587      1.24E-05
    7     -78.0374627870      2.92E-06
    8     -78.0374628254      2.64E-07
    9     -78.0374628286      3.12E-08
   10     -78.0374628289      3.46E-09 Convergence criterion met
 ---------------------------------------
 SCF time:  CPU 8.63 s  wall 0.86 s
 SCF   energy in the final basis set = -78.03746283
 Total energy in the final basis set = -78.03746283
================================================================================
|                                                                              |
|                                 A D C  M A N                                 |
|                                                                              |
 ------------------------------------------------------------------------------ 
|                                                                              |
| Components:                                                                  |
|                                                                              |
| - libvmm - 1.3-trunk                                                         |
|   Authors:                                                                   |
|   Evgeny Epifanovsky, Ilya Kaliman                                           |
|                                                                              |
| - libtensor - 2.5-trunk                                                      |
|   Authors:                                                                   |
|   Evgeny Epifanovsky, Michael Wormit, Dmitry Zuev, Sam Manzer,               |
|   Ilya Kaliman                                                               |
|                                                                              |
| - libwfa - 1.1-trunk                                                         |
|   Authors:                                                                   |
|   Felix Plasser, Stefanie Mewes (Baeppler), Benjamin Thomitzni,              |
|   Michael Wormit, Feng Chen, Anna I. Krylov, Pavel Pokhilko                  |
|                                                                              |
| - libadc - 1.1-trunk                                                         |
|   Authors:                                                                   |
|   Michael Wormit, Adrian L. Dempwolff, Philipp H. P. Harbach,                |
|   Caroline Krauter, Dirk Rehn, Matthias Schneider, Jan Wenzel                |
|                                                                              |
| - adcman - 2.6-trunk                                                         |
|   Authors:                                                                   |
|   Michael Wormit, Adrian L. Dempwolff, Philipp H. P. Harbach,                |
|   Caroline Krauter, Daniel Lefrancois, Jan-Michael Mewes, Dirk Rehn,         |
|   Matthias Schneider, Jan Wenzel, Andreas Dreuw                              |
|                                                                              |
| Authors of earlier versions of ADCMAN:                                       |
| Andreas Dreuw, Jan Hendrik Starcke, Dirk Rehn, Michael Wormit                |
|                                                                              |
================================================================================

 
 Alpha MOs, Restricted
 -- Occupied --                  
-11.237 -11.235  -1.042  -0.782  -0.661  -0.567  -0.515  -0.377
  1 Ag    1 B3u   2 Ag    2 B3u   1 B2u   3 Ag    1 B1g   1 B1u                
 -- Virtual --                   
  0.035   0.038   0.042   0.053   0.055   0.060   0.096   0.122
  3 B3u   2 B2u   2 B1u   2 B1g   1 B2g   4 Ag    5 Ag    4 B3u                
  0.124   0.153   0.171   0.176   0.193   0.253   0.266   0.294
  2 B2g   3 B2u   3 B1g   3 B1u   6 Ag    3 B2g   7 Ag    5 B3u                
  0.336   0.347   0.450   0.507   0.673   0.756   0.851   0.860
  4 B2u   6 B3u   4 B1g   7 B3u   8 Ag    5 B2u   4 B1u   9 Ag                 
  0.901   0.911   0.930   0.993   1.025   1.037   1.114   1.283
  6 B2u   4 B2g   8 B3u   9 B3u  10 Ag    5 B1g   1 B3g   5 B1u                
  1.284   1.317   1.346   1.606   1.615   1.695   1.846   1.918
  1 Au   10 B3u   6 B1g  11 Ag    7 B1g   7 B2u   5 B2g  11 B3u                
  1.937   1.975   2.017   2.034   2.170   2.273   2.412   2.439
  6 B1u  12 Ag    2 B3g   8 B2u   6 B2g  12 B3u   2 Au   13 Ag                 
  2.540   2.573   2.799   2.801   3.260   3.340
  8 B1g  13 B3u  14 Ag    9 B2u  14 B3u   9 B1g                                
 
 Beta MOs, Restricted
 -- Occupied --                  
-11.237 -11.235  -1.042  -0.782  -0.661  -0.567  -0.515  -0.377
  1 Ag    1 B3u   2 Ag    2 B3u   1 B2u   3 Ag    1 B1g   1 B1u                
 -- Virtual --                   
  0.035   0.038   0.042   0.053   0.055   0.060   0.096   0.122
  3 B3u   2 B2u   2 B1u   2 B1g   1 B2g   4 Ag    5 Ag    4 B3u                
  0.124   0.153   0.171   0.176   0.193   0.253   0.266   0.294
  2 B2g   3 B2u   3 B1g   3 B1u   6 Ag    3 B2g   7 Ag    5 B3u                
  0.336   0.347   0.450   0.507   0.673   0.756   0.851   0.860
  4 B2u   6 B3u   4 B1g   7 B3u   8 Ag    5 B2u   4 B1u   9 Ag                 
  0.901   0.911   0.930   0.993   1.025   1.037   1.114   1.283
  6 B2u   4 B2g   8 B3u   9 B3u  10 Ag    5 B1g   1 B3g   5 B1u                
  1.284   1.317   1.346   1.606   1.615   1.695   1.846   1.918
  1 Au   10 B3u   6 B1g  11 Ag    7 B1g   7 B2u   5 B2g  11 B3u                
  1.937   1.975   2.017   2.034   2.170   2.273   2.412   2.439
  6 B1u  12 Ag    2 B3g   8 B2u   6 B2g  12 B3u   2 Au   13 Ag                 
  2.540   2.573   2.799   2.801   3.260   3.340
  8 B1g  13 B3u  14 Ag    9 B2u  14 B3u   9 B1g                                

--------------------------------------------------------------------------------
                                   HF Summary                                   
--------------------------------------------------------------------------------
  Energy:                                                  -78.0374628289 a.u.
  Dip. moment [a.u.]:                  [   0.000000,   -0.000001,    0.000000]
  Total dipole [Debye]:                                               0.000001
  <r^2> [a.u.]:                        [  47.733434,   22.121028,   11.983074]
  Total <r^2> [a.u.]:                                                81.837537
--------------------------------------------------------------------------------

--------------------------------------------------------------------------------
                                 MP(2) Summary                                  
--------------------------------------------------------------------------------
  MP energy contribution:                                   -0.2815976696 a.u.
  Total energy:                                            -78.3190604984 a.u.
  Dip. moment [a.u.]:                  [   0.000000,   -0.000000,   -0.000000]
  Total dipole [Debye]:                                               0.000001
  <r^2> [a.u.]:                        [  47.841617,   22.153092,   11.837427]
  Total <r^2> [a.u.]:                                                81.832136

  Density matrix analysis:
  ------------------------
  NOs (alpha)
    Occupation of frontier NOs:
       0.0223   0.9686
    Number of electrons:  8.000000
  NOs (beta)
    Occupation of frontier NOs:
       0.0223   0.9686
    Number of electrons:  8.000000
  NOs (spin-traced)
    Occupation of frontier NOs:
       0.0446   1.9373
    Number of electrons: 16.000000
    Number of unpaired electrons: n_u =  0.40849, n_u,nl =  0.04587
    NO participation ratio (PR_NO): 13.957467
  
  
  Mulliken Population Analysis
  Atom  Charge (e)    Spin (e)  h+ (alpha)   h+ (beta)  e- (alpha)   e- (beta)
  ----------------------------------------------------------------------------
   1 C   -0.164076    0.000000    0.043993    0.043993   -0.050984   -0.050984
   2 C   -0.164076    0.000000    0.043993    0.043993   -0.050984   -0.050984
   3 H    0.082037    0.000000    0.008741    0.008741   -0.005246   -0.005246
   4 H    0.082040    0.000000    0.008741    0.008741   -0.005246   -0.005246
   5 H    0.082038    0.000000    0.008741    0.008741   -0.005246   -0.005246
   6 H    0.082035   -0.000000    0.008741    0.008741   -0.005246   -0.005246
  ----------------------------------------------------------------------------
  Sum:   -0.000000    0.000000    0.122950    0.122950   -0.122950   -0.122950
  
  Multipole moment analysis of the density matrix
    Molecular charge:                      -0.000000
    Number of electrons:                   16.000000
      Center of electronic charge [Ang]: [ -0.000000,   0.000000,   0.000000]
    Total nuclear charge:                  16.000000
      Center of nuclear charge [Ang]:    [  0.000000,   0.000000,   0.000000]
    Dipole moment [D]:                     0.000001
      Cartesian components [D]:          [  0.000000,  -0.000001,  -0.000000]
    RMS size of the density [Ang]:         1.196749
      Cartesian components [Ang]:        [  0.915048,   0.622671,   0.455166]
  
  Exciton analysis of the difference density matrix
  Total:
    <r_h> [Ang]:                  [ -0.000000,   0.000000,  -0.000000]
    <r_e> [Ang]:                  [ -0.000000,  -0.000000,   0.000000]
    |<r_e - r_h>| [Ang]:            0.000000
    Hole size [Ang]:                1.423063
      Cartesian components [Ang]: [  0.968497,   0.728382,   0.746044]
    Electron size [Ang]:            1.420900
      Cartesian components [Ang]: [  1.030137,   0.753030,   0.625076]
  
  Alpha spin:
    <r_h> [Ang]:                  [ -0.000000,   0.000000,  -0.000000]
    <r_e> [Ang]:                  [ -0.000000,  -0.000000,   0.000000]
    |<r_e - r_h>| [Ang]:            0.000000
    Hole size [Ang]:                1.423063
      Cartesian components [Ang]: [  0.968497,   0.728382,   0.746044]
    Electron size [Ang]:            1.420900
      Cartesian components [Ang]: [  1.030137,   0.753030,   0.625076]
  
  Beta spin:
    <r_h> [Ang]:                  [ -0.000000,   0.000000,  -0.000000]
    <r_e> [Ang]:                  [ -0.000000,  -0.000000,   0.000000]
    |<r_e - r_h>| [Ang]:            0.000000
    Hole size [Ang]:                1.423063
      Cartesian components [Ang]: [  0.968497,   0.728382,   0.746044]
    Electron size [Ang]:            1.420900
      Cartesian components [Ang]: [  1.030137,   0.753030,   0.625076]
--------------------------------------------------------------------------------

--------------------------------------------------------------------------------
                                 MP(3) Summary                                  
--------------------------------------------------------------------------------
  MP energy contribution:                                   -0.0245318303 a.u.
  Total energy:                                            -78.3435923288 a.u.
--------------------------------------------------------------------------------
Less particle guess vectors found than requested: 6 (found), 100 (requested).
Adjusting number of hole-2particle guess vectors to 94.
  Starting Davidson for electron-attached states of irrep B2g ... 
--------------------------------------------------------------------------------
   It NVec Conv  Avg. Norm  Max. Norm  Conv. states           Remark
--------------------------------------------------------------------------------
       100    0  3.859e-02  2.688e-01  0.0548 n n n n n n n n Guess.
    1  110    0  9.042e-03  6.396e-02  0.0533 n n n n n n n n 
    2  120    0  3.030e-03  2.014e-02  0.0532 n n n n n n n n 
    3  130    0  7.941e-04  5.140e-03  0.0532 n n n n n n n n 
    4  140    0  2.531e-04  1.702e-03  0.0532 n n n n n n n n 
    5  150    0  7.167e-05  4.920e-04  0.0532 n n n n n n n n 
    6  160    1  1.781e-05  1.236e-04  0.0532 y n n n n n n n 
    7  170    8  5.700e-06  4.119e-05  0.0532 y y y y y y y y 
    8  180    8  1.798e-06  1.352e-05  0.0532 y y y y y y y y 
    9  190   10  4.549e-07  3.522e-06  0.0532 y y y y y y y y Converged.
--------------------------------------------------------------------------------
  Davidson Summary: 
 ------------------------------------------------------------
  State  0: electron attachment energy =   0.0532 a.u.   (converged)
  State  1: electron attachment energy =   0.0984 a.u.   (converged)
  State  2: electron attachment energy =   0.1788 a.u.   (converged)
  State  3: electron attachment energy =   0.2182 a.u.   (converged)
  State  4: electron attachment energy =   0.2891 a.u.   (converged)
  State  5: electron attachment energy =   0.2994 a.u.   (converged)
  State  6: electron attachment energy =   0.3118 a.u.   (converged)
  State  7: electron attachment energy =   0.3171 a.u.   (converged)
  State  8: electron attachment energy =   0.3265 a.u.   (converged)
  State  9: electron attachment energy =   0.3286 a.u.   (converged)
 ------------------------------------------------------------


--------------------------------------------------------------------------------
                        Electron-Attached State Summary
--------------------------------------------------------------------------------

  Electron-attached state 1 (B2g)                                  [converged]
  ----------------------------------------------------------------------------
  Term symbol:  1 (2) B2g                                   R^2 =  1.14208e-08

  Total energy:                                            -78.2903720920 a.u.
  Electron attachment energy:                                      1.448196 eV

  Pole strength:                                                      0.993865

  Dip. moment [a.u.]:                  [   0.000000,   -0.000001,   -0.000000]
  Total dipole [Debye]:                                               0.000002
  <r^2> [a.u.]:                        [  94.583041,   37.606934,   57.868226]
  Total <r^2> [a.u.]:                                               190.058201

  V1^2 = 0.9947, V2^2 = 0.0053

  Important amplitudes:
       occ i       vir a        vir b           v   
    -------------------------------------------------
                               1 (B2g) B     -0.9933
                               2 (B2g) B     -0.0856
    -------------------------------------------------

  Density matrix analysis:
  ------------------------
  NOs (alpha)
    Occupation of frontier NOs:
       0.0221   0.9674
    Number of electrons:  8.000000
  NOs (beta)
    Occupation of frontier NOs:
       0.0243   0.9678
    Number of electrons:  9.000000
  NOs (spin-traced)
    Occupation of frontier NOs:
       0.0455   0.9959
    Number of electrons: 17.000000
    Number of unpaired electrons: n_u =  1.41559, n_u,nl =  1.04773
    NO participation ratio (PR_NO):  1.995380
  
  
  Mulliken Population Analysis
  Atom  Charge (e)    Spin (e)  h+ (alpha)   h+ (beta)  e- (alpha)   e- (beta)
  ----------------------------------------------------------------------------
   1 C   -0.652695    0.505168    0.009825    0.010720   -0.001551   -0.507613
   2 C   -0.652695    0.505168    0.009825    0.010720   -0.001551   -0.507613
   3 H    0.076347   -0.002584   -0.000259    0.000578   -0.003879   -0.002131
   4 H    0.076350   -0.002584   -0.000259    0.000578   -0.003879   -0.002131
   5 H    0.076348   -0.002584   -0.000259    0.000578   -0.003879   -0.002131
   6 H    0.076345   -0.002584   -0.000259    0.000578   -0.003879   -0.002131
  ----------------------------------------------------------------------------
  Sum:   -1.000000    1.000000    0.018617    0.023751   -0.018617   -1.023751
  
  Multipole moment analysis of the density matrix
    Molecular charge:                      -1.000000
    Number of electrons:                   17.000000
      Center of electronic charge [Ang]: [ -0.000000,   0.000000,   0.000000]
    Total nuclear charge:                  16.000000
      Center of nuclear charge [Ang]:    [  0.000000,   0.000000,   0.000000]
    Dipole moment [D]:                     0.000002
      Cartesian components [D]:          [  0.000000,  -0.000002,  -0.000000]
    RMS size of the density [Ang]:         1.769375
      Cartesian components [Ang]:        [  1.248197,   0.787065,   0.976330]
  
  Exciton analysis of the difference density matrix
  Total:
    <r_h> [Ang]:                  [  0.000000,   0.000000,   0.000000]
    <r_e> [Ang]:                  [  0.000000,   0.000000,   0.000000]
    |<r_e - r_h>| [Ang]:            0.000000
    Hole size [Ang]:                2.221693
      Cartesian components [Ang]: [  1.338891,   1.106519,   1.385246]
    Electron size [Ang]:            5.410656
      Cartesian components [Ang]: [  3.553842,   2.049729,   3.527608]
  
  Alpha spin:
    <r_h> [Ang]:                  [ -0.000000,   0.000000,  -0.000000]
    <r_e> [Ang]:                  [  0.000000,   0.000000,   0.000000]
    |<r_e - r_h>| [Ang]:            0.000000
    Hole size [Ang]:                1.907849
      Cartesian components [Ang]: [  1.203871,   0.988022,   1.101996]
    Electron size [Ang]:            2.521422
      Cartesian components [Ang]: [  1.461466,   1.444260,   1.461438]
  
  Beta spin:
    <r_h> [Ang]:                  [  0.000000,   0.000000,   0.000000]
    <r_e> [Ang]:                  [  0.000000,   0.000000,   0.000000]
    |<r_e - r_h>| [Ang]:            0.000000
    Hole size [Ang]:                2.439629
      Cartesian components [Ang]: [  1.435876,   1.191187,   1.571981]
    Electron size [Ang]:            5.449032
      Cartesian components [Ang]: [  3.580589,   2.059092,   3.554078]
  ----------------------------------------------------------------------------


  Electron-attached state 2 (B2g)                                  [converged]
  ----------------------------------------------------------------------------
  Term symbol:  2 (2) B2g                                   R^2 =  7.46147e-08

  Total energy:                                            -78.2452374840 a.u.
  Electron attachment energy:                                      2.676371 eV

  Pole strength:                                                      0.921579

  Dip. moment [a.u.]:                  [   0.000000,   -0.000001,    0.000000]
  Total dipole [Debye]:                                               0.000001
  <r^2> [a.u.]:                        [  65.336513,   28.865618,   28.725770]
  Total <r^2> [a.u.]:                                               122.927901

  V1^2 = 0.9333, V2^2 = 0.0667

  Important amplitudes:
       occ i       vir a        vir b           v   
    -------------------------------------------------
                               2 (B2g) B      0.9441
                               3 (B2g) B     -0.1754
    -------------------------------------------------

  Density matrix analysis:
  ------------------------
  NOs (alpha)
    Occupation of frontier NOs:
       0.0209   0.9575
    Number of electrons:  8.000000
  NOs (beta)
    Occupation of frontier NOs:
       0.0258   0.9694
    Number of electrons:  9.000000
  NOs (spin-traced)
    Occupation of frontier NOs:
       0.0345   0.9818
    Number of electrons: 17.000000
    Number of unpaired electrons: n_u =  1.44540, n_u,nl =  1.05346
    NO participation ratio (PR_NO):  2.136019
  
  
  Mulliken Population Analysis
  Atom  Charge (e)    Spin (e)  h+ (alpha)   h+ (beta)  e- (alpha)   e- (beta)
  ----------------------------------------------------------------------------
   1 C   -0.554295    0.547177    0.129443    0.081148   -0.050964   -0.549846
   2 C   -0.554295    0.547177    0.129443    0.081148   -0.050964   -0.549846
   3 H    0.027147   -0.023588    0.001224    0.008062   -0.040463   -0.023713
   4 H    0.027150   -0.023588    0.001224    0.008062   -0.040463   -0.023713
   5 H    0.027148   -0.023588    0.001224    0.008062   -0.040463   -0.023713
   6 H    0.027145   -0.023588    0.001224    0.008062   -0.040463   -0.023713
  ----------------------------------------------------------------------------
  Sum:   -1.000000    1.000000    0.263781    0.194543   -0.263781   -1.194543
  
  Multipole moment analysis of the density matrix
    Molecular charge:                      -1.000000
    Number of electrons:                   17.000000
      Center of electronic charge [Ang]: [ -0.000000,   0.000000,  -0.000000]
    Total nuclear charge:                  16.000000
      Center of nuclear charge [Ang]:    [  0.000000,   0.000000,   0.000000]
    Dipole moment [D]:                     0.000001
      Cartesian components [D]:          [  0.000000,  -0.000001,   0.000000]
    RMS size of the density [Ang]:         1.422990
      Cartesian components [Ang]:        [  1.037420,   0.689552,   0.687880]
  
  Exciton analysis of the difference density matrix
  Total:
    <r_h> [Ang]:                  [  0.000000,   0.000000,   0.000000]
    <r_e> [Ang]:                  [  0.000000,   0.000000,  -0.000000]
    |<r_e - r_h>| [Ang]:            0.000000
    Hole size [Ang]:                1.914311
      Cartesian components [Ang]: [  1.210398,   0.955245,   1.134474]
    Electron size [Ang]:            3.007151
      Cartesian components [Ang]: [  1.954438,   1.255279,   1.909818]
  
  Alpha spin:
    <r_h> [Ang]:                  [  0.000000,   0.000000,   0.000000]
    <r_e> [Ang]:                  [  0.000000,   0.000000,   0.000000]
    |<r_e - r_h>| [Ang]:            0.000000
    Hole size [Ang]:                1.910522
      Cartesian components [Ang]: [  1.189715,   0.939273,   1.162944]
    Electron size [Ang]:            2.651797
      Cartesian components [Ang]: [  1.549000,   1.401030,   1.633934]
  
  Beta spin:
    <r_h> [Ang]:                  [  0.000000,   0.000000,   0.000000]
    <r_e> [Ang]:                  [  0.000000,   0.000000,  -0.000000]
    |<r_e - r_h>| [Ang]:            0.000000
    Hole size [Ang]:                1.919437
      Cartesian components [Ang]: [  1.237889,   0.976485,   1.094690]
    Electron size [Ang]:            3.080099
      Cartesian components [Ang]: [  2.033098,   1.220750,   1.965526]
  ----------------------------------------------------------------------------


  Electron-attached state 3 (B2g)                                  [converged]
  ----------------------------------------------------------------------------
  Term symbol:  3 (2) B2g                                   R^2 =  8.07469e-08

  Total energy:                                            -78.1647447624 a.u.
  Electron attachment energy:                                      4.866690 eV

  Pole strength:                                                      0.054008

  Dip. moment [a.u.]:                  [   0.000000,   -0.000001,    0.000000]
  Total dipole [Debye]:                                               0.000001
  <r^2> [a.u.]:                        [  70.010144,   40.920944,   67.957703]
  Total <r^2> [a.u.]:                                               178.888790

  V1^2 = 0.0540, V2^2 = 0.9460

  Important amplitudes:
       occ i       vir a        vir b           v   
    -------------------------------------------------
     1 (B1u) A    2 (B1u) A    2 (B2g) B      0.4459
     1 (B1u) A    2 (B1u) A    3 (B2g) B     -0.3123
    -------------------------------------------------

  Density matrix analysis:
  ------------------------
  NOs (alpha)
    Occupation of frontier NOs:
       0.1840   0.6317
    Number of electrons:  8.000000
  NOs (beta)
    Occupation of frontier NOs:
       0.3145   0.7973
    Number of electrons:  9.000000
  NOs (spin-traced)
    Occupation of frontier NOs:
       0.9163   0.9811
    Number of electrons: 17.000000
    Number of unpaired electrons: n_u =  3.24245, n_u,nl =  3.02076
    NO participation ratio (PR_NO):  3.810617
  
  
  Mulliken Population Analysis
  Atom  Charge (e)    Spin (e)  h+ (alpha)   h+ (beta)  e- (alpha)   e- (beta)
  ----------------------------------------------------------------------------
   1 C   -0.657153    0.490003    0.394129    0.076235   -0.395666   -0.567775
   2 C   -0.657153    0.490003    0.394129    0.076235   -0.395666   -0.567775
   3 H    0.078576    0.004999    0.002167    0.000527   -0.001398   -0.004757
   4 H    0.078579    0.004999    0.002167    0.000527   -0.001398   -0.004757
   5 H    0.078577    0.004999    0.002167    0.000527   -0.001398   -0.004757
   6 H    0.078574    0.004999    0.002167    0.000527   -0.001398   -0.004757
  ----------------------------------------------------------------------------
  Sum:   -1.000000    1.000000    0.796925    0.154576   -0.796925   -1.154576
  
  Multipole moment analysis of the density matrix
    Molecular charge:                      -1.000000
    Number of electrons:                   17.000000
      Center of electronic charge [Ang]: [ -0.000000,   0.000000,  -0.000000]
    Total nuclear charge:                  16.000000
      Center of nuclear charge [Ang]:    [  0.000000,   0.000000,   0.000000]
    Dipole moment [D]:                     0.000001
      Cartesian components [D]:          [  0.000000,  -0.000001,   0.000000]
    RMS size of the density [Ang]:         1.716597
      Cartesian components [Ang]:        [  1.073883,   0.821012,   1.058025]
  
  Exciton analysis of the difference density matrix
  Total:
    <r_h> [Ang]:                  [ -0.000000,   0.000000,  -0.000000]
    <r_e> [Ang]:                  [ -0.000000,   0.000000,  -0.000000]
    |<r_e - r_h>| [Ang]:            0.000000
    Hole size [Ang]:                1.268409
      Cartesian components [Ang]: [  0.756522,   0.520554,   0.874962]
    Electron size [Ang]:            3.835554
      Cartesian components [Ang]: [  1.860134,   1.680831,   2.902789]
  
  Alpha spin:
    <r_h> [Ang]:                  [ -0.000000,   0.000000,  -0.000000]
    <r_e> [Ang]:                  [ -0.000000,   0.000000,  -0.000000]
    |<r_e - r_h>| [Ang]:            0.000000
    Hole size [Ang]:                1.266348
      Cartesian components [Ang]: [  0.754227,   0.518638,   0.875096]
    Electron size [Ang]:            4.683336
      Cartesian components [Ang]: [  2.154747,   2.081000,   3.600020]
  
  Beta spin:
    <r_h> [Ang]:                  [ -0.000000,   0.000000,   0.000000]
    <r_e> [Ang]:                  [ -0.000000,   0.000000,  -0.000000]
    |<r_e - r_h>| [Ang]:            0.000000
    Hole size [Ang]:                1.278980
      Cartesian components [Ang]: [  0.768247,   0.530321,   0.874269]
    Electron size [Ang]:            3.118736
      Cartesian components [Ang]: [  1.625936,   1.336466,   2.301457]
  ----------------------------------------------------------------------------


  Electron-attached state 4 (B2g)                                  [converged]
  ----------------------------------------------------------------------------
  Term symbol:  4 (2) B2g                                   R^2 =  3.19134e-07

  Total energy:                                            -78.1254381898 a.u.
  Electron attachment energy:                                      5.936276 eV

  Pole strength:                                                      0.869844

  Dip. moment [a.u.]:                  [   0.000000,   -0.000001,    0.000000]
  Total dipole [Debye]:                                               0.000001
  <r^2> [a.u.]:                        [  69.203214,   30.884816,   35.668328]
  Total <r^2> [a.u.]:                                               135.756358

  V1^2 = 0.8754, V2^2 = 0.1246

  Important amplitudes:
       occ i       vir a        vir b           v   
    -------------------------------------------------
                               3 (B2g) B     -0.9125
                               2 (B2g) B     -0.2010
    -------------------------------------------------

  Density matrix analysis:
  ------------------------
  NOs (alpha)
    Occupation of frontier NOs:
       0.0516   0.8981
    Number of electrons:  8.000000
  NOs (beta)
    Occupation of frontier NOs:
       0.0875   0.8954
    Number of electrons:  9.000000
  NOs (spin-traced)
    Occupation of frontier NOs:
       0.1184   0.9063
    Number of electrons: 17.000000
    Number of unpaired electrons: n_u =  1.61177, n_u,nl =  1.16190
    NO participation ratio (PR_NO):  2.980324
  
  
  Mulliken Population Analysis
  Atom  Charge (e)    Spin (e)  h+ (alpha)   h+ (beta)  e- (alpha)   e- (beta)
  ----------------------------------------------------------------------------
   1 C   -0.572715    0.517669    0.114150    0.050298   -0.059635   -0.513452
   2 C   -0.572715    0.517669    0.114150    0.050298   -0.059635   -0.513452
   3 H    0.036357   -0.008835    0.001034    0.001951   -0.028292   -0.020374
   4 H    0.036360   -0.008835    0.001034    0.001951   -0.028292   -0.020374
   5 H    0.036358   -0.008835    0.001034    0.001951   -0.028292   -0.020374
   6 H    0.036355   -0.008835    0.001034    0.001951   -0.028292   -0.020374
  ----------------------------------------------------------------------------
  Sum:   -1.000000    1.000000    0.232437    0.108401   -0.232437   -1.108401
  
  Multipole moment analysis of the density matrix
    Molecular charge:                      -1.000000
    Number of electrons:                   17.000000
      Center of electronic charge [Ang]: [ -0.000000,   0.000000,  -0.000000]
    Total nuclear charge:                  16.000000
      Center of nuclear charge [Ang]:    [  0.000000,   0.000000,   0.000000]
    Dipole moment [D]:                     0.000001
      Cartesian components [D]:          [  0.000000,  -0.000001,   0.000000]
    RMS size of the density [Ang]:         1.495398
      Cartesian components [Ang]:        [  1.067677,   0.713262,   0.766510]
  
  Exciton analysis of the difference density matrix
  Total:
    <r_h> [Ang]:                  [  0.000000,   0.000000,   0.000000]
    <r_e> [Ang]:                  [  0.000000,   0.000000,  -0.000000]
    |<r_e - r_h>| [Ang]:            0.000000
    Hole size [Ang]:                2.053020
      Cartesian components [Ang]: [  1.212783,   0.994849,   1.324509]
    Electron size [Ang]:            3.511875
      Cartesian components [Ang]: [  2.198901,   1.440545,   2.328718]
  
  Alpha spin:
    <r_h> [Ang]:                  [  0.000000,   0.000000,   0.000000]
    <r_e> [Ang]:                  [  0.000000,   0.000000,   0.000000]
    |<r_e - r_h>| [Ang]:            0.000000
    Hole size [Ang]:                1.989817
      Cartesian components [Ang]: [  1.171131,   0.944289,   1.302361]
    Electron size [Ang]:            3.537467
      Cartesian components [Ang]: [  1.842006,   1.716207,   2.485019]
  
  Beta spin:
    <r_h> [Ang]:                  [  0.000000,   0.000000,   0.000000]
    <r_e> [Ang]:                  [  0.000000,   0.000000,  -0.000000]
    |<r_e - r_h>| [Ang]:            0.000000
    Hole size [Ang]:                2.182379
      Cartesian components [Ang]: [  1.297595,   1.095422,   1.370794]
    Electron size [Ang]:            3.506484
      Cartesian components [Ang]: [  2.266627,   1.375749,   2.294591]
  ----------------------------------------------------------------------------


  Electron-attached state 5 (B2g)                                  [converged]
  ----------------------------------------------------------------------------
  Term symbol:  5 (2) B2g                                   R^2 =  2.23054e-07

  Total energy:                                            -78.0544665273 a.u.
  Electron attachment energy:                                      7.867513 eV

  Pole strength:                                                      0.001082

  Dip. moment [a.u.]:                  [  -0.000000,   -0.000001,   -0.000000]
  Total dipole [Debye]:                                               0.000001
  <r^2> [a.u.]:                        [ 112.360853,   51.179724,   40.268400]
  Total <r^2> [a.u.]:                                               203.808978

  V1^2 = 0.0011, V2^2 = 0.9989

  Important amplitudes:
       occ i       vir a        vir b           v   
    -------------------------------------------------
     1 (B1u) A    3 (B3u) A    5 (Ag ) B     -0.4448
     1 (B1u) B    5 (Ag ) B    3 (B3u) B      0.3618
    -------------------------------------------------

  Density matrix analysis:
  ------------------------
  NOs (alpha)
    Occupation of frontier NOs:
       0.3296   0.5107
    Number of electrons:  8.000000
  NOs (beta)
    Occupation of frontier NOs:
       0.3638   0.6117
    Number of electrons:  9.000000
  NOs (spin-traced)
    Occupation of frontier NOs:
       0.8456   0.8710
    Number of electrons: 17.000000
    Number of unpaired electrons: n_u =  3.28651, n_u,nl =  3.00174
    NO participation ratio (PR_NO):  4.533166
  
  
  Mulliken Population Analysis
  Atom  Charge (e)    Spin (e)  h+ (alpha)   h+ (beta)  e- (alpha)   e- (beta)
  ----------------------------------------------------------------------------
   1 C   -0.728558    0.552480    0.316808    0.176844   -0.322809   -0.735325
   2 C   -0.728558    0.552480    0.316808    0.176844   -0.322809   -0.735325
   3 H    0.114279   -0.026240    0.001906    0.001031    0.001094    0.028210
   4 H    0.114281   -0.026239    0.001906    0.001031    0.001094    0.028209
   5 H    0.114279   -0.026239    0.001906    0.001031    0.001094    0.028209
   6 H    0.114277   -0.026241    0.001906    0.001031    0.001094    0.028210
  ----------------------------------------------------------------------------
  Sum:   -1.000000    1.000000    0.641242    0.357812   -0.641242   -1.357812
  
  Multipole moment analysis of the density matrix
    Molecular charge:                      -1.000000
    Number of electrons:                   17.000000
      Center of electronic charge [Ang]: [  0.000000,   0.000000,   0.000000]
    Total nuclear charge:                  16.000000
      Center of nuclear charge [Ang]:    [  0.000000,   0.000000,   0.000000]
    Dipole moment [D]:                     0.000001
      Cartesian components [D]:          [ -0.000000,  -0.000001,  -0.000000]
    RMS size of the density [Ang]:         1.832265
      Cartesian components [Ang]:        [  1.360455,   0.918175,   0.814440]
  
  Exciton analysis of the difference density matrix
  Total:
    <r_h> [Ang]:                  [ -0.000000,   0.000000,  -0.000000]
    <r_e> [Ang]:                  [  0.000000,   0.000000,   0.000000]
    |<r_e - r_h>| [Ang]:            0.000000
    Hole size [Ang]:                1.252553
      Cartesian components [Ang]: [  0.748527,   0.510864,   0.864647]
    Electron size [Ang]:            4.227369
      Cartesian components [Ang]: [  3.052524,   2.048535,   2.087165]
  
  Alpha spin:
    <r_h> [Ang]:                  [ -0.000000,   0.000000,   0.000000]
    <r_e> [Ang]:                  [  0.000000,   0.000000,  -0.000000]
    |<r_e - r_h>| [Ang]:            0.000000
    Hole size [Ang]:                1.251024
      Cartesian components [Ang]: [  0.748073,   0.510129,   0.863260]
    Electron size [Ang]:            5.117755
      Cartesian components [Ang]: [  3.881829,   2.359131,   2.357396]
  
  Beta spin:
    <r_h> [Ang]:                  [ -0.000000,   0.000000,  -0.000000]
    <r_e> [Ang]:                  [  0.000000,   0.000000,   0.000000]
    |<r_e - r_h>| [Ang]:            0.000000
    Hole size [Ang]:                1.255288
      Cartesian components [Ang]: [  0.749341,   0.512178,   0.867128]
    Electron size [Ang]:            3.733776
      Cartesian components [Ang]: [  2.569450,   1.884135,   1.946546]
  ----------------------------------------------------------------------------


  Electron-attached state 6 (B2g)                                  [converged]
  ----------------------------------------------------------------------------
  Term symbol:  6 (2) B2g                                   R^2 =  3.06314e-07

  Total energy:                                            -78.0441858268 a.u.
  Electron attachment energy:                                      8.147265 eV

  Pole strength:                                                      0.000564

  Dip. moment [a.u.]:                  [  -0.000000,   -0.000001,   -0.000000]
  Total dipole [Debye]:                                               0.000001
  <r^2> [a.u.]:                        [ 113.788976,   51.909782,   38.493019]
  Total <r^2> [a.u.]:                                               204.191776

  V1^2 = 0.0006, V2^2 = 0.9994

  Important amplitudes:
       occ i       vir a        vir b           v   
    -------------------------------------------------
     1 (B1u) A    5 (Ag ) A    3 (B3u) B      0.4492
     1 (B1u) B    5 (Ag ) B    3 (B3u) B      0.3403
    -------------------------------------------------

  Density matrix analysis:
  ------------------------
  NOs (alpha)
    Occupation of frontier NOs:
       0.2906   0.4936
    Number of electrons:  8.000000
  NOs (beta)
    Occupation of frontier NOs:
       0.3150   0.6508
    Number of electrons:  9.000000
  NOs (spin-traced)
    Occupation of frontier NOs:
       0.7955   0.8478
    Number of electrons: 17.000000
    Number of unpaired electrons: n_u =  3.28702, n_u,nl =  2.98814
    NO participation ratio (PR_NO):  4.760018
  
  
  Mulliken Population Analysis
  Atom  Charge (e)    Spin (e)  h+ (alpha)   h+ (beta)  e- (alpha)   e- (beta)
  ----------------------------------------------------------------------------
   1 C   -0.696696    0.491251    0.336584    0.157760   -0.357269   -0.669696
   2 C   -0.696696    0.491251    0.336584    0.157760   -0.357269   -0.669696
   3 H    0.098348    0.004374    0.001918    0.000918    0.008424    0.005050
   4 H    0.098350    0.004374    0.001918    0.000918    0.008424    0.005050
   5 H    0.098348    0.004374    0.001918    0.000918    0.008424    0.005050
   6 H    0.098346    0.004374    0.001918    0.000918    0.008424    0.005050
  ----------------------------------------------------------------------------
  Sum:   -1.000000    1.000000    0.680842    0.319193   -0.680842   -1.319193
  
  Multipole moment analysis of the density matrix
    Molecular charge:                      -1.000000
    Number of electrons:                   17.000000
      Center of electronic charge [Ang]: [  0.000000,   0.000000,   0.000000]
    Total nuclear charge:                  16.000000
      Center of nuclear charge [Ang]:    [  0.000000,   0.000000,   0.000000]
    Dipole moment [D]:                     0.000001
      Cartesian components [D]:          [ -0.000000,  -0.000001,  -0.000000]
    RMS size of the density [Ang]:         1.833985
      Cartesian components [Ang]:        [  1.369073,   0.924701,   0.796283]
  
  Exciton analysis of the difference density matrix
  Total:
    <r_h> [Ang]:                  [ -0.000000,   0.000000,  -0.000000]
    <r_e> [Ang]:                  [  0.000000,   0.000000,   0.000000]
    |<r_e - r_h>| [Ang]:            0.000000
    Hole size [Ang]:                1.256182
      Cartesian components [Ang]: [  0.749745,   0.512918,   0.867636]
    Electron size [Ang]:            4.233297
      Cartesian components [Ang]: [  3.084554,   2.073121,   2.026943]
  
  Alpha spin:
    <r_h> [Ang]:                  [ -0.000000,   0.000000,  -0.000000]
    <r_e> [Ang]:                  [  0.000000,  -0.000000,   0.000000]
    |<r_e - r_h>| [Ang]:            0.000000
    Hole size [Ang]:                1.256586
      Cartesian components [Ang]: [  0.749765,   0.512976,   0.868168]
    Electron size [Ang]:            3.461556
      Cartesian components [Ang]: [  2.232653,   1.860822,   1.880152]
  
  Beta spin:
    <r_h> [Ang]:                  [ -0.000000,   0.000000,  -0.000000]
    <r_e> [Ang]:                  [  0.000000,   0.000000,   0.000000]
    |<r_e - r_h>| [Ang]:            0.000000
    Hole size [Ang]:                1.255320
      Cartesian components [Ang]: [  0.749701,   0.512795,   0.866498]
    Electron size [Ang]:            4.581011
      Cartesian components [Ang]: [  3.442716,   2.174597,   2.098690]
  ----------------------------------------------------------------------------


  Electron-attached state 7 (B2g)                                  [converged]
  ----------------------------------------------------------------------------
  Term symbol:  7 (2) B2g                                   R^2 =  4.47527e-07

  Total energy:                                            -78.0317959304 a.u.
  Electron attachment energy:                                      8.484411 eV

  Pole strength:                                                      0.000214

  Dip. moment [a.u.]:                  [   0.000000,   -0.000001,   -0.000000]
  Total dipole [Debye]:                                               0.000001
  <r^2> [a.u.]:                        [ 139.132335,   65.779336,   42.435120]
  Total <r^2> [a.u.]:                                               247.346792

  V1^2 = 0.0002, V2^2 = 0.9998

  Important amplitudes:
       occ i       vir a        vir b           v   
    -------------------------------------------------
     1 (B1u) B    4 (Ag ) B    3 (B3u) B     -0.4192
     1 (B1u) B    2 (B1g) B    2 (B2u) B      0.2688
    -------------------------------------------------

  Density matrix analysis:
  ------------------------
  NOs (alpha)
    Occupation of frontier NOs:
       0.1259   0.6267
    Number of electrons:  8.000000
  NOs (beta)
    Occupation of frontier NOs:
       0.3140   0.5199
    Number of electrons:  9.000000
  NOs (spin-traced)
    Occupation of frontier NOs:
       0.6439   0.6470
    Number of electrons: 17.000000
    Number of unpaired electrons: n_u =  3.28682, n_u,nl =  3.03734
    NO participation ratio (PR_NO):  5.733840
  
  
  Mulliken Population Analysis
  Atom  Charge (e)    Spin (e)  h+ (alpha)   h+ (beta)  e- (alpha)   e- (beta)
  ----------------------------------------------------------------------------
   1 C   -0.643588    0.485655    0.169560    0.324504   -0.166489   -0.807088
   2 C   -0.643588    0.485655    0.169560    0.324504   -0.166489   -0.807088
   3 H    0.071794    0.007173    0.001023    0.001925   -0.002559   -0.010634
   4 H    0.071796    0.007173    0.001023    0.001925   -0.002559   -0.010634
   5 H    0.071794    0.007173    0.001023    0.001925   -0.002559   -0.010634
   6 H    0.071792    0.007173    0.001023    0.001925   -0.002559   -0.010634
  ----------------------------------------------------------------------------
  Sum:   -1.000000    1.000000    0.343212    0.656710   -0.343212   -1.656710
  
  Multipole moment analysis of the density matrix
    Molecular charge:                      -1.000000
    Number of electrons:                   17.000000
      Center of electronic charge [Ang]: [ -0.000000,   0.000000,   0.000000]
    Total nuclear charge:                  16.000000
      Center of nuclear charge [Ang]:    [  0.000000,   0.000000,   0.000000]
    Dipole moment [D]:                     0.000001
      Cartesian components [D]:          [  0.000000,  -0.000001,  -0.000000]
    RMS size of the density [Ang]:         2.018505
      Cartesian components [Ang]:        [  1.513877,   1.040930,   0.836064]
  
  Exciton analysis of the difference density matrix
  Total:
    <r_h> [Ang]:                  [ -0.000000,   0.000000,  -0.000000]
    <r_e> [Ang]:                  [ -0.000000,   0.000000,   0.000000]
    |<r_e - r_h>| [Ang]:            0.000000
    Hole size [Ang]:                1.254205
      Cartesian components [Ang]: [  0.749150,   0.511739,   0.865983]
    Electron size [Ang]:            4.895078
      Cartesian components [Ang]: [  3.614291,   2.497892,   2.158524]
  
  Alpha spin:
    <r_h> [Ang]:                  [ -0.000000,   0.000000,  -0.000000]
    <r_e> [Ang]:                  [ -0.000000,   0.000000,   0.000000]
    |<r_e - r_h>| [Ang]:            0.000000
    Hole size [Ang]:                1.253681
      Cartesian components [Ang]: [  0.749159,   0.511676,   0.865254]
    Electron size [Ang]:            4.884507
      Cartesian components [Ang]: [  3.620370,   2.493020,   2.129830]
  
  Beta spin:
    <r_h> [Ang]:                  [ -0.000000,   0.000000,  -0.000000]
    <r_e> [Ang]:                  [ -0.000000,   0.000000,   0.000000]
    |<r_e - r_h>| [Ang]:            0.000000
    Hole size [Ang]:                1.254478
      Cartesian components [Ang]: [  0.749146,   0.511772,   0.866363]
    Electron size [Ang]:            4.897266
      Cartesian components [Ang]: [  3.613030,   2.498900,   2.164421]
  ----------------------------------------------------------------------------


  Electron-attached state 8 (B2g)                                  [converged]
  ----------------------------------------------------------------------------
  Term symbol:  8 (2) B2g                                   R^2 =  3.93234e-07

  Total energy:                                            -78.0265292894 a.u.
  Electron attachment energy:                                      8.627724 eV

  Pole strength:                                                      0.002092

  Dip. moment [a.u.]:                  [   0.000000,   -0.000000,   -0.000000]
  Total dipole [Debye]:                                               0.000001
  <r^2> [a.u.]:                        [  94.728898,   64.304890,   68.674281]
  Total <r^2> [a.u.]:                                               227.708069

  V1^2 = 0.0021, V2^2 = 0.9979

  Important amplitudes:
       occ i       vir a        vir b           v   
    -------------------------------------------------
     1 (B1u) B    1 (B2g) B    2 (B1u) B      0.3675
     1 (B1u) B    2 (B1g) B    2 (B2u) B      0.2829
    -------------------------------------------------

  Density matrix analysis:
  ------------------------
  NOs (alpha)
    Occupation of frontier NOs:
       0.2542   0.5690
    Number of electrons:  8.000000
  NOs (beta)
    Occupation of frontier NOs:
       0.3852   0.4105
    Number of electrons:  9.000000
  NOs (spin-traced)
    Occupation of frontier NOs:
       0.6543   0.6677
    Number of electrons: 17.000000
    Number of unpaired electrons: n_u =  3.31412, n_u,nl =  3.12475
    NO participation ratio (PR_NO):  5.536040
  
  
  Mulliken Population Analysis
  Atom  Charge (e)    Spin (e)  h+ (alpha)   h+ (beta)  e- (alpha)   e- (beta)
  ----------------------------------------------------------------------------
   1 C   -0.639086    0.481216    0.201145    0.291103   -0.198042   -0.769216
   2 C   -0.639086    0.481216    0.201145    0.291103   -0.198042   -0.769216
   3 H    0.069543    0.009392    0.001537    0.002078   -0.003088   -0.013022
   4 H    0.069546    0.009392    0.001537    0.002078   -0.003089   -0.013022
   5 H    0.069544    0.009392    0.001537    0.002078   -0.003089   -0.013022
   6 H    0.069541    0.009392    0.001537    0.002078   -0.003088   -0.013022
  ----------------------------------------------------------------------------
  Sum:   -1.000000    1.000000    0.408438    0.590519   -0.408438   -1.590519
  
  Multipole moment analysis of the density matrix
    Molecular charge:                      -1.000000
    Number of electrons:                   17.000000
      Center of electronic charge [Ang]: [ -0.000000,   0.000000,   0.000000]
    Total nuclear charge:                  16.000000
      Center of nuclear charge [Ang]:    [  0.000000,   0.000000,   0.000000]
    Dipole moment [D]:                     0.000001
      Cartesian components [D]:          [  0.000000,  -0.000001,  -0.000000]
    RMS size of the density [Ang]:         1.936716
      Cartesian components [Ang]:        [  1.249160,   1.029197,   1.063589]
  
  Exciton analysis of the difference density matrix
  Total:
    <r_h> [Ang]:                  [ -0.000000,   0.000000,  -0.000000]
    <r_e> [Ang]:                  [  0.000000,   0.000000,   0.000000]
    |<r_e - r_h>| [Ang]:            0.000000
    Hole size [Ang]:                1.262006
      Cartesian components [Ang]: [  0.755390,   0.518353,   0.867961]
    Electron size [Ang]:            4.607741
      Cartesian components [Ang]: [  2.617913,   2.457480,   2.887664]
  
  Alpha spin:
    <r_h> [Ang]:                  [ -0.000000,   0.000000,  -0.000000]
    <r_e> [Ang]:                  [  0.000000,   0.000000,   0.000000]
    |<r_e - r_h>| [Ang]:            0.000000
    Hole size [Ang]:                1.259698
      Cartesian components [Ang]: [  0.755407,   0.517954,   0.864826]
    Electron size [Ang]:            4.235187
      Cartesian components [Ang]: [  2.686608,   2.245990,   2.382116]
  
  Beta spin:
    <r_h> [Ang]:                  [ -0.000000,   0.000000,  -0.000000]
    <r_e> [Ang]:                  [  0.000000,   0.000000,   0.000000]
    |<r_e - r_h>| [Ang]:            0.000000
    Hole size [Ang]:                1.263600
      Cartesian components [Ang]: [  0.755377,   0.518629,   0.870123]
    Electron size [Ang]:            4.698647
      Cartesian components [Ang]: [  2.599980,   2.508914,   3.003787]
  ----------------------------------------------------------------------------


  Electron-attached state 9 (B2g)                                  [converged]
  ----------------------------------------------------------------------------
  Term symbol:  9 (2) B2g                                   R^2 =  2.77092e-06

  Total energy:                                            -78.0170427129 a.u.
  Electron attachment energy:                                      8.885867 eV

  Pole strength:                                                      0.031291

  Dip. moment [a.u.]:                  [   0.000000,   -0.000001,    0.000000]
  Total dipole [Debye]:                                               0.000001
  <r^2> [a.u.]:                        [  83.398247,   49.730766,   44.023454]
  Total <r^2> [a.u.]:                                               177.152468

  V1^2 = 0.0317, V2^2 = 0.9683

  Important amplitudes:
       occ i       vir a        vir b           v   
    -------------------------------------------------
     1 (B1u) A    3 (B1u) A    2 (B2g) B      0.3341
     1 (B1u) B    2 (B1g) B    2 (B2u) B     -0.2119
    -------------------------------------------------

  Density matrix analysis:
  ------------------------
  NOs (alpha)
    Occupation of frontier NOs:
       0.2653   0.4185
    Number of electrons:  8.000000
  NOs (beta)
    Occupation of frontier NOs:
       0.1780   0.5014
    Number of electrons:  9.000000
  NOs (spin-traced)
    Occupation of frontier NOs:
       0.4916   0.6675
    Number of electrons: 17.000000
    Number of unpaired electrons: n_u =  3.28815, n_u,nl =  2.75993
    NO participation ratio (PR_NO):  6.139078
  
  
  Mulliken Population Analysis
  Atom  Charge (e)    Spin (e)  h+ (alpha)   h+ (beta)  e- (alpha)   e- (beta)
  ----------------------------------------------------------------------------
   1 C   -0.622358    0.482548    0.327468    0.167913   -0.315336   -0.638328
   2 C   -0.622358    0.482548    0.327468    0.167913   -0.315336   -0.638328
   3 H    0.061179    0.008726    0.001600    0.001151   -0.007666   -0.015943
   4 H    0.061181    0.008726    0.001600    0.001151   -0.007666   -0.015943
   5 H    0.061179    0.008726    0.001600    0.001151   -0.007666   -0.015943
   6 H    0.061177    0.008726    0.001600    0.001151   -0.007666   -0.015943
  ----------------------------------------------------------------------------
  Sum:   -1.000000    1.000000    0.661335    0.340429   -0.661335   -1.340429
  
  Multipole moment analysis of the density matrix
    Molecular charge:                      -1.000000
    Number of electrons:                   17.000000
      Center of electronic charge [Ang]: [ -0.000000,   0.000000,  -0.000000]
    Total nuclear charge:                  16.000000
      Center of nuclear charge [Ang]:    [  0.000000,   0.000000,   0.000000]
    Dipole moment [D]:                     0.000001
      Cartesian components [D]:          [  0.000000,  -0.000001,   0.000000]
    RMS size of the density [Ang]:         1.708245
      Cartesian components [Ang]:        [  1.172074,   0.905085,   0.851567]
  
  Exciton analysis of the difference density matrix
  Total:
    <r_h> [Ang]:                  [  0.000000,   0.000000,  -0.000000]
    <r_e> [Ang]:                  [  0.000000,   0.000000,  -0.000000]
    |<r_e - r_h>| [Ang]:            0.000000
    Hole size [Ang]:                1.351600
      Cartesian components [Ang]: [  0.798991,   0.573747,   0.926957]
    Electron size [Ang]:            3.774740
      Cartesian components [Ang]: [  2.300766,   2.005643,   2.220931]
  
  Alpha spin:
    <r_h> [Ang]:                  [  0.000000,   0.000000,  -0.000000]
    <r_e> [Ang]:                  [  0.000000,   0.000000,  -0.000000]
    |<r_e - r_h>| [Ang]:            0.000000
    Hole size [Ang]:                1.344974
      Cartesian components [Ang]: [  0.793978,   0.566759,   0.925926]
    Electron size [Ang]:            3.671077
      Cartesian components [Ang]: [  2.077988,   1.818317,   2.419192]
  
  Beta spin:
    <r_h> [Ang]:                  [  0.000000,   0.000000,  -0.000000]
    <r_e> [Ang]:                  [  0.000000,   0.000000,  -0.000000]
    |<r_e - r_h>| [Ang]:            0.000000
    Hole size [Ang]:                1.364380
      Cartesian components [Ang]: [  0.808641,   0.587086,   0.928957]
    Electron size [Ang]:            3.824850
      Cartesian components [Ang]: [  2.403083,   2.091894,   2.116283]
  ----------------------------------------------------------------------------


  Electron-attached state 10 (B2g)                                  [converged]
  ----------------------------------------------------------------------------
  Term symbol:  10 (2) B2g                                  R^2 =  3.52217e-06

  Total energy:                                            -78.0149941570 a.u.
  Electron attachment energy:                                      8.941611 eV

  Pole strength:                                                      0.016556

  Dip. moment [a.u.]:                  [   0.000000,   -0.000000,    0.000000]
  Total dipole [Debye]:                                               0.000001
  <r^2> [a.u.]:                        [  96.148704,   57.795843,   45.069954]
  Total <r^2> [a.u.]:                                               199.014501

  V1^2 = 0.0168, V2^2 = 0.9832

  Important amplitudes:
       occ i       vir a        vir b           v   
    -------------------------------------------------
     1 (B1u) A    3 (B1u) A    2 (B2g) B      0.2747
     1 (B1u) B    2 (B1g) B    2 (B2u) B      0.2494
    -------------------------------------------------

  Density matrix analysis:
  ------------------------
  NOs (alpha)
    Occupation of frontier NOs:
       0.2186   0.4610
    Number of electrons:  8.000000
  NOs (beta)
    Occupation of frontier NOs:
       0.2413   0.3813
    Number of electrons:  9.000000
  NOs (spin-traced)
    Occupation of frontier NOs:
       0.3374   0.5054
    Number of electrons: 17.000000
    Number of unpaired electrons: n_u =  3.32711, n_u,nl =  2.72371
    NO participation ratio (PR_NO):  6.842375
  
  
  Mulliken Population Analysis
  Atom  Charge (e)    Spin (e)  h+ (alpha)   h+ (beta)  e- (alpha)   e- (beta)
  ----------------------------------------------------------------------------
   1 C   -0.611019    0.474870    0.270663    0.226563   -0.256699   -0.687470
   2 C   -0.611019    0.474870    0.270663    0.226563   -0.256699   -0.687470
   3 H    0.055509    0.012565    0.001416    0.001401   -0.008398   -0.020948
   4 H    0.055512    0.012565    0.001416    0.001401   -0.008398   -0.020948
   5 H    0.055510    0.012565    0.001416    0.001401   -0.008398   -0.020948
   6 H    0.055507    0.012565    0.001416    0.001401   -0.008398   -0.020948
  ----------------------------------------------------------------------------
  Sum:   -1.000000    1.000000    0.546990    0.458731   -0.546990   -1.458731
  
  Multipole moment analysis of the density matrix
    Molecular charge:                      -1.000000
    Number of electrons:                   17.000000
      Center of electronic charge [Ang]: [ -0.000000,   0.000000,  -0.000000]
    Total nuclear charge:                  16.000000
      Center of nuclear charge [Ang]:    [  0.000000,   0.000000,   0.000000]
    Dipole moment [D]:                     0.000001
      Cartesian components [D]:          [  0.000000,  -0.000001,   0.000000]
    RMS size of the density [Ang]:         1.810585
      Cartesian components [Ang]:        [  1.258486,   0.975719,   0.861629]
  
  Exciton analysis of the difference density matrix
  Total:
    <r_h> [Ang]:                  [  0.000000,   0.000000,  -0.000000]
    <r_e> [Ang]:                  [  0.000000,   0.000000,  -0.000000]
    |<r_e - r_h>| [Ang]:            0.000000
    Hole size [Ang]:                1.324538
      Cartesian components [Ang]: [  0.786516,   0.554762,   0.909964]
    Electron size [Ang]:            4.152120
      Cartesian components [Ang]: [  2.656045,   2.265078,   2.248322]
  
  Alpha spin:
    <r_h> [Ang]:                  [  0.000000,   0.000000,  -0.000000]
    <r_e> [Ang]:                  [  0.000000,   0.000000,  -0.000000]
    |<r_e - r_h>| [Ang]:            0.000000
    Hole size [Ang]:                1.334394
      Cartesian components [Ang]: [  0.791969,   0.558692,   0.917199]
    Electron size [Ang]:            3.970005
      Cartesian components [Ang]: [  2.425560,   2.085555,   2.351182]
  
  Beta spin:
    <r_h> [Ang]:                  [  0.000000,   0.000000,  -0.000000]
    <r_e> [Ang]:                  [  0.000000,   0.000000,  -0.000000]
    |<r_e - r_h>| [Ang]:            0.000000
    Hole size [Ang]:                1.312690
      Cartesian components [Ang]: [  0.779963,   0.550039,   0.901260]
    Electron size [Ang]:            4.218383
      Cartesian components [Ang]: [  2.737473,   2.328830,   2.208517]
  ----------------------------------------------------------------------------


--------------------------------------------------------------------------------
  Time of ADC calculation:  CPU 225.12 s  wall 51.60 s
================================================================================
 
 --------------------------------------------------------------
             Orbital Energies (a.u.) and Symmetries
 --------------------------------------------------------------
 
 Alpha MOs, Restricted
 -- Occupied --                  
-11.237 -11.235  -1.042  -0.782  -0.661  -0.567  -0.515  -0.377
  1 Ag    1 B3u   2 Ag    2 B3u   1 B2u   3 Ag    1 B1g   1 B1u                
 -- Virtual --                   
  0.035   0.038   0.042   0.053   0.055   0.060   0.096   0.122
  3 B3u   2 B2u   2 B1u   2 B1g   1 B2g   4 Ag    5 Ag    4 B3u                
  0.124   0.153   0.171   0.176   0.193   0.253   0.266   0.294
  2 B2g   3 B2u   3 B1g   3 B1u   6 Ag    3 B2g   7 Ag    5 B3u                
  0.336   0.347   0.450   0.507   0.673   0.756   0.851   0.860
  4 B2u   6 B3u   4 B1g   7 B3u   8 Ag    5 B2u   4 B1u   9 Ag                 
  0.901   0.911   0.930   0.993   1.025   1.037   1.114   1.283
  6 B2u   4 B2g   8 B3u   9 B3u  10 Ag    5 B1g   1 B3g   5 B1u                
  1.284   1.317   1.346   1.606   1.615   1.695   1.846   1.918
  1 Au   10 B3u   6 B1g  11 Ag    7 B1g   7 B2u   5 B2g  11 B3u                
  1.937   1.975   2.017   2.034   2.170   2.273   2.412   2.439
  6 B1u  12 Ag    2 B3g   8 B2u   6 B2g  12 B3u   2 Au   13 Ag                 
  2.540   2.573   2.799   2.801   3.260   3.340
  8 B1g  13 B3u  14 Ag    9 B2u  14 B3u   9 B1g                                
 
 Beta MOs, Restricted
 -- Occupied --                  
-11.237 -11.235  -1.042  -0.782  -0.661  -0.567  -0.515  -0.377
  1 Ag    1 B3u   2 Ag    2 B3u   1 B2u   3 Ag    1 B1g   1 B1u                
 -- Virtual --                   
  0.035   0.038   0.042   0.053   0.055   0.060   0.096   0.122
  3 B3u   2 B2u   2 B1u   2 B1g   1 B2g   4 Ag    5 Ag    4 B3u                
  0.124   0.153   0.171   0.176   0.193   0.253   0.266   0.294
  2 B2g   3 B2u   3 B1g   3 B1u   6 Ag    3 B2g   7 Ag    5 B3u                
  0.336   0.347   0.450   0.507   0.673   0.756   0.851   0.860
  4 B2u   6 B3u   4 B1g   7 B3u   8 Ag    5 B2u   4 B1u   9 Ag                 
  0.901   0.911   0.930   0.993   1.025   1.037   1.114   1.283
  6 B2u   4 B2g   8 B3u   9 B3u  10 Ag    5 B1g   1 B3g   5 B1u                
  1.284   1.317   1.346   1.606   1.615   1.695   1.846   1.918
  1 Au   10 B3u   6 B1g  11 Ag    7 B1g   7 B2u   5 B2g  11 B3u                
  1.937   1.975   2.017   2.034   2.170   2.273   2.412   2.439
  6 B1u  12 Ag    2 B3g   8 B2u   6 B2g  12 B3u   2 Au   13 Ag                 
  2.540   2.573   2.799   2.801   3.260   3.340
  8 B1g  13 B3u  14 Ag    9 B2u  14 B3u   9 B1g                                
 --------------------------------------------------------------
 
          Ground-State Mulliken Net Atomic Charges

     Atom                 Charge (a.u.)
  ----------------------------------------
      1 C                    -0.150093
      2 C                    -0.150093
      3 H                     0.075046
      4 H                     0.075049
      5 H                     0.075047
      6 H                     0.075044
  ----------------------------------------
  Sum of atomic charges =     0.000000

 -----------------------------------------------------------------
                    Cartesian Multipole Moments
 -----------------------------------------------------------------
    Charge (ESU x 10^10)
                -0.0000
    Dipole Moment (Debye)
         X       0.0000      Y      -0.0000      Z       0.0000
       Tot       0.0000
    Quadrupole Moments (Debye-Ang)
        XX     -12.9405     XY       0.0000     YY     -11.9603
        XZ      -0.0000     YZ      -0.0000     ZZ     -16.1176
    Octopole Moments (Debye-Ang^2)
       XXX       0.0000    XXY      -0.0000    XYY       0.0000
       YYY      -0.0000    XXZ      -0.0000    XYZ      -0.0000
       YYZ       0.0000    XZZ       0.0000    YZZ      -0.0000
       ZZZ       0.0000
    Hexadecapole Moments (Debye-Ang^3)
      XXXX     -68.1895   XXXY       0.0000   XXYY     -13.2332
      XYYY       0.0000   YYYY     -26.8202   XXXZ       0.0000
      XXYZ       0.0000   XYYZ      -0.0000   YYYZ       0.0000
      XXZZ     -15.5163   XYZZ       0.0000   YYZZ      -8.8974
      XZZZ      -0.0000   YZZZ       0.0000   ZZZZ     -21.2964
 -----------------------------------------------------------------
 Total job time:  134.88s(wall), 267.84s(cpu) 
 Sun Mar 27 21:19:59 2022

        *************************************************************
        *                                                           *
        *  Thank you very much for using Q-Chem.  Have a nice day.  *
        *                                                           *
        *************************************************************


