This is a multi-thread run using 8 threads
/src/tsommerfeld/qchem/exe/qcprog.exe .input1.055556.10607.qcin.1 /src/jdavis/qchem.scratch/qchem10607/

                  Welcome to Q-Chem
     A Quantum Leap Into The Future Of Chemistry


 Q-Chem 5.4 (devel), Q-Chem, Inc., Pleasanton, CA (2021)

 E. Epifanovsky,  A. T. B. Gilbert,  Xintian Feng,  Joonho Lee,  Yuezhi Mao,  
 N. Mardirossian,  P. Pokhilko,  A. White,  M. Wormit,  M. P. Coons,  
 A. L. Dempwolff,  Zhengting Gan,  D. Hait,  P. R. Horn,  L. D. Jacobson,  
 I. Kaliman,  J. Kussmann,  A. W. Lange,  Ka Un Lao,  D. S. Levine,  Jie Liu,  
 S. C. McKenzie,  A. F. Morrison,  K. Nanda,  F. Plasser,  D. R. Rehn,  
 M. L. Vidal,  Zhi-Qiang You,  Ying Zhu,  B. Alam,  B. Albrecht,  
 A. Aldossary,  E. Alguire,  J. H. Andersen,  D. Barton,  K. Begam,  A. Behn,  
 Y. A. Bernard,  E. J. Berquist,  H. Burton,  A. Carreras,  K. Carter-Fenk,  
 R. Chakraborty,  A. D. Chien,  K. D. Closser,  V. Cofer-Shabica,  
 S. Dasgupta,  Jia Deng,  M. de Wergifosse,  M. Diedenhofen,  Hainam Do,  
 S. Ehlert,  Po-Tung Fang,  S. Fatehi,  Qingguo Feng,  T. Friedhoff,  
 J. Gayvert,  Qinghui Ge,  G. Gidofalvi,  M. Goldey,  J. Gomes,  
 C. Gonzalez-Espinoza,  S. Gulania,  A. Gunina,  M. W. D. Hanson-Heine,  
 P. H. P. Harbach,  A. W. Hauser,  M. F. Herbst,  M. Hernandez Vera,  
 M. Hodecker,  Z. C. Holden,  S. Houck,  Xunkun Huang,  Kerwin Hui,  
 B. C. Huynh,  M. Ivanov,  Hyunjun Ji,  Hanjie Jiang,  B. Kaduk,  S. Kaehler,  
 K. Khistyaev,  Jaehoon Kim,  P. Klunzinger,  Z. Koczor-Benda,  
 Joong Hoon Koh,  D. Kosenkov,  L. Koulias,  T. Kowalczyk,  C. M. Krauter,  
 K. Kue,  A. Kunitsa,  T. Kus,  A. Landau,  K. V. Lawler,  D. Lefrancois,  
 S. Lehtola,  Rain Li,  Yi-Pei Li,  Jiashu Liang,  M. Liebenthal,  
 Hung-Hsuan Lin,  You-Sheng Lin,  Fenglai Liu,  Kuan-Yu Liu,  
 M. Loipersberger,  A. Luenser,  A. Manjanath,  P. Manohar,  E. Mansoor,  
 S. F. Manzer,  Shan-Ping Mao,  A. V. Marenich,  T. Markovich,  S. Mason,  
 S. A. Maurer,  P. F. McLaughlin,  M. F. S. J. Menger,  J.-M. Mewes,  
 S. A. Mewes,  P. Morgante,  J. W. Mullinax,  K. J. Oosterbaan,  G. Paran,  
 Alexander C. Paul,  Suranjan K. Paul,  F. Pavosevic,  Zheng Pei,  S. Prager,  
 E. I. Proynov,  E. Ramos,  B. Rana,  A. E. Rask,  A. Rettig,  R. M. Richard,  
 F. Rob,  E. Rossomme,  T. Scheele,  M. Scheurer,  M. Schneider,  
 N. Sergueev,  S. M. Sharada,  W. Skomorowski,  D. W. Small,  C. J. Stein,  
 Yu-Chuan Su,  E. J. Sundstrom,  Zhen Tao,  J. Thirman,  T. Tsuchimochi,  
 N. M. Tubman,  S. P. Veccham,  O. Vydrov,  J. Wenzel,  J. Witte,  A. Yamada,  
 Kun Yao,  S. Yeganeh,  S. R. Yost,  A. Zech,  Igor Ying Zhang,  Xing Zhang,  
 Yu Zhang,  D. Zuev,  A. Aspuru-Guzik,  A. T. Bell,  N. A. Besley,  
 K. B. Bravaya,  B. R. Brooks,  D. Casanova,  Jeng-Da Chai,  S. Coriani,  
 C. J. Cramer,  A. E. DePrince, III,  R. A. DiStasio Jr.,  A. Dreuw,  
 B. D. Dunietz,  T. R. Furlani,  W. A. Goddard III,  S. Grimme,  
 S. Hammes-Schiffer,  T. Head-Gordon,  W. J. Hehre,  Chao-Ping Hsu,  
 T.-C. Jagau,  Yousung Jung,  A. Klamt,  Jing Kong,  D. S. Lambrecht,  
 WanZhen Liang,  N. J. Mayhall,  C. W. McCurdy,  J. B. Neaton,  
 C. Ochsenfeld,  J. A. Parkhill,  R. Peverati,  V. A. Rassolov,  Yihan Shao,  
 L. V. Slipchenko,  T. Stauch,  R. P. Steele,  J. E. Subotnik,  
 A. J. W. Thom,  A. Tkatchenko,  D. G. Truhlar,  T. Van Voorhis,  
 T. A. Wesolowski,  K. B. Whaley,  H. L. Woodcock III,  P. M. Zimmerman,  
 S. Faraji,  P. M. W. Gill,  M. Head-Gordon,  J. M. Herbert,  A. I. Krylov

 Additional authors for Version 5.4.1: 
 S. Kotaru,  Shaozhi Li,  Xiangyuan Li,  F. Matz,  A. Molle,  Haisheng Ren,  
 Yingli Su,  Hung-Yi Tsai,  C. Utku,  Fang Wang

 Contributors to earlier versions of Q-Chem not listed above: 
 R. D. Adamson,  B. Austin,  R. Baer,  J. Baker,  G. J. O. Beran,  
 K. Brandhorst,  S. T. Brown,  E. F. C. Byrd,  A. K. Chakraborty,  
 G. K. L. Chan,  Chun-Min Chang,  Yunqing Chen,  C.-L. Cheng,  
 Siu Hung Chien,  D. M. Chipman,  D. L. Crittenden,  H. Dachsel,  
 R. J. Doerksen,  A. D. Dutoi,  R. G. Edgar,  J. Fosso-Tande,  
 L. Fusti-Molnar,  D. Ghosh,  A. Ghysels,  A. Golubeva-Zadorozhnaya,  
 J. Gonthier,  M. S. Gordon,  S. R. Gwaltney,  G. Hawkins,  J. E. Herr,  
 A. Heyden,  S. Hirata,  E. G. Hohenstein,  G. Kedziora,  F. J. Keil,  
 C. Kelley,  Jihan Kim,  R. A. King,  R. Z. Khaliullin,  P. P. Korambath,  
 W. Kurlancheek,  A. Laurent,  A. M. Lee,  M. S. Lee,  S. V. Levchenko,  
 Ching Yeh Lin,  D. Liotard,  E. Livshits,  R. C. Lochan,  I. Lotan,  
 L. A. Martinez-Martinez,  P. E. Maslen,  N. Nair,  D. P. O'Neill,  
 D. Neuhauser,  E. Neuscamman,  C. M. Oana,  R. Olivares-Amaya,  R. Olson,  
 T. M. Perrine,  B. Peters,  P. A. Pieniazek,  A. Prociuk,  Y. M. Rhee,  
 J. Ritchie,  M. A. Rohrdanz,  E. Rosta,  N. J. Russ,  H. F. Schaefer III,  
 M. W. Schmidt,  N. E. Schultz,  S. Sharma,  N. Shenvi,  C. D. Sherrill,  
 A. C. Simmonett,  A. Sodt,  T. Stein,  D. Stuck,  K. S. Thanthiriwatte,  
 V. Vanovschi,  L. Vogt,  Tao Wang,  A. Warshel,  M. A. Watson,  
 C. F. Williams,  Q. Wu,  X. Xu,  Jun Yang,  W. Zhang,  Yan Zhao

 Please cite Q-Chem as follows:
 Y. Shao et al., Mol. Phys. 113, 184-215 (2015)
 DOI: 10.1080/00268976.2014.952696

 Q-Chem 5.4.1 for Intel X86 EM64T Linux

 Parts of Q-Chem use Armadillo 9.900.5 (Nocturnal Misbehaviour).
 http://arma.sourceforge.net/

 Q-Chem begins on Sun Mar 27 21:52:44 2022  

 Host: node01
0

     Scratch files written to /src/jdavis/qchem.scratch/qchem10607//
 Processing $rem in /src/tsommerfeld/qchem/config/preferences:
 Processing $rem in /home/jdavis/.qchemrc:

 Checking the input file for inconsistencies... 	...done.

--------------------------------------------------------------
User input:
--------------------------------------------------------------
$molecule
0 1
C        -0.6645000000    0.0000000000   -0.2082049804
C         0.6645000000    0.0000000000   -0.2082049804
H        -1.1590800000    0.0000000000    0.7541440196
H         1.1590800000    0.0000000000    0.7541440196
H        -1.1590800000    0.0000000000   -1.1705529804
H         1.1590800000    0.0000000000   -1.1705529804
$end

$rem
   METHOD adc(3)
   BASIS gen
   PURECART 11
   EA_STATES [0,0,10,0,0,0,0,0]
   scf_convergence 8
   ADC_DAVIDSON_MAXITER 120
   ADC_DAVIDSON_MAXSUBSPACE 200
   adc_nguess_singles 100
   THRESH 14
   S2THRESH 14
   adc_davidson_conv 5
   adc_davidson_thresh 14
   THREADS 10
   MEM_TOTAL 95000
   STATE_ANALYSIS TRUE
$end
$basis
C 1
S   9   1.00
      6.665000D+03           6.920000D-04
      1.000000D+03           5.329000D-03
      2.280000D+02           2.707700D-02
      6.471000D+01           1.017180D-01
      2.106000D+01           2.747400D-01
      7.495000D+00           4.485640D-01
      2.797000D+00           2.850740D-01
      5.215000D-01           1.520400D-02
      1.596000D-01          -3.191000D-03
S   9   1.00
      6.665000D+03          -1.460000D-04
      1.000000D+03          -1.154000D-03
      2.280000D+02          -5.725000D-03
      6.471000D+01          -2.331200D-02
      2.106000D+01          -6.395500D-02
      7.495000D+00          -1.499810D-01
      2.797000D+00          -1.272620D-01
      5.215000D-01           5.445290D-01
      1.596000D-01           5.804960D-01
S   1   1.00
      1.596000D-01           1.000000D+00
S   1   1.00
      0.0469000              1.0000000
P   4   1.00
      9.439000D+00           3.810900D-02
      2.002000D+00           2.094800D-01
      5.456000D-01           5.085570D-01
      1.517000D-01           4.688420D-01
P   1   1.00
      1.517000D-01           1.000000D+00
P   1   1.00
      0.0640511      1.0000000
P   1   1.00
      0.0320256      1.0000000
D   1   1.00
      5.500000D-01           1.0000000
****
C 2
S   9   1.00
      6.665000D+03           6.920000D-04
      1.000000D+03           5.329000D-03
      2.280000D+02           2.707700D-02
      6.471000D+01           1.017180D-01
      2.106000D+01           2.747400D-01
      7.495000D+00           4.485640D-01
      2.797000D+00           2.850740D-01
      5.215000D-01           1.520400D-02
      1.596000D-01          -3.191000D-03
S   9   1.00
      6.665000D+03          -1.460000D-04
      1.000000D+03          -1.154000D-03
      2.280000D+02          -5.725000D-03
      6.471000D+01          -2.331200D-02
      2.106000D+01          -6.395500D-02
      7.495000D+00          -1.499810D-01
      2.797000D+00          -1.272620D-01
      5.215000D-01           5.445290D-01
      1.596000D-01           5.804960D-01
S   1   1.00
      1.596000D-01           1.000000D+00
S   1   1.00
      0.0469000              1.0000000
P   4   1.00
      9.439000D+00           3.810900D-02
      2.002000D+00           2.094800D-01
      5.456000D-01           5.085570D-01
      1.517000D-01           4.688420D-01
P   1   1.00
      1.517000D-01           1.000000D+00
P   1   1.00
      0.0640511      1.0000000
P   1   1.00
      0.0320256      1.0000000
D   1   1.00
      5.500000D-01           1.0000000
****
H 3
cc-pVDZ
****
H 4
cc-pVDZ
****
H 5
cc-pVDZ
****
H 6
cc-pVDZ
****
H 7
aug-cc-pVDZ
****
$end
--------------------------------------------------------------
 Atom   2: ( -0.6645000000, -0.0000001250,  0.0000000000)
         ->( -0.6645000000,  0.0000001250, -0.0000000000)
 Atom   1: (  0.6645000000, -0.0000001250, -0.0000000000)
         ->(  0.6645000000,  0.0000000000,  0.0000000000)
 Atom   6: ( -1.1590800000, -0.9623481250, -0.0000000000)
         ->( -1.1590800000, -0.9623488750,  0.0000000000)
 Atom   5: (  1.1590800000, -0.9623481250, -0.0000000000)
         ->(  1.1590800000, -0.9623488750, -0.0000000000)
 ----------------------------------------------------------------
             Standard Nuclear Orientation (Angstroms)
    I     Atom           X                Y                Z
 ----------------------------------------------------------------
    1      C       0.6645000000     0.0000000000     0.0000000000
    2      C      -0.6645000000     0.0000001250    -0.0000000000
    3      H       1.1590800000     0.9623488750     0.0000000000
    4      H      -1.1590800000     0.9623488750     0.0000000000
    5      H       1.1590800000    -0.9623488750    -0.0000000000
    6      H      -1.1590800000    -0.9623488750     0.0000000000
 ----------------------------------------------------------------
 Molecular Point Group                 D2h   NOp =  8
 Largest Abelian Subgroup              D2h   NOp =  8
 Nuclear Repulsion Energy =          33.58921667 hartrees
 There are        8 alpha and        8 beta electrons
 Requested basis set is non-standard
 There are 30 shells and 62 basis functions
 Total memory of 95000 MB is distributed as follows: 
   MEM_STATIC is set to 192 MB
   QALLOC/CCMAN JOB total memory use is  94808 MB
 Warning: actual memory use might exceed 95000 MB

 Total QAlloc Memory Limit  95000 MB
 Mega-Array Size       188 MB
 MEM_STATIC part       192 MB

                       Distance Matrix (Angstroms)
             C (  1)   C (  2)   H (  3)   H (  4)   H (  5)
   C (  2)  1.329000
   H (  3)  1.082000  2.061931
   H (  4)  2.061931  1.082000  2.318160
   H (  5)  1.082000  2.061931  1.924698  3.013026
   H (  6)  2.061931  1.082000  3.013026  1.924698  2.318160
 
 A cutoff of  1.0D-14 yielded    465 shell pairs
 There are      2009 function pairs (      2146 Cartesian)
 Smallest overlap matrix eigenvalue = 2.44E-04

 Scale SEOQF with 1.000000e-01/1.000000e-01/1.000000e-01

 Standard Electronic Orientation quadrupole field applied
 Nucleus-field energy     =     0.0000000006 hartrees
 ================ Generating on-the-fly SAD Guess ================
Attempting to make child job directory: /src/jdavis/qchem.scratch/qchem10607//Frg1/
Attempting to make child job directory: /src/jdavis/qchem.scratch/qchem10607//Frg2/
Creating input file /src/jdavis/qchem.scratch/qchem10607/Frg1.input
using default PutDataFrgm: nothing
calling putenv with: QCSCRATCH=/src/jdavis/qchem.scratch/qchem10607/ 
Spawning Job For Fragment 0
Done Job For Fragment 0
calling putenv with: QCSCRATCH=/src/jdavis/qchem.scratch 
calling putenv with: QCTHREADS=8 
Creating input file /src/jdavis/qchem.scratch/qchem10607/Frg2.input
using default PutDataFrgm: nothing
calling putenv with: QCSCRATCH=/src/jdavis/qchem.scratch/qchem10607/ 
Spawning Job For Fragment 1
Done Job For Fragment 1
calling putenv with: QCSCRATCH=/src/jdavis/qchem.scratch 
calling putenv with: QCTHREADS=8 
 Time for running child jobs:  CPU 1.81 s  wall 55.66 s
 ============= Method Specific SAD Guess Constructed =============
 Guess from on-the-fly superposition of atomic densities
 Warning: Energy on first SCF cycle will be non-variational
 A restricted Hartree-Fock SCF calculation will be
 performed using Pulay DIIS extrapolation
 SCF converges when DIIS error is below 1.0E-08
 using 10 threads for integral computing
 -------------------------------------------------------
 OpenMP Integral computing Module                
 Release: version 1.0, May 2013, Q-Chem Inc. Pittsburgh 
 -------------------------------------------------------
 ---------------------------------------
  Cycle       Energy         DIIS Error
 ---------------------------------------
    1     -78.4573894089      7.95E-02
    2     -78.0143164978      5.76E-03
    3     -78.0356303283      1.51E-03
    4     -78.0372658373      5.00E-04
    5     -78.0374360500      6.09E-05
    6     -78.0374409015      1.28E-05
    7     -78.0374412710      3.04E-06
    8     -78.0374413265      2.75E-07
    9     -78.0374413313      3.45E-08
   10     -78.0374413316      3.63E-09 Convergence criterion met
 ---------------------------------------
 SCF time:  CPU 8.69 s  wall 0.87 s
 SCF   energy in the final basis set = -78.03744133
 Total energy in the final basis set = -78.03744133
================================================================================
|                                                                              |
|                                 A D C  M A N                                 |
|                                                                              |
 ------------------------------------------------------------------------------ 
|                                                                              |
| Components:                                                                  |
|                                                                              |
| - libvmm - 1.3-trunk                                                         |
|   Authors:                                                                   |
|   Evgeny Epifanovsky, Ilya Kaliman                                           |
|                                                                              |
| - libtensor - 2.5-trunk                                                      |
|   Authors:                                                                   |
|   Evgeny Epifanovsky, Michael Wormit, Dmitry Zuev, Sam Manzer,               |
|   Ilya Kaliman                                                               |
|                                                                              |
| - libwfa - 1.1-trunk                                                         |
|   Authors:                                                                   |
|   Felix Plasser, Stefanie Mewes (Baeppler), Benjamin Thomitzni,              |
|   Michael Wormit, Feng Chen, Anna I. Krylov, Pavel Pokhilko                  |
|                                                                              |
| - libadc - 1.1-trunk                                                         |
|   Authors:                                                                   |
|   Michael Wormit, Adrian L. Dempwolff, Philipp H. P. Harbach,                |
|   Caroline Krauter, Dirk Rehn, Matthias Schneider, Jan Wenzel                |
|                                                                              |
| - adcman - 2.6-trunk                                                         |
|   Authors:                                                                   |
|   Michael Wormit, Adrian L. Dempwolff, Philipp H. P. Harbach,                |
|   Caroline Krauter, Daniel Lefrancois, Jan-Michael Mewes, Dirk Rehn,         |
|   Matthias Schneider, Jan Wenzel, Andreas Dreuw                              |
|                                                                              |
| Authors of earlier versions of ADCMAN:                                       |
| Andreas Dreuw, Jan Hendrik Starcke, Dirk Rehn, Michael Wormit                |
|                                                                              |
================================================================================

 
 Alpha MOs, Restricted
 -- Occupied --                  
-11.237 -11.235  -1.042  -0.782  -0.660  -0.567  -0.515  -0.377
  1 Ag    1 B3u   2 Ag    2 B3u   1 B2u   3 Ag    1 B1g   1 B1u                
 -- Virtual --                   
  0.058   0.066   0.075   0.080   0.085   0.090   0.122   0.162
  3 B3u   2 B2u   2 B1u   4 Ag    1 B2g   2 B1g   5 Ag    2 B2g                
  0.195   0.261   0.264   0.285   0.285   0.290   0.293   0.340
  4 B3u   6 Ag    3 B2u   5 B3u   3 B1g   7 Ag    3 B1u   4 B2u                
  0.363   0.372   0.547   0.600   0.809   0.860   0.889   0.930
  6 B3u   3 B2g   4 B1g   7 B3u   8 Ag    5 B2u   9 Ag    8 B3u                
  0.943   1.020   1.039   1.055   1.064   1.085   1.114   1.268
  6 B2u   4 B1u  10 Ag    5 B1g   4 B2g   9 B3u   1 B3g  10 B3u                
  1.285   1.286   1.382   1.616   1.626   1.718   1.866   1.942
  1 Au    5 B1u   6 B1g  11 Ag    7 B1g   7 B2u   5 B2g   6 B1u                
  1.945   2.017   2.042   2.081   2.177   2.323   2.412   2.460
 11 B3u   2 B3g  12 Ag    8 B2u   6 B2g  12 B3u   2 Au   13 Ag                 
  2.575   2.583   2.809   2.818   3.244   3.339
 13 B3u   8 B1g   9 B2u  14 Ag   14 B3u   9 B1g                                
 
 Beta MOs, Restricted
 -- Occupied --                  
-11.237 -11.235  -1.042  -0.782  -0.660  -0.567  -0.515  -0.377
  1 Ag    1 B3u   2 Ag    2 B3u   1 B2u   3 Ag    1 B1g   1 B1u                
 -- Virtual --                   
  0.058   0.066   0.075   0.080   0.085   0.090   0.122   0.162
  3 B3u   2 B2u   2 B1u   4 Ag    1 B2g   2 B1g   5 Ag    2 B2g                
  0.195   0.261   0.264   0.285   0.285   0.290   0.293   0.340
  4 B3u   6 Ag    3 B2u   5 B3u   3 B1g   7 Ag    3 B1u   4 B2u                
  0.363   0.372   0.547   0.600   0.809   0.860   0.889   0.930
  6 B3u   3 B2g   4 B1g   7 B3u   8 Ag    5 B2u   9 Ag    8 B3u                
  0.943   1.020   1.039   1.055   1.064   1.085   1.114   1.268
  6 B2u   4 B1u  10 Ag    5 B1g   4 B2g   9 B3u   1 B3g  10 B3u                
  1.285   1.286   1.382   1.616   1.626   1.718   1.866   1.942
  1 Au    5 B1u   6 B1g  11 Ag    7 B1g   7 B2u   5 B2g   6 B1u                
  1.945   2.017   2.042   2.081   2.177   2.323   2.412   2.460
 11 B3u   2 B3g  12 Ag    8 B2u   6 B2g  12 B3u   2 Au   13 Ag                 
  2.575   2.583   2.809   2.818   3.244   3.339
 13 B3u   8 B1g   9 B2u  14 Ag   14 B3u   9 B1g                                

--------------------------------------------------------------------------------
                                   HF Summary                                   
--------------------------------------------------------------------------------
  Energy:                                                  -78.0374413316 a.u.
  Dip. moment [a.u.]:                  [   0.000000,   -0.000001,    0.000000]
  Total dipole [Debye]:                                               0.000001
  <r^2> [a.u.]:                        [  47.721412,   22.124306,   11.987169]
  Total <r^2> [a.u.]:                                                81.832888
--------------------------------------------------------------------------------

--------------------------------------------------------------------------------
                                 MP(2) Summary                                  
--------------------------------------------------------------------------------
  MP energy contribution:                                   -0.2825313209 a.u.
  Total energy:                                            -78.3199726525 a.u.
  Dip. moment [a.u.]:                  [   0.000000,   -0.000000,    0.000000]
  Total dipole [Debye]:                                               0.000001
  <r^2> [a.u.]:                        [  47.831482,   22.157645,   11.840465]
  Total <r^2> [a.u.]:                                                81.829592

  Density matrix analysis:
  ------------------------
  NOs (alpha)
    Occupation of frontier NOs:
       0.0224   0.9685
    Number of electrons:  8.000000
  NOs (beta)
    Occupation of frontier NOs:
       0.0224   0.9685
    Number of electrons:  8.000000
  NOs (spin-traced)
    Occupation of frontier NOs:
       0.0447   1.9371
    Number of electrons: 16.000000
    Number of unpaired electrons: n_u =  0.40926, n_u,nl =  0.04602
    NO participation ratio (PR_NO): 13.961497
  
  
  Mulliken Population Analysis
  Atom  Charge (e)    Spin (e)  h+ (alpha)   h+ (beta)  e- (alpha)   e- (beta)
  ----------------------------------------------------------------------------
   1 C   -0.181230   -0.000000    0.043881    0.043881   -0.051252   -0.051252
   2 C   -0.181230   -0.000000    0.043881    0.043881   -0.051252   -0.051252
   3 H    0.090612    0.000000    0.008911    0.008911   -0.005226   -0.005226
   4 H    0.090623    0.000000    0.008911    0.008911   -0.005226   -0.005226
   5 H    0.090619   -0.000000    0.008911    0.008911   -0.005226   -0.005226
   6 H    0.090607    0.000000    0.008911    0.008911   -0.005226   -0.005226
  ----------------------------------------------------------------------------
  Sum:   -0.000000   -0.000000    0.123406    0.123406   -0.123406   -0.123406
  
  Multipole moment analysis of the density matrix
    Molecular charge:                      -0.000000
    Number of electrons:                   16.000000
      Center of electronic charge [Ang]: [ -0.000000,   0.000000,  -0.000000]
    Total nuclear charge:                  16.000000
      Center of nuclear charge [Ang]:    [  0.000000,   0.000000,   0.000000]
    Dipole moment [D]:                     0.000001
      Cartesian components [D]:          [  0.000000,  -0.000001,   0.000000]
    RMS size of the density [Ang]:         1.196730
      Cartesian components [Ang]:        [  0.914951,   0.622735,   0.455224]
  
  Exciton analysis of the difference density matrix
  Total:
    <r_h> [Ang]:                  [  0.000000,   0.000000,   0.000000]
    <r_e> [Ang]:                  [ -0.000000,  -0.000000,  -0.000000]
    |<r_e - r_h>| [Ang]:            0.000000
    Hole size [Ang]:                1.416187
      Cartesian components [Ang]: [  0.963687,   0.723143,   0.744281]
    Electron size [Ang]:            1.414866
      Cartesian components [Ang]: [  1.026439,   0.748840,   0.622501]
  
  Alpha spin:
    <r_h> [Ang]:                  [  0.000000,   0.000000,   0.000000]
    <r_e> [Ang]:                  [ -0.000000,  -0.000000,  -0.000000]
    |<r_e - r_h>| [Ang]:            0.000000
    Hole size [Ang]:                1.416187
      Cartesian components [Ang]: [  0.963687,   0.723143,   0.744281]
    Electron size [Ang]:            1.414866
      Cartesian components [Ang]: [  1.026439,   0.748840,   0.622501]
  
  Beta spin:
    <r_h> [Ang]:                  [  0.000000,   0.000000,   0.000000]
    <r_e> [Ang]:                  [ -0.000000,  -0.000000,  -0.000000]
    |<r_e - r_h>| [Ang]:            0.000000
    Hole size [Ang]:                1.416187
      Cartesian components [Ang]: [  0.963687,   0.723143,   0.744281]
    Electron size [Ang]:            1.414866
      Cartesian components [Ang]: [  1.026439,   0.748840,   0.622501]
--------------------------------------------------------------------------------

--------------------------------------------------------------------------------
                                 MP(3) Summary                                  
--------------------------------------------------------------------------------
  MP energy contribution:                                   -0.0245538971 a.u.
  Total energy:                                            -78.3445265496 a.u.
--------------------------------------------------------------------------------
Less particle guess vectors found than requested: 6 (found), 100 (requested).
Adjusting number of hole-2particle guess vectors to 94.
  Starting Davidson for electron-attached states of irrep B2g ... 
--------------------------------------------------------------------------------
   It NVec Conv  Avg. Norm  Max. Norm  Conv. states           Remark
--------------------------------------------------------------------------------
       100    0  4.275e-02  2.654e-01  0.0852 n n n n n n n n Guess.
    1  110    0  6.824e-03  3.528e-02  0.0756 n n n n n n n n 
    2  120    0  1.818e-03  1.035e-02  0.0753 n n n n n n n n 
    3  130    0  4.731e-04  3.040e-03  0.0752 n n n n n n n n 
    4  140    0  1.424e-04  9.223e-04  0.0752 n n n n n n n n 
    5  150    0  4.115e-05  2.482e-04  0.0752 n n n n n n n n 
    6  160    2  1.135e-05  7.055e-05  0.0752 y n n y n n n n 
    7  170    7  2.962e-06  1.890e-05  0.0752 y y y y y n y n 
    8  180   10  7.428e-07  4.400e-06  0.0752 y y y y y y y y Converged.
--------------------------------------------------------------------------------
  Davidson Summary: 
 ------------------------------------------------------------
  State  0: electron attachment energy =   0.0752 a.u.   (converged)
  State  1: electron attachment energy =   0.1290 a.u.   (converged)
  State  2: electron attachment energy =   0.2167 a.u.   (converged)
  State  3: electron attachment energy =   0.2998 a.u.   (converged)
  State  4: electron attachment energy =   0.3178 a.u.   (converged)
  State  5: electron attachment energy =   0.3282 a.u.   (converged)
  State  6: electron attachment energy =   0.3396 a.u.   (converged)
  State  7: electron attachment energy =   0.3483 a.u.   (converged)
  State  8: electron attachment energy =   0.3577 a.u.   (converged)
  State  9: electron attachment energy =   0.3807 a.u.   (converged)
 ------------------------------------------------------------


--------------------------------------------------------------------------------
                        Electron-Attached State Summary
--------------------------------------------------------------------------------

  Electron-attached state 1 (B2g)                                  [converged]
  ----------------------------------------------------------------------------
  Term symbol:  1 (2) B2g                                   R^2 =  1.08913e-07

  Total energy:                                            -78.2692830631 a.u.
  Electron attachment energy:                                      2.047479 eV

  Pole strength:                                                      0.965418

  Dip. moment [a.u.]:                  [   0.000000,   -0.000000,    0.000000]
  Total dipole [Debye]:                                               0.000000
  <r^2> [a.u.]:                        [  68.916555,   29.472761,   32.165170]
  Total <r^2> [a.u.]:                                               130.554485

  V1^2 = 0.9711, V2^2 = 0.0289

  Important amplitudes:
       occ i       vir a        vir b           v   
    -------------------------------------------------
                               1 (B2g) B      0.9612
                               2 (B2g) B      0.2123
    -------------------------------------------------

  Density matrix analysis:
  ------------------------
  NOs (alpha)
    Occupation of frontier NOs:
       0.0203   0.9632
    Number of electrons:  8.000000
  NOs (beta)
    Occupation of frontier NOs:
       0.0294   0.9689
    Number of electrons:  9.000000
  NOs (spin-traced)
    Occupation of frontier NOs:
       0.0443   0.9852
    Number of electrons: 17.000000
    Number of unpaired electrons: n_u =  1.43282, n_u,nl =  1.05155
    NO participation ratio (PR_NO):  2.085779
  
  
  Mulliken Population Analysis
  Atom  Charge (e)    Spin (e)  h+ (alpha)   h+ (beta)  e- (alpha)   e- (beta)
  ----------------------------------------------------------------------------
   1 C   -0.630353    0.529597    0.058943    0.048030   -0.018705   -0.537389
   2 C   -0.630353    0.529597    0.058943    0.048030   -0.018705   -0.537389
   3 H    0.065173   -0.014798   -0.000008    0.004310   -0.020111   -0.009630
   4 H    0.065184   -0.014798   -0.000008    0.004310   -0.020111   -0.009630
   5 H    0.065180   -0.014798   -0.000008    0.004310   -0.020111   -0.009630
   6 H    0.065168   -0.014798   -0.000008    0.004310   -0.020111   -0.009630
  ----------------------------------------------------------------------------
  Sum:   -1.000000    1.000000    0.117853    0.113298   -0.117853   -1.113298
  
  Multipole moment analysis of the density matrix
    Molecular charge:                      -1.000000
    Number of electrons:                   17.000000
      Center of electronic charge [Ang]: [ -0.000000,   0.000000,  -0.000000]
    Total nuclear charge:                  16.000000
      Center of nuclear charge [Ang]:    [  0.000000,   0.000000,   0.000000]
    Dipole moment [D]:                     0.000000
      Cartesian components [D]:          [  0.000000,  -0.000000,   0.000000]
    RMS size of the density [Ang]:         1.466468
      Cartesian components [Ang]:        [  1.065463,   0.696766,   0.727896]
  
  Exciton analysis of the difference density matrix
  Total:
    <r_h> [Ang]:                  [  0.000000,  -0.000001,   0.000000]
    <r_e> [Ang]:                  [  0.000000,  -0.000000,  -0.000000]
    |<r_e - r_h>| [Ang]:            0.000000
    Hole size [Ang]:                1.968269
      Cartesian components [Ang]: [  1.232229,   0.983551,   1.178271]
    Electron size [Ang]:            3.436564
      Cartesian components [Ang]: [  2.254093,   1.358480,   2.209879]
  
  Alpha spin:
    <r_h> [Ang]:                  [ -0.000000,  -0.000000,   0.000000]
    <r_e> [Ang]:                  [ -0.000000,  -0.000001,   0.000000]
    |<r_e - r_h>| [Ang]:            0.000001
    Hole size [Ang]:                1.872915
      Cartesian components [Ang]: [  1.182103,   0.937799,   1.109494]
    Electron size [Ang]:            2.564256
      Cartesian components [Ang]: [  1.511668,   1.392427,   1.533433]
  
  Beta spin:
    <r_h> [Ang]:                  [  0.000000,  -0.000001,   0.000000]
    <r_e> [Ang]:                  [  0.000000,  -0.000000,  -0.000000]
    |<r_e - r_h>| [Ang]:            0.000001
    Hole size [Ang]:                2.062785
      Cartesian components [Ang]: [  1.282293,   1.028987,   1.245790]
    Electron size [Ang]:            3.516262
      Cartesian components [Ang]: [  2.318814,   1.354837,   2.269718]
  ----------------------------------------------------------------------------


  Electron-attached state 2 (B2g)                                  [converged]
  ----------------------------------------------------------------------------
  Term symbol:  2 (2) B2g                                   R^2 =  2.95869e-07

  Total energy:                                            -78.2155747417 a.u.
  Electron attachment energy:                                      3.508957 eV

  Pole strength:                                                      0.911912

  Dip. moment [a.u.]:                  [   0.000000,    0.000000,   -0.000000]
  Total dipole [Debye]:                                               0.000000
  <r^2> [a.u.]:                        [  66.866669,   29.379337,   30.598516]
  Total <r^2> [a.u.]:                                               126.844522

  V1^2 = 0.9218, V2^2 = 0.0782

  Important amplitudes:
       occ i       vir a        vir b           v   
    -------------------------------------------------
                               2 (B2g) B     -0.9199
                               1 (B2g) B      0.2516
    -------------------------------------------------

  Density matrix analysis:
  ------------------------
  NOs (alpha)
    Occupation of frontier NOs:
       0.0278   0.9421
    Number of electrons:  8.000000
  NOs (beta)
    Occupation of frontier NOs:
       0.0385   0.9532
    Number of electrons:  9.000000
  NOs (spin-traced)
    Occupation of frontier NOs:
       0.0516   0.9680
    Number of electrons: 17.000000
    Number of unpaired electrons: n_u =  1.48716, n_u,nl =  1.07271
    NO participation ratio (PR_NO):  2.311581
  
  
  Mulliken Population Analysis
  Atom  Charge (e)    Spin (e)  h+ (alpha)   h+ (beta)  e- (alpha)   e- (beta)
  ----------------------------------------------------------------------------
   1 C   -0.576927    0.533025    0.127426    0.061765   -0.058762   -0.526126
   2 C   -0.576927    0.533025    0.127426    0.061765   -0.058762   -0.526126
   3 H    0.038460   -0.016513    0.001480    0.005606   -0.035812   -0.023426
   4 H    0.038471   -0.016513    0.001480    0.005606   -0.035812   -0.023426
   5 H    0.038467   -0.016513    0.001480    0.005606   -0.035812   -0.023426
   6 H    0.038455   -0.016513    0.001480    0.005606   -0.035812   -0.023426
  ----------------------------------------------------------------------------
  Sum:   -1.000000    1.000000    0.260772    0.145956   -0.260772   -1.145956
  
  Multipole moment analysis of the density matrix
    Molecular charge:                      -1.000000
    Number of electrons:                   17.000000
      Center of electronic charge [Ang]: [ -0.000000,   0.000000,   0.000000]
    Total nuclear charge:                  16.000000
      Center of nuclear charge [Ang]:    [  0.000000,   0.000000,   0.000000]
    Dipole moment [D]:                     0.000000
      Cartesian components [D]:          [  0.000000,   0.000000,  -0.000000]
    RMS size of the density [Ang]:         1.445481
      Cartesian components [Ang]:        [  1.049498,   0.695661,   0.709949]
  
  Exciton analysis of the difference density matrix
  Total:
    <r_h> [Ang]:                  [ -0.000000,  -0.000001,   0.000000]
    <r_e> [Ang]:                  [ -0.000000,  -0.000000,  -0.000000]
    |<r_e - r_h>| [Ang]:            0.000000
    Hole size [Ang]:                1.805681
      Cartesian components [Ang]: [  1.148764,   0.901325,   1.062279]
    Electron size [Ang]:            3.146990
      Cartesian components [Ang]: [  2.042246,   1.293237,   2.015022]
  
  Alpha spin:
    <r_h> [Ang]:                  [ -0.000000,  -0.000000,   0.000000]
    <r_e> [Ang]:                  [ -0.000000,  -0.000001,   0.000000]
    |<r_e - r_h>| [Ang]:            0.000001
    Hole size [Ang]:                1.815151
      Cartesian components [Ang]: [  1.132384,   0.884158,   1.109390]
    Electron size [Ang]:            2.667044
      Cartesian components [Ang]: [  1.538368,   1.383114,   1.683313]
  
  Beta spin:
    <r_h> [Ang]:                  [ -0.000000,  -0.000001,   0.000000]
    <r_e> [Ang]:                  [ -0.000000,  -0.000000,  -0.000000]
    |<r_e - r_h>| [Ang]:            0.000001
    Hole size [Ang]:                1.788636
      Cartesian components [Ang]: [  1.177463,   0.931210,   0.972444]
    Electron size [Ang]:            3.246310
      Cartesian components [Ang]: [  2.140404,   1.271898,   2.083141]
  ----------------------------------------------------------------------------


  Electron-attached state 3 (B2g)                                  [converged]
  ----------------------------------------------------------------------------
  Term symbol:  3 (2) B2g                                   R^2 =  3.62633e-07

  Total energy:                                            -78.1277868442 a.u.
  Electron attachment energy:                                      5.897787 eV

  Pole strength:                                                      0.049895

  Dip. moment [a.u.]:                  [   0.000000,   -0.000000,    0.000000]
  Total dipole [Debye]:                                               0.000001
  <r^2> [a.u.]:                        [  62.636763,   34.052108,   46.869551]
  Total <r^2> [a.u.]:                                               143.558423

  V1^2 = 0.0503, V2^2 = 0.9497

  Important amplitudes:
       occ i       vir a        vir b           v   
    -------------------------------------------------
     1 (B1u) A    2 (B1u) A    2 (B2g) B     -0.4496
     1 (B1u) A    2 (B1u) A    1 (B2g) B     -0.2745
    -------------------------------------------------

  Density matrix analysis:
  ------------------------
  NOs (alpha)
    Occupation of frontier NOs:
       0.1847   0.6647
    Number of electrons:  8.000000
  NOs (beta)
    Occupation of frontier NOs:
       0.3057   0.8241
    Number of electrons:  9.000000
  NOs (spin-traced)
    Occupation of frontier NOs:
       0.7677   1.0084
    Number of electrons: 17.000000
    Number of unpaired electrons: n_u =  2.94006, n_u,nl =  2.86465
    NO participation ratio (PR_NO):  3.821008
  
  
  Mulliken Population Analysis
  Atom  Charge (e)    Spin (e)  h+ (alpha)   h+ (beta)  e- (alpha)   e- (beta)
  ----------------------------------------------------------------------------
   1 C   -0.655887    0.493233    0.409234    0.087296   -0.399946   -0.571241
   2 C   -0.655887    0.493233    0.409234    0.087296   -0.399946   -0.571241
   3 H    0.077940    0.003383    0.001740    0.000861   -0.006384   -0.008888
   4 H    0.077952    0.003383    0.001740    0.000861   -0.006384   -0.008888
   5 H    0.077947    0.003383    0.001740    0.000861   -0.006384   -0.008888
   6 H    0.077936    0.003383    0.001740    0.000861   -0.006384   -0.008888
  ----------------------------------------------------------------------------
  Sum:   -1.000000    1.000000    0.825428    0.178034   -0.825428   -1.178034
  
  Multipole moment analysis of the density matrix
    Molecular charge:                      -1.000000
    Number of electrons:                   17.000000
      Center of electronic charge [Ang]: [ -0.000000,   0.000000,  -0.000000]
    Total nuclear charge:                  16.000000
      Center of nuclear charge [Ang]:    [  0.000000,   0.000000,   0.000000]
    Dipole moment [D]:                     0.000001
      Cartesian components [D]:          [  0.000000,  -0.000001,   0.000000]
    RMS size of the density [Ang]:         1.537769
      Cartesian components [Ang]:        [  1.015761,   0.748943,   0.878662]
  
  Exciton analysis of the difference density matrix
  Total:
    <r_h> [Ang]:                  [ -0.000000,   0.000000,  -0.000000]
    <r_e> [Ang]:                  [ -0.000000,  -0.000000,  -0.000000]
    |<r_e - r_h>| [Ang]:            0.000000
    Hole size [Ang]:                1.385214
      Cartesian components [Ang]: [  0.808658,   0.584634,   0.960778]
    Electron size [Ang]:            3.096619
      Cartesian components [Ang]: [  1.548191,   1.354146,   2.314830]
  
  Alpha spin:
    <r_h> [Ang]:                  [ -0.000000,   0.000000,  -0.000000]
    <r_e> [Ang]:                  [ -0.000000,  -0.000000,  -0.000000]
    |<r_e - r_h>| [Ang]:            0.000000
    Hole size [Ang]:                1.371934
      Cartesian components [Ang]: [  0.798472,   0.574243,   0.956499]
    Electron size [Ang]:            3.720774
      Cartesian components [Ang]: [  1.743932,   1.654327,   2.840081]
  
  Beta spin:
    <r_h> [Ang]:                  [ -0.000000,  -0.000000,  -0.000000]
    <r_e> [Ang]:                  [ -0.000000,  -0.000000,  -0.000000]
    |<r_e - r_h>| [Ang]:            0.000000
    Hole size [Ang]:                1.445190
      Cartesian components [Ang]: [  0.854299,   0.630576,   0.980369]
    Electron size [Ang]:            2.570518
      Cartesian components [Ang]: [  1.394767,   1.095870,   1.860445]
  ----------------------------------------------------------------------------


  Electron-attached state 4 (B2g)                                  [converged]
  ----------------------------------------------------------------------------
  Term symbol:  4 (2) B2g                                   R^2 =  2.39033e-07

  Total energy:                                            -78.0446803647 a.u.
  Electron attachment energy:                                      8.159230 eV

  Pole strength:                                                      0.003245

  Dip. moment [a.u.]:                  [  -0.000000,   -0.000000,   -0.000000]
  Total dipole [Debye]:                                               0.000000
  <r^2> [a.u.]:                        [ 108.415739,   40.098869,   28.724808]
  Total <r^2> [a.u.]:                                               177.239415

  V1^2 = 0.0033, V2^2 = 0.9967

  Important amplitudes:
       occ i       vir a        vir b           v   
    -------------------------------------------------
     1 (B1u) B    4 (Ag ) B    3 (B3u) B     -0.4408
     1 (B1u) B    5 (Ag ) B    3 (B3u) B      0.2888
    -------------------------------------------------

  Density matrix analysis:
  ------------------------
  NOs (alpha)
    Occupation of frontier NOs:
       0.2851   0.5853
    Number of electrons:  8.000000
  NOs (beta)
    Occupation of frontier NOs:
       0.3578   0.6723
    Number of electrons:  9.000000
  NOs (spin-traced)
    Occupation of frontier NOs:
       0.9276   0.9429
    Number of electrons: 17.000000
    Number of unpaired electrons: n_u =  3.28660, n_u,nl =  3.02329
    NO participation ratio (PR_NO):  4.039228
  
  
  Mulliken Population Analysis
  Atom  Charge (e)    Spin (e)  h+ (alpha)   h+ (beta)  e- (alpha)   e- (beta)
  ----------------------------------------------------------------------------
   1 C   -0.713424    0.548968    0.190006    0.302669   -0.181618   -0.843250
   2 C   -0.713424    0.548968    0.190006    0.302669   -0.181618   -0.843250
   3 H    0.106709   -0.024485    0.001119    0.001771   -0.005313    0.018520
   4 H    0.106719   -0.024483    0.001119    0.001771   -0.005313    0.018518
   5 H    0.106715   -0.024483    0.001119    0.001771   -0.005312    0.018519
   6 H    0.106705   -0.024485    0.001119    0.001771   -0.005312    0.018521
  ----------------------------------------------------------------------------
  Sum:   -1.000000    1.000000    0.384487    0.612422   -0.384487   -1.612422
  
  Multipole moment analysis of the density matrix
    Molecular charge:                      -1.000000
    Number of electrons:                   17.000000
      Center of electronic charge [Ang]: [  0.000000,   0.000000,   0.000000]
    Total nuclear charge:                  16.000000
      Center of nuclear charge [Ang]:    [  0.000000,   0.000000,   0.000000]
    Dipole moment [D]:                     0.000000
      Cartesian components [D]:          [ -0.000000,  -0.000000,  -0.000000]
    RMS size of the density [Ang]:         1.708665
      Cartesian components [Ang]:        [  1.336358,   0.812723,   0.687868]
  
  Exciton analysis of the difference density matrix
  Total:
    <r_h> [Ang]:                  [ -0.000000,   0.000000,   0.000000]
    <r_e> [Ang]:                  [  0.000000,  -0.000000,   0.000000]
    |<r_e - r_h>| [Ang]:            0.000000
    Hole size [Ang]:                1.252571
      Cartesian components [Ang]: [  0.748574,   0.510856,   0.864636]
    Electron size [Ang]:            3.763332
      Cartesian components [Ang]: [  2.962353,   1.626715,   1.655575]
  
  Alpha spin:
    <r_h> [Ang]:                  [ -0.000000,   0.000000,   0.000000]
    <r_e> [Ang]:                  [  0.000000,   0.000000,   0.000000]
    |<r_e - r_h>| [Ang]:            0.000000
    Hole size [Ang]:                1.251945
      Cartesian components [Ang]: [  0.748591,   0.510605,   0.863863]
    Electron size [Ang]:            4.193575
      Cartesian components [Ang]: [  3.415100,   1.736059,   1.705657]
  
  Beta spin:
    <r_h> [Ang]:                  [ -0.000000,   0.000000,   0.000000]
    <r_e> [Ang]:                  [  0.000000,  -0.000000,   0.000000]
    |<r_e - r_h>| [Ang]:            0.000000
    Hole size [Ang]:                1.252963
      Cartesian components [Ang]: [  0.748563,   0.511014,   0.865121]
    Electron size [Ang]:            3.653265
      Cartesian components [Ang]: [  2.843772,   1.599538,   1.643407]
  ----------------------------------------------------------------------------


  Electron-attached state 5 (B2g)                                  [converged]
  ----------------------------------------------------------------------------
  Term symbol:  5 (2) B2g                                   R^2 =  5.40409e-07

  Total energy:                                            -78.0267008473 a.u.
  Electron attachment energy:                                      8.648477 eV

  Pole strength:                                                      0.000151

  Dip. moment [a.u.]:                  [  -0.000000,   -0.000000,   -0.000000]
  Total dipole [Debye]:                                               0.000000
  <r^2> [a.u.]:                        [  98.006035,   43.297772,   31.776070]
  Total <r^2> [a.u.]:                                               173.079877

  V1^2 = 0.0002, V2^2 = 0.9998

  Important amplitudes:
       occ i       vir a        vir b           v   
    -------------------------------------------------
     1 (B1u) A    3 (B3u) A    5 (Ag ) B      0.4097
     1 (B1u) A    5 (Ag ) A    3 (B3u) B      0.4085
    -------------------------------------------------

  Density matrix analysis:
  ------------------------
  NOs (alpha)
    Occupation of frontier NOs:
       0.3650   0.4505
    Number of electrons:  8.000000
  NOs (beta)
    Occupation of frontier NOs:
       0.3662   0.5272
    Number of electrons:  9.000000
  NOs (spin-traced)
    Occupation of frontier NOs:
       0.7860   0.8921
    Number of electrons: 17.000000
    Number of unpaired electrons: n_u =  3.28738, n_u,nl =  3.00269
    NO participation ratio (PR_NO):  4.636666
  
  
  Mulliken Population Analysis
  Atom  Charge (e)    Spin (e)  h+ (alpha)   h+ (beta)  e- (alpha)   e- (beta)
  ----------------------------------------------------------------------------
   1 C   -0.700265    0.478692    0.450244    0.043716   -0.470416   -0.542579
   2 C   -0.700265    0.478692    0.450244    0.043716   -0.470416   -0.542579
   3 H    0.100130    0.010654    0.002704    0.000280    0.007382   -0.000848
   4 H    0.100139    0.010654    0.002704    0.000280    0.007381   -0.000849
   5 H    0.100135    0.010654    0.002704    0.000280    0.007381   -0.000849
   6 H    0.100126    0.010654    0.002704    0.000280    0.007382   -0.000848
  ----------------------------------------------------------------------------
  Sum:   -1.000000    1.000000    0.911305    0.088551   -0.911305   -1.088551
  
  Multipole moment analysis of the density matrix
    Molecular charge:                      -1.000000
    Number of electrons:                   17.000000
      Center of electronic charge [Ang]: [  0.000000,   0.000000,   0.000000]
    Total nuclear charge:                  16.000000
      Center of nuclear charge [Ang]:    [  0.000000,   0.000000,   0.000000]
    Dipole moment [D]:                     0.000000
      Cartesian components [D]:          [ -0.000000,  -0.000000,  -0.000000]
    RMS size of the density [Ang]:         1.688496
      Cartesian components [Ang]:        [  1.270583,   0.844519,   0.723480]
  
  Exciton analysis of the difference density matrix
  Total:
    <r_h> [Ang]:                  [ -0.000000,   0.000000,   0.000000]
    <r_e> [Ang]:                  [  0.000000,  -0.000000,   0.000000]
    |<r_e - r_h>| [Ang]:            0.000000
    Hole size [Ang]:                1.251912
      Cartesian components [Ang]: [  0.748172,   0.510593,   0.864186]
    Electron size [Ang]:            3.682505
      Cartesian components [Ang]: [  2.702872,   1.757975,   1.779003]
  
  Alpha spin:
    <r_h> [Ang]:                  [ -0.000000,   0.000000,   0.000000]
    <r_e> [Ang]:                  [  0.000000,  -0.000000,   0.000000]
    |<r_e - r_h>| [Ang]:            0.000000
    Hole size [Ang]:                1.252159
      Cartesian components [Ang]: [  0.748191,   0.510674,   0.864479]
    Electron size [Ang]:            3.563499
      Cartesian components [Ang]: [  2.554638,   1.746395,   1.767045]
  
  Beta spin:
    <r_h> [Ang]:                  [ -0.000000,   0.000000,   0.000000]
    <r_e> [Ang]:                  [  0.000000,  -0.000000,   0.000000]
    |<r_e - r_h>| [Ang]:            0.000000
    Hole size [Ang]:                1.249367
      Cartesian components [Ang]: [  0.747973,   0.509760,   0.861162]
    Electron size [Ang]:            3.779253
      Cartesian components [Ang]: [  2.820986,   1.767611,   1.788952]
  ----------------------------------------------------------------------------


  Electron-attached state 6 (B2g)                                  [converged]
  ----------------------------------------------------------------------------
  Term symbol:  6 (2) B2g                                   R^2 =  4.40008e-06

  Total energy:                                            -78.0163346614 a.u.
  Electron attachment energy:                                      8.930555 eV

  Pole strength:                                                      0.613058

  Dip. moment [a.u.]:                  [   0.000000,    0.000000,   -0.000000]
  Total dipole [Debye]:                                               0.000000
  <r^2> [a.u.]:                        [  68.969441,   31.174268,   34.368617]
  Total <r^2> [a.u.]:                                               134.512325

  V1^2 = 0.6153, V2^2 = 0.3847

  Important amplitudes:
       occ i       vir a        vir b           v   
    -------------------------------------------------
                               3 (B2g) B     -0.7727
     1 (B1u) B    1 (B2g) B    2 (B1u) B     -0.2422
    -------------------------------------------------

  Density matrix analysis:
  ------------------------
  NOs (alpha)
    Occupation of frontier NOs:
       0.1225   0.8032
    Number of electrons:  8.000000
  NOs (beta)
    Occupation of frontier NOs:
       0.2466   0.6237
    Number of electrons:  9.000000
  NOs (spin-traced)
    Occupation of frontier NOs:
       0.3115   0.6280
    Number of electrons: 17.000000
    Number of unpaired electrons: n_u =  2.16398, n_u,nl =  1.70366
    NO participation ratio (PR_NO):  6.341673
  
  
  Mulliken Population Analysis
  Atom  Charge (e)    Spin (e)  h+ (alpha)   h+ (beta)  e- (alpha)   e- (beta)
  ----------------------------------------------------------------------------
   1 C   -0.629511    0.506349    0.121044    0.109149   -0.092010   -0.586464
   2 C   -0.629511    0.506349    0.121044    0.109149   -0.092010   -0.586464
   3 H    0.064752   -0.003174    0.000517    0.000188   -0.015034   -0.011531
   4 H    0.064764   -0.003175    0.000517    0.000188   -0.015034   -0.011531
   5 H    0.064759   -0.003175    0.000517    0.000188   -0.015034   -0.011531
   6 H    0.064747   -0.003175    0.000517    0.000188   -0.015034   -0.011531
  ----------------------------------------------------------------------------
  Sum:   -1.000000    1.000000    0.244154    0.219051   -0.244154   -1.219051
  
  Multipole moment analysis of the density matrix
    Molecular charge:                      -1.000000
    Number of electrons:                   17.000000
      Center of electronic charge [Ang]: [ -0.000000,   0.000000,   0.000000]
    Total nuclear charge:                  16.000000
      Center of nuclear charge [Ang]:    [  0.000000,   0.000000,   0.000000]
    Dipole moment [D]:                     0.000000
      Cartesian components [D]:          [  0.000000,   0.000000,  -0.000000]
    RMS size of the density [Ang]:         1.488530
      Cartesian components [Ang]:        [  1.065872,   0.716597,   0.752415]
  
  Exciton analysis of the difference density matrix
  Total:
    <r_h> [Ang]:                  [  0.000000,  -0.000000,   0.000000]
    <r_e> [Ang]:                  [ -0.000000,  -0.000000,   0.000000]
    |<r_e - r_h>| [Ang]:            0.000000
    Hole size [Ang]:                1.262806
      Cartesian components [Ang]: [  0.852495,   0.581079,   0.728202]
    Electron size [Ang]:            3.253806
      Cartesian components [Ang]: [  2.067717,   1.353696,   2.116438]
  
  Alpha spin:
    <r_h> [Ang]:                  [  0.000000,  -0.000000,   0.000000]
    <r_e> [Ang]:                  [ -0.000000,  -0.000001,  -0.000000]
    |<r_e - r_h>| [Ang]:            0.000001
    Hole size [Ang]:                1.258533
      Cartesian components [Ang]: [  0.875360,   0.578645,   0.694854]
    Electron size [Ang]:            2.929973
      Cartesian components [Ang]: [  1.935034,   1.366659,   1.724132]
  
  Beta spin:
    <r_h> [Ang]:                  [  0.000000,  -0.000000,   0.000000]
    <r_e> [Ang]:                  [ -0.000000,  -0.000000,   0.000000]
    |<r_e - r_h>| [Ang]:            0.000000
    Hole size [Ang]:                1.267552
      Cartesian components [Ang]: [  0.826265,   0.583780,   0.763659]
    Electron size [Ang]:            3.314864
      Cartesian components [Ang]: [  2.093280,   1.351085,   2.186566]
  ----------------------------------------------------------------------------


  Electron-attached state 7 (B2g)                                  [converged]
  ----------------------------------------------------------------------------
  Term symbol:  7 (2) B2g                                   R^2 =  1.50285e-06

  Total energy:                                            -78.0049485946 a.u.
  Electron attachment energy:                                      9.240386 eV

  Pole strength:                                                      0.034698

  Dip. moment [a.u.]:                  [  -0.000000,    0.000003,   -0.000000]
  Total dipole [Debye]:                                               0.000008
  <r^2> [a.u.]:                        [ 102.089489,   57.648736,   28.876874]
  Total <r^2> [a.u.]:                                               188.615100

  V1^2 = 0.0348, V2^2 = 0.9652

  Important amplitudes:
       occ i       vir a        vir b           v   
    -------------------------------------------------
     1 (B1u) B    2 (B1g) B    2 (B2u) B     -0.3588
     1 (B1u) B    5 (Ag ) B    3 (B3u) B     -0.3085
    -------------------------------------------------

  Density matrix analysis:
  ------------------------
  NOs (alpha)
    Occupation of frontier NOs:
       0.1341   0.6305
    Number of electrons:  8.000000
  NOs (beta)
    Occupation of frontier NOs:
       0.3721   0.3789
    Number of electrons:  9.000000
  NOs (spin-traced)
    Occupation of frontier NOs:
       0.5068   0.5163
    Number of electrons: 17.000000
    Number of unpaired electrons: n_u =  3.28949, n_u,nl =  3.12047
    NO participation ratio (PR_NO):  5.812772
  
  
  Mulliken Population Analysis
  Atom  Charge (e)    Spin (e)  h+ (alpha)   h+ (beta)  e- (alpha)   e- (beta)
  ----------------------------------------------------------------------------
   1 C   -0.559393    0.415786    0.169402    0.309366   -0.150590   -0.706340
   2 C   -0.559393    0.415786    0.169402    0.309366   -0.150590   -0.706340
   3 H    0.029693    0.042107    0.000947    0.001730   -0.010352   -0.053242
   4 H    0.029704    0.042107    0.000947    0.001730   -0.010353   -0.053243
   5 H    0.029700    0.042107    0.000947    0.001730   -0.010353   -0.053243
   6 H    0.029689    0.042107    0.000947    0.001730   -0.010352   -0.053242
  ----------------------------------------------------------------------------
  Sum:   -1.000000    1.000000    0.342590    0.625649   -0.342590   -1.625649
  
  Multipole moment analysis of the density matrix
    Molecular charge:                      -1.000000
    Number of electrons:                   17.000000
      Center of electronic charge [Ang]: [  0.000000,  -0.000000,   0.000000]
    Total nuclear charge:                  16.000000
      Center of nuclear charge [Ang]:    [  0.000000,   0.000000,   0.000000]
    Dipole moment [D]:                     0.000008
      Cartesian components [D]:          [ -0.000000,   0.000008,  -0.000000]
    RMS size of the density [Ang]:         1.762645
      Cartesian components [Ang]:        [  1.296783,   0.974477,   0.689687]
  
  Exciton analysis of the difference density matrix
  Total:
    <r_h> [Ang]:                  [ -0.000000,   0.000000,   0.000000]
    <r_e> [Ang]:                  [  0.000000,  -0.000001,   0.000000]
    |<r_e - r_h>| [Ang]:            0.000001
    Hole size [Ang]:                1.255797
      Cartesian components [Ang]: [  0.751393,   0.514467,   0.864729]
    Electron size [Ang]:            3.996067
      Cartesian components [Ang]: [  2.827936,   2.275884,   1.670831]
  
  Alpha spin:
    <r_h> [Ang]:                  [ -0.000000,   0.000000,   0.000000]
    <r_e> [Ang]:                  [  0.000000,  -0.000001,   0.000000]
    |<r_e - r_h>| [Ang]:            0.000001
    Hole size [Ang]:                1.257040
      Cartesian components [Ang]: [  0.754119,   0.516384,   0.863020]
    Electron size [Ang]:            3.854153
      Cartesian components [Ang]: [  2.620437,   2.272699,   1.680073]
  
  Beta spin:
    <r_h> [Ang]:                  [ -0.000000,   0.000000,   0.000000]
    <r_e> [Ang]:                  [  0.000000,  -0.000001,   0.000000]
    |<r_e - r_h>| [Ang]:            0.000001
    Hole size [Ang]:                1.255115
      Cartesian components [Ang]: [  0.749897,   0.513415,   0.865664]
    Electron size [Ang]:            4.025335
      Cartesian components [Ang]: [  2.869751,   2.276555,   1.668877]
  ----------------------------------------------------------------------------


  Electron-attached state 8 (B2g)                                  [converged]
  ----------------------------------------------------------------------------
  Term symbol:  8 (2) B2g                                   R^2 =  3.62253e-06

  Total energy:                                            -77.9962589009 a.u.
  Electron attachment energy:                                      9.476845 eV

  Pole strength:                                                      0.222920

  Dip. moment [a.u.]:                  [   0.000000,    0.000001,   -0.000000]
  Total dipole [Debye]:                                               0.000002
  <r^2> [a.u.]:                        [  75.893380,   40.990284,   46.624773]
  Total <r^2> [a.u.]:                                               163.508437

  V1^2 = 0.2236, V2^2 = 0.7764

  Important amplitudes:
       occ i       vir a        vir b           v   
    -------------------------------------------------
                               3 (B2g) B      0.4650
     1 (B1u) B    1 (B2g) B    2 (B1u) B     -0.3784
    -------------------------------------------------

  Density matrix analysis:
  ------------------------
  NOs (alpha)
    Occupation of frontier NOs:
       0.2597   0.6105
    Number of electrons:  8.000000
  NOs (beta)
    Occupation of frontier NOs:
       0.3269   0.5317
    Number of electrons:  9.000000
  NOs (spin-traced)
    Occupation of frontier NOs:
       0.5754   0.5761
    Number of electrons: 17.000000
    Number of unpaired electrons: n_u =  2.94818, n_u,nl =  2.60787
    NO participation ratio (PR_NO):  6.134810
  
  
  Mulliken Population Analysis
  Atom  Charge (e)    Spin (e)  h+ (alpha)   h+ (beta)  e- (alpha)   e- (beta)
  ----------------------------------------------------------------------------
   1 C   -0.631907    0.488527    0.193569    0.205131   -0.174644   -0.674733
   2 C   -0.631907    0.488527    0.193569    0.205131   -0.174644   -0.674733
   3 H    0.065950    0.005736    0.000615    0.000994   -0.010077   -0.016192
   4 H    0.065962    0.005736    0.000615    0.000993   -0.010077   -0.016192
   5 H    0.065957    0.005736    0.000615    0.000993   -0.010077   -0.016192
   6 H    0.065946    0.005736    0.000615    0.000994   -0.010077   -0.016192
  ----------------------------------------------------------------------------
  Sum:   -1.000000    1.000000    0.389596    0.414236   -0.389596   -1.414236
  
  Multipole moment analysis of the density matrix
    Molecular charge:                      -1.000000
    Number of electrons:                   17.000000
      Center of electronic charge [Ang]: [ -0.000000,   0.000000,   0.000000]
    Total nuclear charge:                  16.000000
      Center of nuclear charge [Ang]:    [  0.000000,   0.000000,   0.000000]
    Dipole moment [D]:                     0.000002
      Cartesian components [D]:          [  0.000000,   0.000002,  -0.000000]
    RMS size of the density [Ang]:         1.641144
      Cartesian components [Ang]:        [  1.118095,   0.821707,   0.876365]
  
  Exciton analysis of the difference density matrix
  Total:
    <r_h> [Ang]:                  [ -0.000000,   0.000000,   0.000000]
    <r_e> [Ang]:                  [ -0.000000,  -0.000000,   0.000000]
    |<r_e - r_h>| [Ang]:            0.000000
    Hole size [Ang]:                1.287791
      Cartesian components [Ang]: [  0.782300,   0.542991,   0.866934]
    Electron size [Ang]:            3.663185
      Cartesian components [Ang]: [  2.151528,   1.747851,   2.394758]
  
  Alpha spin:
    <r_h> [Ang]:                  [ -0.000000,   0.000000,   0.000000]
    <r_e> [Ang]:                  [  0.000000,  -0.000001,  -0.000000]
    |<r_e - r_h>| [Ang]:            0.000001
    Hole size [Ang]:                1.269216
      Cartesian components [Ang]: [  0.782088,   0.530773,   0.847071]
    Electron size [Ang]:            3.371175
      Cartesian components [Ang]: [  2.224138,   1.589010,   1.973089]
  
  Beta spin:
    <r_h> [Ang]:                  [ -0.000000,   0.000000,   0.000000]
    <r_e> [Ang]:                  [ -0.000000,  -0.000000,   0.000000]
    |<r_e - r_h>| [Ang]:            0.000000
    Hole size [Ang]:                1.305020
      Cartesian components [Ang]: [  0.782499,   0.554237,   0.885209]
    Electron size [Ang]:            3.739624
      Cartesian components [Ang]: [  2.131091,   1.789133,   2.498449]
  ----------------------------------------------------------------------------


  Electron-attached state 9 (B2g)                                  [converged]
  ----------------------------------------------------------------------------
  Term symbol:  9 (2) B2g                                   R^2 =  8.33126e-07

  Total energy:                                            -77.9867814654 a.u.
  Electron attachment energy:                                      9.734739 eV

  Pole strength:                                                      0.009003

  Dip. moment [a.u.]:                  [  -0.000000,    0.000003,   -0.000000]
  Total dipole [Debye]:                                               0.000007
  <r^2> [a.u.]:                        [  95.351390,   58.133495,   32.124750]
  Total <r^2> [a.u.]:                                               185.609636

  V1^2 = 0.0090, V2^2 = 0.9910

  Important amplitudes:
       occ i       vir a        vir b           v   
    -------------------------------------------------
     1 (B1u) B    2 (B1g) B    2 (B2u) B     -0.3659
     1 (B1u) B    5 (Ag ) B    3 (B3u) B      0.3229
    -------------------------------------------------

  Density matrix analysis:
  ------------------------
  NOs (alpha)
    Occupation of frontier NOs:
       0.0893   0.6103
    Number of electrons:  8.000000
  NOs (beta)
    Occupation of frontier NOs:
       0.3479   0.3480
    Number of electrons:  9.000000
  NOs (spin-traced)
    Occupation of frontier NOs:
       0.4372   0.4383
    Number of electrons: 17.000000
    Number of unpaired electrons: n_u =  3.29735, n_u,nl =  2.96451
    NO participation ratio (PR_NO):  6.448359
  
  
  Mulliken Population Analysis
  Atom  Charge (e)    Spin (e)  h+ (alpha)   h+ (beta)  e- (alpha)   e- (beta)
  ----------------------------------------------------------------------------
   1 C   -0.562665    0.414730    0.178795    0.310474   -0.162147   -0.708556
   2 C   -0.562665    0.414730    0.178795    0.310474   -0.162147   -0.708556
   3 H    0.031329    0.042635    0.001168    0.001985   -0.009492   -0.052944
   4 H    0.031340    0.042635    0.001168    0.001985   -0.009492   -0.052944
   5 H    0.031336    0.042635    0.001168    0.001985   -0.009492   -0.052944
   6 H    0.031325    0.042634    0.001168    0.001985   -0.009492   -0.052943
  ----------------------------------------------------------------------------
  Sum:   -1.000000    1.000000    0.362262    0.628888   -0.362262   -1.628888
  
  Multipole moment analysis of the density matrix
    Molecular charge:                      -1.000000
    Number of electrons:                   17.000000
      Center of electronic charge [Ang]: [  0.000000,  -0.000000,   0.000000]
    Total nuclear charge:                  16.000000
      Center of nuclear charge [Ang]:    [  0.000000,   0.000000,   0.000000]
    Dipole moment [D]:                     0.000007
      Cartesian components [D]:          [ -0.000000,   0.000007,  -0.000000]
    RMS size of the density [Ang]:         1.748545
      Cartesian components [Ang]:        [  1.253257,   0.978565,   0.727439]
  
  Exciton analysis of the difference density matrix
  Total:
    <r_h> [Ang]:                  [ -0.000000,   0.000000,   0.000000]
    <r_e> [Ang]:                  [  0.000000,  -0.000001,   0.000000]
    |<r_e - r_h>| [Ang]:            0.000001
    Hole size [Ang]:                1.252697
      Cartesian components [Ang]: [  0.750140,   0.512054,   0.862752]
    Electron size [Ang]:            3.921277
      Cartesian components [Ang]: [  2.638777,   2.278166,   1.795336]
  
  Alpha spin:
    <r_h> [Ang]:                  [ -0.000000,   0.000000,   0.000000]
    <r_e> [Ang]:                  [  0.000000,  -0.000001,   0.000000]
    |<r_e - r_h>| [Ang]:            0.000001
    Hole size [Ang]:                1.249062
      Cartesian components [Ang]: [  0.749646,   0.510863,   0.858607]
    Electron size [Ang]:            3.848856
      Cartesian components [Ang]: [  2.649748,   2.210431,   1.704853]
  
  Beta spin:
    <r_h> [Ang]:                  [ -0.000000,   0.000000,   0.000000]
    <r_e> [Ang]:                  [  0.000000,  -0.000001,   0.000000]
    |<r_e - r_h>| [Ang]:            0.000001
    Hole size [Ang]:                1.254786
      Cartesian components [Ang]: [  0.750424,   0.512738,   0.865131]
    Electron size [Ang]:            3.937202
      Cartesian components [Ang]: [  2.636331,   2.292958,   1.814846]
  ----------------------------------------------------------------------------


  Electron-attached state 10 (B2g)                                  [converged]
  ----------------------------------------------------------------------------
  Term symbol:  10 (2) B2g                                  R^2 =  4.37697e-06

  Total energy:                                            -77.9637826068 a.u.
  Electron attachment energy:                                     10.360570 eV

  Pole strength:                                                      0.000141

  Dip. moment [a.u.]:                  [   0.000000,    0.000000,   -0.000000]
  Total dipole [Debye]:                                               0.000001
  <r^2> [a.u.]:                        [  94.129882,   67.993534,   27.655282]
  Total <r^2> [a.u.]:                                               189.778697

  V1^2 = 0.0001, V2^2 = 0.9999

  Important amplitudes:
       occ i       vir a        vir b           v   
    -------------------------------------------------
     1 (B1u) A    2 (B2u) A    2 (B1g) B     -0.4098
     1 (B1u) A    2 (B1g) A    2 (B2u) B     -0.3832
    -------------------------------------------------

  Density matrix analysis:
  ------------------------
  NOs (alpha)
    Occupation of frontier NOs:
       0.3423   0.3826
    Number of electrons:  8.000000
  NOs (beta)
    Occupation of frontier NOs:
       0.3437   0.3835
    Number of electrons:  9.000000
  NOs (spin-traced)
    Occupation of frontier NOs:
       0.7258   0.7261
    Number of electrons: 17.000000
    Number of unpaired electrons: n_u =  3.29116, n_u,nl =  3.03328
    NO participation ratio (PR_NO):  5.310453
  
  
  Mulliken Population Analysis
  Atom  Charge (e)    Spin (e)  h+ (alpha)   h+ (beta)  e- (alpha)   e- (beta)
  ----------------------------------------------------------------------------
   1 C   -0.503517    0.490894    0.491640    0.001726   -0.407337   -0.408316
   2 C   -0.503517    0.490894    0.491640    0.001726   -0.407337   -0.408316
   3 H    0.001755    0.004553    0.003149    0.000133   -0.045300   -0.046838
   4 H    0.001767    0.004553    0.003149    0.000133   -0.045301   -0.046838
   5 H    0.001762    0.004553    0.003149    0.000133   -0.045301   -0.046838
   6 H    0.001751    0.004553    0.003149    0.000133   -0.045301   -0.046838
  ----------------------------------------------------------------------------
  Sum:   -1.000000    1.000000    0.995876    0.003984   -0.995876   -1.003984
  
  Multipole moment analysis of the density matrix
    Molecular charge:                      -1.000000
    Number of electrons:                   17.000000
      Center of electronic charge [Ang]: [ -0.000000,   0.000000,   0.000000]
    Total nuclear charge:                  16.000000
      Center of nuclear charge [Ang]:    [  0.000000,   0.000000,   0.000000]
    Dipole moment [D]:                     0.000001
      Cartesian components [D]:          [  0.000000,   0.000001,  -0.000000]
    RMS size of the density [Ang]:         1.768074
      Cartesian components [Ang]:        [  1.245204,   1.058304,   0.674941]
  
  Exciton analysis of the difference density matrix
  Total:
    <r_h> [Ang]:                  [ -0.000000,   0.000000,   0.000000]
    <r_e> [Ang]:                  [  0.000000,  -0.000000,   0.000000]
    |<r_e - r_h>| [Ang]:            0.000000
    Hole size [Ang]:                1.252375
      Cartesian components [Ang]: [  0.749120,   0.511727,   0.863365]
    Electron size [Ang]:            3.987435
      Cartesian components [Ang]: [  2.600666,   2.559111,   1.608455]
  
  Alpha spin:
    <r_h> [Ang]:                  [ -0.000000,   0.000000,   0.000000]
    <r_e> [Ang]:                  [  0.000000,  -0.000000,   0.000000]
    |<r_e - r_h>| [Ang]:            0.000000
    Hole size [Ang]:                1.252195
      Cartesian components [Ang]: [  0.748752,   0.511258,   0.863701]
    Electron size [Ang]:            3.982411
      Cartesian components [Ang]: [  2.580225,   2.568233,   1.614379]
  
  Beta spin:
    <r_h> [Ang]:                  [  0.000000,   0.000000,   0.000000]
    <r_e> [Ang]:                  [  0.000000,  -0.000000,   0.000000]
    |<r_e - r_h>| [Ang]:            0.000000
    Hole size [Ang]:                1.296631
      Cartesian components [Ang]: [  0.836133,   0.617979,   0.774749]
    Electron size [Ang]:            3.992412
      Cartesian components [Ang]: [  2.620784,   2.550031,   1.602558]
  ----------------------------------------------------------------------------


--------------------------------------------------------------------------------
  Time of ADC calculation:  CPU 187.50 s  wall 44.43 s
================================================================================
 
 --------------------------------------------------------------
             Orbital Energies (a.u.) and Symmetries
 --------------------------------------------------------------
 
 Alpha MOs, Restricted
 -- Occupied --                  
-11.237 -11.235  -1.042  -0.782  -0.660  -0.567  -0.515  -0.377
  1 Ag    1 B3u   2 Ag    2 B3u   1 B2u   3 Ag    1 B1g   1 B1u                
 -- Virtual --                   
  0.058   0.066   0.075   0.080   0.085   0.090   0.122   0.162
  3 B3u   2 B2u   2 B1u   4 Ag    1 B2g   2 B1g   5 Ag    2 B2g                
  0.195   0.261   0.264   0.285   0.285   0.290   0.293   0.340
  4 B3u   6 Ag    3 B2u   5 B3u   3 B1g   7 Ag    3 B1u   4 B2u                
  0.363   0.372   0.547   0.600   0.809   0.860   0.889   0.930
  6 B3u   3 B2g   4 B1g   7 B3u   8 Ag    5 B2u   9 Ag    8 B3u                
  0.943   1.020   1.039   1.055   1.064   1.085   1.114   1.268
  6 B2u   4 B1u  10 Ag    5 B1g   4 B2g   9 B3u   1 B3g  10 B3u                
  1.285   1.286   1.382   1.616   1.626   1.718   1.866   1.942
  1 Au    5 B1u   6 B1g  11 Ag    7 B1g   7 B2u   5 B2g   6 B1u                
  1.945   2.017   2.042   2.081   2.177   2.323   2.412   2.460
 11 B3u   2 B3g  12 Ag    8 B2u   6 B2g  12 B3u   2 Au   13 Ag                 
  2.575   2.583   2.809   2.818   3.244   3.339
 13 B3u   8 B1g   9 B2u  14 Ag   14 B3u   9 B1g                                
 
 Beta MOs, Restricted
 -- Occupied --                  
-11.237 -11.235  -1.042  -0.782  -0.660  -0.567  -0.515  -0.377
  1 Ag    1 B3u   2 Ag    2 B3u   1 B2u   3 Ag    1 B1g   1 B1u                
 -- Virtual --                   
  0.058   0.066   0.075   0.080   0.085   0.090   0.122   0.162
  3 B3u   2 B2u   2 B1u   4 Ag    1 B2g   2 B1g   5 Ag    2 B2g                
  0.195   0.261   0.264   0.285   0.285   0.290   0.293   0.340
  4 B3u   6 Ag    3 B2u   5 B3u   3 B1g   7 Ag    3 B1u   4 B2u                
  0.363   0.372   0.547   0.600   0.809   0.860   0.889   0.930
  6 B3u   3 B2g   4 B1g   7 B3u   8 Ag    5 B2u   9 Ag    8 B3u                
  0.943   1.020   1.039   1.055   1.064   1.085   1.114   1.268
  6 B2u   4 B1u  10 Ag    5 B1g   4 B2g   9 B3u   1 B3g  10 B3u                
  1.285   1.286   1.382   1.616   1.626   1.718   1.866   1.942
  1 Au    5 B1u   6 B1g  11 Ag    7 B1g   7 B2u   5 B2g   6 B1u                
  1.945   2.017   2.042   2.081   2.177   2.323   2.412   2.460
 11 B3u   2 B3g  12 Ag    8 B2u   6 B2g  12 B3u   2 Au   13 Ag                 
  2.575   2.583   2.809   2.818   3.244   3.339
 13 B3u   8 B1g   9 B2u  14 Ag   14 B3u   9 B1g                                
 --------------------------------------------------------------
 
          Ground-State Mulliken Net Atomic Charges

     Atom                 Charge (a.u.)
  ----------------------------------------
      1 C                    -0.166488
      2 C                    -0.166488
      3 H                     0.083240
      4 H                     0.083252
      5 H                     0.083248
      6 H                     0.083235
  ----------------------------------------
  Sum of atomic charges =     0.000000

 -----------------------------------------------------------------
                    Cartesian Multipole Moments
 -----------------------------------------------------------------
    Charge (ESU x 10^10)
                -0.0000
    Dipole Moment (Debye)
         X       0.0000      Y      -0.0000      Z       0.0000
       Tot       0.0000
    Quadrupole Moments (Debye-Ang)
        XX     -12.9243     XY       0.0000     YY     -11.9647
        XZ       0.0000     YZ      -0.0000     ZZ     -16.1232
    Octopole Moments (Debye-Ang^2)
       XXX       0.0000    XXY      -0.0000    XYY       0.0000
       YYY      -0.0000    XXZ      -0.0000    XYZ      -0.0000
       YYZ       0.0000    XZZ       0.0000    YZZ      -0.0000
       ZZZ      -0.0000
    Hexadecapole Moments (Debye-Ang^3)
      XXXX     -68.1261   XXXY       0.0000   XXYY     -13.2293
      XYYY      -0.0000   YYYY     -26.8795   XXXZ       0.0000
      XXYZ       0.0000   XYYZ       0.0000   YYYZ      -0.0000
      XXZZ     -15.5645   XYZZ       0.0000   YYZZ      -8.9570
      XZZZ       0.0000   YZZZ      -0.0000   ZZZZ     -21.5252
 -----------------------------------------------------------------
 Total job time:  128.28s(wall), 230.50s(cpu) 
 Sun Mar 27 21:54:52 2022

        *************************************************************
        *                                                           *
        *  Thank you very much for using Q-Chem.  Have a nice day.  *
        *                                                           *
        *************************************************************


