This is a multi-thread run using 8 threads
/src/tsommerfeld/qchem/exe/qcprog.exe .input0.75.9294.qcin.1 /src/jdavis/qchem.scratch/qchem9294/

                  Welcome to Q-Chem
     A Quantum Leap Into The Future Of Chemistry


 Q-Chem 5.4 (devel), Q-Chem, Inc., Pleasanton, CA (2021)

 E. Epifanovsky,  A. T. B. Gilbert,  Xintian Feng,  Joonho Lee,  Yuezhi Mao,  
 N. Mardirossian,  P. Pokhilko,  A. White,  M. Wormit,  M. P. Coons,  
 A. L. Dempwolff,  Zhengting Gan,  D. Hait,  P. R. Horn,  L. D. Jacobson,  
 I. Kaliman,  J. Kussmann,  A. W. Lange,  Ka Un Lao,  D. S. Levine,  Jie Liu,  
 S. C. McKenzie,  A. F. Morrison,  K. Nanda,  F. Plasser,  D. R. Rehn,  
 M. L. Vidal,  Zhi-Qiang You,  Ying Zhu,  B. Alam,  B. Albrecht,  
 A. Aldossary,  E. Alguire,  J. H. Andersen,  D. Barton,  K. Begam,  A. Behn,  
 Y. A. Bernard,  E. J. Berquist,  H. Burton,  A. Carreras,  K. Carter-Fenk,  
 R. Chakraborty,  A. D. Chien,  K. D. Closser,  V. Cofer-Shabica,  
 S. Dasgupta,  Jia Deng,  M. de Wergifosse,  M. Diedenhofen,  Hainam Do,  
 S. Ehlert,  Po-Tung Fang,  S. Fatehi,  Qingguo Feng,  T. Friedhoff,  
 J. Gayvert,  Qinghui Ge,  G. Gidofalvi,  M. Goldey,  J. Gomes,  
 C. Gonzalez-Espinoza,  S. Gulania,  A. Gunina,  M. W. D. Hanson-Heine,  
 P. H. P. Harbach,  A. W. Hauser,  M. F. Herbst,  M. Hernandez Vera,  
 M. Hodecker,  Z. C. Holden,  S. Houck,  Xunkun Huang,  Kerwin Hui,  
 B. C. Huynh,  M. Ivanov,  Hyunjun Ji,  Hanjie Jiang,  B. Kaduk,  S. Kaehler,  
 K. Khistyaev,  Jaehoon Kim,  P. Klunzinger,  Z. Koczor-Benda,  
 Joong Hoon Koh,  D. Kosenkov,  L. Koulias,  T. Kowalczyk,  C. M. Krauter,  
 K. Kue,  A. Kunitsa,  T. Kus,  A. Landau,  K. V. Lawler,  D. Lefrancois,  
 S. Lehtola,  Rain Li,  Yi-Pei Li,  Jiashu Liang,  M. Liebenthal,  
 Hung-Hsuan Lin,  You-Sheng Lin,  Fenglai Liu,  Kuan-Yu Liu,  
 M. Loipersberger,  A. Luenser,  A. Manjanath,  P. Manohar,  E. Mansoor,  
 S. F. Manzer,  Shan-Ping Mao,  A. V. Marenich,  T. Markovich,  S. Mason,  
 S. A. Maurer,  P. F. McLaughlin,  M. F. S. J. Menger,  J.-M. Mewes,  
 S. A. Mewes,  P. Morgante,  J. W. Mullinax,  K. J. Oosterbaan,  G. Paran,  
 Alexander C. Paul,  Suranjan K. Paul,  F. Pavosevic,  Zheng Pei,  S. Prager,  
 E. I. Proynov,  E. Ramos,  B. Rana,  A. E. Rask,  A. Rettig,  R. M. Richard,  
 F. Rob,  E. Rossomme,  T. Scheele,  M. Scheurer,  M. Schneider,  
 N. Sergueev,  S. M. Sharada,  W. Skomorowski,  D. W. Small,  C. J. Stein,  
 Yu-Chuan Su,  E. J. Sundstrom,  Zhen Tao,  J. Thirman,  T. Tsuchimochi,  
 N. M. Tubman,  S. P. Veccham,  O. Vydrov,  J. Wenzel,  J. Witte,  A. Yamada,  
 Kun Yao,  S. Yeganeh,  S. R. Yost,  A. Zech,  Igor Ying Zhang,  Xing Zhang,  
 Yu Zhang,  D. Zuev,  A. Aspuru-Guzik,  A. T. Bell,  N. A. Besley,  
 K. B. Bravaya,  B. R. Brooks,  D. Casanova,  Jeng-Da Chai,  S. Coriani,  
 C. J. Cramer,  A. E. DePrince, III,  R. A. DiStasio Jr.,  A. Dreuw,  
 B. D. Dunietz,  T. R. Furlani,  W. A. Goddard III,  S. Grimme,  
 S. Hammes-Schiffer,  T. Head-Gordon,  W. J. Hehre,  Chao-Ping Hsu,  
 T.-C. Jagau,  Yousung Jung,  A. Klamt,  Jing Kong,  D. S. Lambrecht,  
 WanZhen Liang,  N. J. Mayhall,  C. W. McCurdy,  J. B. Neaton,  
 C. Ochsenfeld,  J. A. Parkhill,  R. Peverati,  V. A. Rassolov,  Yihan Shao,  
 L. V. Slipchenko,  T. Stauch,  R. P. Steele,  J. E. Subotnik,  
 A. J. W. Thom,  A. Tkatchenko,  D. G. Truhlar,  T. Van Voorhis,  
 T. A. Wesolowski,  K. B. Whaley,  H. L. Woodcock III,  P. M. Zimmerman,  
 S. Faraji,  P. M. W. Gill,  M. Head-Gordon,  J. M. Herbert,  A. I. Krylov

 Additional authors for Version 5.4.1: 
 S. Kotaru,  Shaozhi Li,  Xiangyuan Li,  F. Matz,  A. Molle,  Haisheng Ren,  
 Yingli Su,  Hung-Yi Tsai,  C. Utku,  Fang Wang

 Contributors to earlier versions of Q-Chem not listed above: 
 R. D. Adamson,  B. Austin,  R. Baer,  J. Baker,  G. J. O. Beran,  
 K. Brandhorst,  S. T. Brown,  E. F. C. Byrd,  A. K. Chakraborty,  
 G. K. L. Chan,  Chun-Min Chang,  Yunqing Chen,  C.-L. Cheng,  
 Siu Hung Chien,  D. M. Chipman,  D. L. Crittenden,  H. Dachsel,  
 R. J. Doerksen,  A. D. Dutoi,  R. G. Edgar,  J. Fosso-Tande,  
 L. Fusti-Molnar,  D. Ghosh,  A. Ghysels,  A. Golubeva-Zadorozhnaya,  
 J. Gonthier,  M. S. Gordon,  S. R. Gwaltney,  G. Hawkins,  J. E. Herr,  
 A. Heyden,  S. Hirata,  E. G. Hohenstein,  G. Kedziora,  F. J. Keil,  
 C. Kelley,  Jihan Kim,  R. A. King,  R. Z. Khaliullin,  P. P. Korambath,  
 W. Kurlancheek,  A. Laurent,  A. M. Lee,  M. S. Lee,  S. V. Levchenko,  
 Ching Yeh Lin,  D. Liotard,  E. Livshits,  R. C. Lochan,  I. Lotan,  
 L. A. Martinez-Martinez,  P. E. Maslen,  N. Nair,  D. P. O'Neill,  
 D. Neuhauser,  E. Neuscamman,  C. M. Oana,  R. Olivares-Amaya,  R. Olson,  
 T. M. Perrine,  B. Peters,  P. A. Pieniazek,  A. Prociuk,  Y. M. Rhee,  
 J. Ritchie,  M. A. Rohrdanz,  E. Rosta,  N. J. Russ,  H. F. Schaefer III,  
 M. W. Schmidt,  N. E. Schultz,  S. Sharma,  N. Shenvi,  C. D. Sherrill,  
 A. C. Simmonett,  A. Sodt,  T. Stein,  D. Stuck,  K. S. Thanthiriwatte,  
 V. Vanovschi,  L. Vogt,  Tao Wang,  A. Warshel,  M. A. Watson,  
 C. F. Williams,  Q. Wu,  X. Xu,  Jun Yang,  W. Zhang,  Yan Zhao

 Please cite Q-Chem as follows:
 Y. Shao et al., Mol. Phys. 113, 184-215 (2015)
 DOI: 10.1080/00268976.2014.952696

 Q-Chem 5.4.1 for Intel X86 EM64T Linux

 Parts of Q-Chem use Armadillo 9.900.5 (Nocturnal Misbehaviour).
 http://arma.sourceforge.net/

 Q-Chem begins on Sun Mar 27 21:28:57 2022  

 Host: node01
0

     Scratch files written to /src/jdavis/qchem.scratch/qchem9294//
 Processing $rem in /src/tsommerfeld/qchem/config/preferences:
 Processing $rem in /home/jdavis/.qchemrc:

 Checking the input file for inconsistencies... 	...done.

--------------------------------------------------------------
User input:
--------------------------------------------------------------
$molecule
0 1
C        -0.6645000000    0.0000000000   -0.2082049804
C         0.6645000000    0.0000000000   -0.2082049804
H        -1.1590800000    0.0000000000    0.7541440196
H         1.1590800000    0.0000000000    0.7541440196
H        -1.1590800000    0.0000000000   -1.1705529804
H         1.1590800000    0.0000000000   -1.1705529804
$end

$rem
   METHOD adc(3)
   BASIS gen
   PURECART 11
   EA_STATES [0,0,10,0,0,0,0,0]
   scf_convergence 8
   ADC_DAVIDSON_MAXITER 120
   ADC_DAVIDSON_MAXSUBSPACE 200
   adc_nguess_singles 100
   THRESH 14
   S2THRESH 14
   adc_davidson_conv 5
   adc_davidson_thresh 14
   THREADS 10
   MEM_TOTAL 95000
   STATE_ANALYSIS TRUE
$end
$basis
C 1
S   9   1.00
      6.665000D+03           6.920000D-04
      1.000000D+03           5.329000D-03
      2.280000D+02           2.707700D-02
      6.471000D+01           1.017180D-01
      2.106000D+01           2.747400D-01
      7.495000D+00           4.485640D-01
      2.797000D+00           2.850740D-01
      5.215000D-01           1.520400D-02
      1.596000D-01          -3.191000D-03
S   9   1.00
      6.665000D+03          -1.460000D-04
      1.000000D+03          -1.154000D-03
      2.280000D+02          -5.725000D-03
      6.471000D+01          -2.331200D-02
      2.106000D+01          -6.395500D-02
      7.495000D+00          -1.499810D-01
      2.797000D+00          -1.272620D-01
      5.215000D-01           5.445290D-01
      1.596000D-01           5.804960D-01
S   1   1.00
      1.596000D-01           1.000000D+00
S   1   1.00
      0.0469000              1.0000000
P   4   1.00
      9.439000D+00           3.810900D-02
      2.002000D+00           2.094800D-01
      5.456000D-01           5.085570D-01
      1.517000D-01           4.688420D-01
P   1   1.00
      1.517000D-01           1.000000D+00
P   1   1.00
      0.04551      1.0000000
P   1   1.00
      0.022755      1.0000000
D   1   1.00
      5.500000D-01           1.0000000
****
C 2
S   9   1.00
      6.665000D+03           6.920000D-04
      1.000000D+03           5.329000D-03
      2.280000D+02           2.707700D-02
      6.471000D+01           1.017180D-01
      2.106000D+01           2.747400D-01
      7.495000D+00           4.485640D-01
      2.797000D+00           2.850740D-01
      5.215000D-01           1.520400D-02
      1.596000D-01          -3.191000D-03
S   9   1.00
      6.665000D+03          -1.460000D-04
      1.000000D+03          -1.154000D-03
      2.280000D+02          -5.725000D-03
      6.471000D+01          -2.331200D-02
      2.106000D+01          -6.395500D-02
      7.495000D+00          -1.499810D-01
      2.797000D+00          -1.272620D-01
      5.215000D-01           5.445290D-01
      1.596000D-01           5.804960D-01
S   1   1.00
      1.596000D-01           1.000000D+00
S   1   1.00
      0.0469000              1.0000000
P   4   1.00
      9.439000D+00           3.810900D-02
      2.002000D+00           2.094800D-01
      5.456000D-01           5.085570D-01
      1.517000D-01           4.688420D-01
P   1   1.00
      1.517000D-01           1.000000D+00
P   1   1.00
      0.04551      1.0000000
P   1   1.00
      0.022755      1.0000000
D   1   1.00
      5.500000D-01           1.0000000
****
H 3
cc-pVDZ
****
H 4
cc-pVDZ
****
H 5
cc-pVDZ
****
H 6
cc-pVDZ
****
H 7
aug-cc-pVDZ
****
$end
--------------------------------------------------------------
 Atom   2: ( -0.6645000000, -0.0000001250,  0.0000000000)
         ->( -0.6645000000,  0.0000001250, -0.0000000000)
 Atom   1: (  0.6645000000, -0.0000001250, -0.0000000000)
         ->(  0.6645000000,  0.0000000000,  0.0000000000)
 Atom   6: ( -1.1590800000, -0.9623481250, -0.0000000000)
         ->( -1.1590800000, -0.9623488750,  0.0000000000)
 Atom   5: (  1.1590800000, -0.9623481250, -0.0000000000)
         ->(  1.1590800000, -0.9623488750, -0.0000000000)
 ----------------------------------------------------------------
             Standard Nuclear Orientation (Angstroms)
    I     Atom           X                Y                Z
 ----------------------------------------------------------------
    1      C       0.6645000000     0.0000000000     0.0000000000
    2      C      -0.6645000000     0.0000001250    -0.0000000000
    3      H       1.1590800000     0.9623488750     0.0000000000
    4      H      -1.1590800000     0.9623488750     0.0000000000
    5      H       1.1590800000    -0.9623488750    -0.0000000000
    6      H      -1.1590800000    -0.9623488750     0.0000000000
 ----------------------------------------------------------------
 Molecular Point Group                 D2h   NOp =  8
 Largest Abelian Subgroup              D2h   NOp =  8
 Nuclear Repulsion Energy =          33.58921667 hartrees
 There are        8 alpha and        8 beta electrons
 Requested basis set is non-standard
 There are 30 shells and 62 basis functions
 Total memory of 95000 MB is distributed as follows: 
   MEM_STATIC is set to 192 MB
   QALLOC/CCMAN JOB total memory use is  94808 MB
 Warning: actual memory use might exceed 95000 MB

 Total QAlloc Memory Limit  95000 MB
 Mega-Array Size       188 MB
 MEM_STATIC part       192 MB

                       Distance Matrix (Angstroms)
             C (  1)   C (  2)   H (  3)   H (  4)   H (  5)
   C (  2)  1.329000
   H (  3)  1.082000  2.061931
   H (  4)  2.061931  1.082000  2.318160
   H (  5)  1.082000  2.061931  1.924698  3.013026
   H (  6)  2.061931  1.082000  3.013026  1.924698  2.318160
 
 A cutoff of  1.0D-14 yielded    465 shell pairs
 There are      2009 function pairs (      2146 Cartesian)
 Smallest overlap matrix eigenvalue = 1.83E-04

 Scale SEOQF with 1.000000e-01/1.000000e-01/1.000000e-01

 Standard Electronic Orientation quadrupole field applied
 Nucleus-field energy     =     0.0000000006 hartrees
 ================ Generating on-the-fly SAD Guess ================
Attempting to make child job directory: /src/jdavis/qchem.scratch/qchem9294//Frg1/
Attempting to make child job directory: /src/jdavis/qchem.scratch/qchem9294//Frg2/
Creating input file /src/jdavis/qchem.scratch/qchem9294/Frg1.input
using default PutDataFrgm: nothing
calling putenv with: QCSCRATCH=/src/jdavis/qchem.scratch/qchem9294/ 
Spawning Job For Fragment 0
Done Job For Fragment 0
calling putenv with: QCSCRATCH=/src/jdavis/qchem.scratch 
calling putenv with: QCTHREADS=8 
Creating input file /src/jdavis/qchem.scratch/qchem9294/Frg2.input
using default PutDataFrgm: nothing
calling putenv with: QCSCRATCH=/src/jdavis/qchem.scratch/qchem9294/ 
Spawning Job For Fragment 1
Done Job For Fragment 1
calling putenv with: QCSCRATCH=/src/jdavis/qchem.scratch 
calling putenv with: QCTHREADS=8 
 Time for running child jobs:  CPU 1.77 s  wall 55.58 s
 ============= Method Specific SAD Guess Constructed =============
 Guess from on-the-fly superposition of atomic densities
 Warning: Energy on first SCF cycle will be non-variational
 A restricted Hartree-Fock SCF calculation will be
 performed using Pulay DIIS extrapolation
 SCF converges when DIIS error is below 1.0E-08
 using 10 threads for integral computing
 -------------------------------------------------------
 OpenMP Integral computing Module                
 Release: version 1.0, May 2013, Q-Chem Inc. Pittsburgh 
 -------------------------------------------------------
 ---------------------------------------
  Cycle       Energy         DIIS Error
 ---------------------------------------
    1     -78.4569440325      7.95E-02
    2     -78.0142276359      5.76E-03
    3     -78.0355658075      1.51E-03
    4     -78.0372026923      5.02E-04
    5     -78.0373727486      6.05E-05
    6     -78.0373776322      1.27E-05
    7     -78.0373780228      2.99E-06
    8     -78.0373780903      2.70E-07
    9     -78.0373780969      3.28E-08
   10     -78.0373780974      3.54E-09 Convergence criterion met
 ---------------------------------------
 SCF time:  CPU 8.70 s  wall 0.87 s
 SCF   energy in the final basis set = -78.03737810
 Total energy in the final basis set = -78.03737810
================================================================================
|                                                                              |
|                                 A D C  M A N                                 |
|                                                                              |
 ------------------------------------------------------------------------------ 
|                                                                              |
| Components:                                                                  |
|                                                                              |
| - libvmm - 1.3-trunk                                                         |
|   Authors:                                                                   |
|   Evgeny Epifanovsky, Ilya Kaliman                                           |
|                                                                              |
| - libtensor - 2.5-trunk                                                      |
|   Authors:                                                                   |
|   Evgeny Epifanovsky, Michael Wormit, Dmitry Zuev, Sam Manzer,               |
|   Ilya Kaliman                                                               |
|                                                                              |
| - libwfa - 1.1-trunk                                                         |
|   Authors:                                                                   |
|   Felix Plasser, Stefanie Mewes (Baeppler), Benjamin Thomitzni,              |
|   Michael Wormit, Feng Chen, Anna I. Krylov, Pavel Pokhilko                  |
|                                                                              |
| - libadc - 1.1-trunk                                                         |
|   Authors:                                                                   |
|   Michael Wormit, Adrian L. Dempwolff, Philipp H. P. Harbach,                |
|   Caroline Krauter, Dirk Rehn, Matthias Schneider, Jan Wenzel                |
|                                                                              |
| - adcman - 2.6-trunk                                                         |
|   Authors:                                                                   |
|   Michael Wormit, Adrian L. Dempwolff, Philipp H. P. Harbach,                |
|   Caroline Krauter, Daniel Lefrancois, Jan-Michael Mewes, Dirk Rehn,         |
|   Matthias Schneider, Jan Wenzel, Andreas Dreuw                              |
|                                                                              |
| Authors of earlier versions of ADCMAN:                                       |
| Andreas Dreuw, Jan Hendrik Starcke, Dirk Rehn, Michael Wormit                |
|                                                                              |
================================================================================

 
 Alpha MOs, Restricted
 -- Occupied --                  
-11.237 -11.235  -1.042  -0.782  -0.661  -0.567  -0.515  -0.377
  1 Ag    1 B3u   2 Ag    2 B3u   1 B2u   3 Ag    1 B1g   1 B1u                
 -- Virtual --                   
  0.045   0.046   0.053   0.065   0.066   0.067   0.105   0.137
  3 B3u   2 B2u   2 B1u   2 B1g   1 B2g   4 Ag    5 Ag    2 B2g                
  0.164   0.188   0.206   0.214   0.221   0.245   0.266   0.290
  4 B3u   3 B2u   3 B1g   3 B1u   6 Ag    5 B3u   7 Ag    3 B2g                
  0.342   0.350   0.490   0.526   0.719   0.805   0.862   0.894
  4 B2u   6 B3u   4 B1g   7 B3u   8 Ag    5 B2u   9 Ag    6 B2u                
  0.904   0.932   0.956   0.976   1.031   1.061   1.114   1.284
  4 B1u   8 B3u   4 B2g   9 B3u  10 Ag    5 B1g   1 B3g   5 B1u                
  1.284   1.332   1.346   1.609   1.615   1.702   1.853   1.912
  1 Au   10 B3u   6 B1g  11 Ag    7 B1g   7 B2u   5 B2g  11 B3u                
  1.939   1.998   2.017   2.051   2.172   2.304   2.412   2.445
  6 B1u  12 Ag    2 B3g   8 B2u   6 B2g  12 B3u   2 Au   13 Ag                 
  2.559   2.570   2.799   2.802   3.253   3.340
  8 B1g  13 B3u   9 B2u  14 Ag   14 B3u   9 B1g                                
 
 Beta MOs, Restricted
 -- Occupied --                  
-11.237 -11.235  -1.042  -0.782  -0.661  -0.567  -0.515  -0.377
  1 Ag    1 B3u   2 Ag    2 B3u   1 B2u   3 Ag    1 B1g   1 B1u                
 -- Virtual --                   
  0.045   0.046   0.053   0.065   0.066   0.067   0.105   0.137
  3 B3u   2 B2u   2 B1u   2 B1g   1 B2g   4 Ag    5 Ag    2 B2g                
  0.164   0.188   0.206   0.214   0.221   0.245   0.266   0.290
  4 B3u   3 B2u   3 B1g   3 B1u   6 Ag    5 B3u   7 Ag    3 B2g                
  0.342   0.350   0.490   0.526   0.719   0.805   0.862   0.894
  4 B2u   6 B3u   4 B1g   7 B3u   8 Ag    5 B2u   9 Ag    6 B2u                
  0.904   0.932   0.956   0.976   1.031   1.061   1.114   1.284
  4 B1u   8 B3u   4 B2g   9 B3u  10 Ag    5 B1g   1 B3g   5 B1u                
  1.284   1.332   1.346   1.609   1.615   1.702   1.853   1.912
  1 Au   10 B3u   6 B1g  11 Ag    7 B1g   7 B2u   5 B2g  11 B3u                
  1.939   1.998   2.017   2.051   2.172   2.304   2.412   2.445
  6 B1u  12 Ag    2 B3g   8 B2u   6 B2g  12 B3u   2 Au   13 Ag                 
  2.559   2.570   2.799   2.802   3.253   3.340
  8 B1g  13 B3u   9 B2u  14 Ag   14 B3u   9 B1g                                

--------------------------------------------------------------------------------
                                   HF Summary                                   
--------------------------------------------------------------------------------
  Energy:                                                  -78.0373780974 a.u.
  Dip. moment [a.u.]:                  [   0.000000,   -0.000001,   -0.000000]
  Total dipole [Debye]:                                               0.000001
  <r^2> [a.u.]:                        [  47.725044,   22.123001,   11.984795]
  Total <r^2> [a.u.]:                                                81.832839
--------------------------------------------------------------------------------

--------------------------------------------------------------------------------
                                 MP(2) Summary                                  
--------------------------------------------------------------------------------
  MP energy contribution:                                   -0.2818460985 a.u.
  Total energy:                                            -78.3192241959 a.u.
  Dip. moment [a.u.]:                  [   0.000000,   -0.000001,    0.000000]
  Total dipole [Debye]:                                               0.000002
  <r^2> [a.u.]:                        [  47.833697,   22.156074,   11.839181]
  Total <r^2> [a.u.]:                                                81.828953

  Density matrix analysis:
  ------------------------
  NOs (alpha)
    Occupation of frontier NOs:
       0.0223   0.9686
    Number of electrons:  8.000000
  NOs (beta)
    Occupation of frontier NOs:
       0.0223   0.9686
    Number of electrons:  8.000000
  NOs (spin-traced)
    Occupation of frontier NOs:
       0.0447   1.9372
    Number of electrons: 16.000000
    Number of unpaired electrons: n_u =  0.40880, n_u,nl =  0.04593
    NO participation ratio (PR_NO): 13.958802
  
  
  Mulliken Population Analysis
  Atom  Charge (e)    Spin (e)  h+ (alpha)   h+ (beta)  e- (alpha)   e- (beta)
  ----------------------------------------------------------------------------
   1 C   -0.167742    0.000000    0.043951    0.043951   -0.051139   -0.051139
   2 C   -0.167742   -0.000000    0.043951    0.043951   -0.051139   -0.051139
   3 H    0.083870   -0.000000    0.008810    0.008810   -0.005216   -0.005216
   4 H    0.083874    0.000000    0.008810    0.008810   -0.005216   -0.005216
   5 H    0.083872   -0.000000    0.008810    0.008810   -0.005216   -0.005216
   6 H    0.083867    0.000000    0.008810    0.008810   -0.005216   -0.005216
  ----------------------------------------------------------------------------
  Sum:   -0.000000   -0.000000    0.123141    0.123141   -0.123141   -0.123141
  
  Multipole moment analysis of the density matrix
    Molecular charge:                      0.000000
    Number of electrons:                   16.000000
      Center of electronic charge [Ang]: [ -0.000000,   0.000000,  -0.000000]
    Total nuclear charge:                  16.000000
      Center of nuclear charge [Ang]:    [  0.000000,   0.000000,   0.000000]
    Dipole moment [D]:                     0.000002
      Cartesian components [D]:          [  0.000000,  -0.000002,   0.000000]
    RMS size of the density [Ang]:         1.196726
      Cartesian components [Ang]:        [  0.914973,   0.622712,   0.455200]
  
  Exciton analysis of the difference density matrix
  Total:
    <r_h> [Ang]:                  [  0.000000,   0.000000,   0.000000]
    <r_e> [Ang]:                  [  0.000000,   0.000000,  -0.000000]
    |<r_e - r_h>| [Ang]:            0.000000
    Hole size [Ang]:                1.421561
      Cartesian components [Ang]: [  0.967144,   0.727451,   0.745843]
    Electron size [Ang]:            1.420006
      Cartesian components [Ang]: [  1.029033,   0.752855,   0.625073]
  
  Alpha spin:
    <r_h> [Ang]:                  [  0.000000,   0.000000,   0.000000]
    <r_e> [Ang]:                  [  0.000000,   0.000000,  -0.000000]
    |<r_e - r_h>| [Ang]:            0.000000
    Hole size [Ang]:                1.421561
      Cartesian components [Ang]: [  0.967144,   0.727451,   0.745843]
    Electron size [Ang]:            1.420006
      Cartesian components [Ang]: [  1.029033,   0.752855,   0.625073]
  
  Beta spin:
    <r_h> [Ang]:                  [  0.000000,   0.000000,   0.000000]
    <r_e> [Ang]:                  [  0.000000,   0.000000,  -0.000000]
    |<r_e - r_h>| [Ang]:            0.000000
    Hole size [Ang]:                1.421561
      Cartesian components [Ang]: [  0.967144,   0.727451,   0.745843]
    Electron size [Ang]:            1.420006
      Cartesian components [Ang]: [  1.029033,   0.752855,   0.625073]
--------------------------------------------------------------------------------

--------------------------------------------------------------------------------
                                 MP(3) Summary                                  
--------------------------------------------------------------------------------
  MP energy contribution:                                   -0.0245372033 a.u.
  Total energy:                                            -78.3437613991 a.u.
--------------------------------------------------------------------------------
Less particle guess vectors found than requested: 6 (found), 100 (requested).
Adjusting number of hole-2particle guess vectors to 94.
  Starting Davidson for electron-attached states of irrep B2g ... 
--------------------------------------------------------------------------------
   It NVec Conv  Avg. Norm  Max. Norm  Conv. states           Remark
--------------------------------------------------------------------------------
       100    0  3.955e-02  2.495e-01  0.0653 n n n n n n n n Guess.
    1  110    0  6.477e-03  3.685e-02  0.0621 n n n n n n n n 
    2  120    0  1.798e-03  1.012e-02  0.0620 n n n n n n n n 
    3  130    0  4.832e-04  2.872e-03  0.0620 n n n n n n n n 
    4  140    0  1.446e-04  1.092e-03  0.0620 n n n n n n n n 
    5  150    0  3.649e-05  2.850e-04  0.0620 n n n n n n n n 
    6  160    1  9.944e-06  8.157e-05  0.0620 y n n n n n n n 
    7  170    9  2.787e-06  2.442e-05  0.0620 y y y y y y y y 
    8  180   10  7.657e-07  7.080e-06  0.0620 y y y y y y y y Converged.
--------------------------------------------------------------------------------
  Davidson Summary: 
 ------------------------------------------------------------
  State  0: electron attachment energy =   0.0620 a.u.   (converged)
  State  1: electron attachment energy =   0.1070 a.u.   (converged)
  State  2: electron attachment energy =   0.1907 a.u.   (converged)
  State  3: electron attachment energy =   0.2551 a.u.   (converged)
  State  4: electron attachment energy =   0.2950 a.u.   (converged)
  State  5: electron attachment energy =   0.3067 a.u.   (converged)
  State  6: electron attachment energy =   0.3189 a.u.   (converged)
  State  7: electron attachment energy =   0.3250 a.u.   (converged)
  State  8: electron attachment energy =   0.3374 a.u.   (converged)
  State  9: electron attachment energy =   0.3546 a.u.   (converged)
 ------------------------------------------------------------


--------------------------------------------------------------------------------
                        Electron-Attached State Summary
--------------------------------------------------------------------------------

  Electron-attached state 1 (B2g)                                  [converged]
  ----------------------------------------------------------------------------
  Term symbol:  1 (2) B2g                                   R^2 =  7.66445e-08

  Total energy:                                            -78.2817783903 a.u.
  Electron attachment energy:                                      1.686643 eV

  Pole strength:                                                      0.986737

  Dip. moment [a.u.]:                  [   0.000000,   -0.000001,    0.000000]
  Total dipole [Debye]:                                               0.000002
  <r^2> [a.u.]:                        [  83.409274,   33.998410,   46.706375]
  Total <r^2> [a.u.]:                                               164.114059

  V1^2 = 0.9887, V2^2 = 0.0113

  Important amplitudes:
       occ i       vir a        vir b           v   
    -------------------------------------------------
                               1 (B2g) B      0.9842
                               2 (B2g) B      0.1371
    -------------------------------------------------

  Density matrix analysis:
  ------------------------
  NOs (alpha)
    Occupation of frontier NOs:
       0.0216   0.9661
    Number of electrons:  8.000000
  NOs (beta)
    Occupation of frontier NOs:
       0.0263   0.9676
    Number of electrons:  9.000000
  NOs (spin-traced)
    Occupation of frontier NOs:
       0.0459   0.9922
    Number of electrons: 17.000000
    Number of unpaired electrons: n_u =  1.42187, n_u,nl =  1.04930
    NO participation ratio (PR_NO):  2.027066
  
  
  Mulliken Population Analysis
  Atom  Charge (e)    Spin (e)  h+ (alpha)   h+ (beta)  e- (alpha)   e- (beta)
  ----------------------------------------------------------------------------
   1 C   -0.647131    0.511694    0.021717    0.021053   -0.005564   -0.516594
   2 C   -0.647131    0.511694    0.021717    0.021053   -0.005564   -0.516594
   3 H    0.073564   -0.005847   -0.000231    0.001554   -0.007845   -0.003783
   4 H    0.073569   -0.005847   -0.000231    0.001554   -0.007845   -0.003783
   5 H    0.073566   -0.005847   -0.000231    0.001554   -0.007845   -0.003783
   6 H    0.073562   -0.005847   -0.000231    0.001554   -0.007845   -0.003783
  ----------------------------------------------------------------------------
  Sum:   -1.000000    1.000000    0.042508    0.048320   -0.042508   -1.048320
  
  Multipole moment analysis of the density matrix
    Molecular charge:                      -1.000000
    Number of electrons:                   17.000000
      Center of electronic charge [Ang]: [ -0.000000,   0.000000,  -0.000000]
    Total nuclear charge:                  16.000000
      Center of nuclear charge [Ang]:    [  0.000000,   0.000000,   0.000000]
    Dipole moment [D]:                     0.000002
      Cartesian components [D]:          [  0.000000,  -0.000002,   0.000000]
    RMS size of the density [Ang]:         1.644181
      Cartesian components [Ang]:        [  1.172152,   0.748352,   0.877132]
  
  Exciton analysis of the difference density matrix
  Total:
    <r_h> [Ang]:                  [ -0.000000,  -0.000000,  -0.000000]
    <r_e> [Ang]:                  [ -0.000000,   0.000000,  -0.000000]
    |<r_e - r_h>| [Ang]:            0.000000
    Hole size [Ang]:                2.112192
      Cartesian components [Ang]: [  1.283510,   1.054246,   1.304807]
    Electron size [Ang]:            4.636274
      Cartesian components [Ang]: [  3.044641,   1.769918,   3.015391]
  
  Alpha spin:
    <r_h> [Ang]:                  [ -0.000000,   0.000000,  -0.000000]
    <r_e> [Ang]:                  [ -0.000000,   0.000000,  -0.000000]
    |<r_e - r_h>| [Ang]:            0.000000
    Hole size [Ang]:                1.917580
      Cartesian components [Ang]: [  1.199665,   0.972878,   1.136410]
    Electron size [Ang]:            2.562979
      Cartesian components [Ang]: [  1.493272,   1.421474,   1.522633]
  
  Beta spin:
    <r_h> [Ang]:                  [ -0.000000,  -0.000000,  -0.000000]
    <r_e> [Ang]:                  [ -0.000000,   0.000000,  -0.000000]
    |<r_e - r_h>| [Ang]:            0.000000
    Hole size [Ang]:                2.269638
      Cartesian components [Ang]: [  1.352980,   1.120954,   1.436721]
    Electron size [Ang]:            4.701092
      Cartesian components [Ang]: [  3.091165,   1.782611,   3.060599]
  ----------------------------------------------------------------------------


  Electron-attached state 2 (B2g)                                  [converged]
  ----------------------------------------------------------------------------
  Term symbol:  2 (2) B2g                                   R^2 =  3.15794e-07

  Total energy:                                            -78.2367434043 a.u.
  Electron attachment energy:                                      2.912108 eV

  Pole strength:                                                      0.914397

  Dip. moment [a.u.]:                  [   0.000000,   -0.000001,   -0.000000]
  Total dipole [Debye]:                                               0.000002
  <r^2> [a.u.]:                        [  65.423450,   28.963143,   28.916679]
  Total <r^2> [a.u.]:                                               123.303272

  V1^2 = 0.9263, V2^2 = 0.0737

  Important amplitudes:
       occ i       vir a        vir b           v   
    -------------------------------------------------
                               2 (B2g) B     -0.9371
                               1 (B2g) B      0.1609
    -------------------------------------------------

  Density matrix analysis:
  ------------------------
  NOs (alpha)
    Occupation of frontier NOs:
       0.0227   0.9537
    Number of electrons:  8.000000
  NOs (beta)
    Occupation of frontier NOs:
       0.0274   0.9653
    Number of electrons:  9.000000
  NOs (spin-traced)
    Occupation of frontier NOs:
       0.0361   0.9795
    Number of electrons: 17.000000
    Number of unpaired electrons: n_u =  1.45631, n_u,nl =  1.05741
    NO participation ratio (PR_NO):  2.175936
  
  
  Mulliken Population Analysis
  Atom  Charge (e)    Spin (e)  h+ (alpha)   h+ (beta)  e- (alpha)   e- (beta)
  ----------------------------------------------------------------------------
   1 C   -0.553451    0.544895    0.136674    0.078850   -0.057081   -0.544152
   2 C   -0.553451    0.544895    0.136674    0.078850   -0.057081   -0.544152
   3 H    0.026724   -0.022448    0.001459    0.007795   -0.041255   -0.025144
   4 H    0.026729   -0.022448    0.001459    0.007795   -0.041256   -0.025144
   5 H    0.026726   -0.022448    0.001459    0.007795   -0.041255   -0.025144
   6 H    0.026722   -0.022448    0.001459    0.007795   -0.041255   -0.025144
  ----------------------------------------------------------------------------
  Sum:   -1.000000    1.000000    0.279184    0.188878   -0.279184   -1.188878
  
  Multipole moment analysis of the density matrix
    Molecular charge:                      -1.000000
    Number of electrons:                   17.000000
      Center of electronic charge [Ang]: [ -0.000000,   0.000000,   0.000000]
    Total nuclear charge:                  16.000000
      Center of nuclear charge [Ang]:    [  0.000000,   0.000000,   0.000000]
    Dipole moment [D]:                     0.000002
      Cartesian components [D]:          [  0.000000,  -0.000002,  -0.000000]
    RMS size of the density [Ang]:         1.425161
      Cartesian components [Ang]:        [  1.038110,   0.690716,   0.690162]
  
  Exciton analysis of the difference density matrix
  Total:
    <r_h> [Ang]:                  [ -0.000000,  -0.000000,  -0.000000]
    <r_e> [Ang]:                  [ -0.000000,   0.000000,   0.000000]
    |<r_e - r_h>| [Ang]:            0.000000
    Hole size [Ang]:                1.887817
      Cartesian components [Ang]: [  1.191340,   0.942439,   1.120880]
    Electron size [Ang]:            3.007885
      Cartesian components [Ang]: [  1.951335,   1.257621,   1.912604]
  
  Alpha spin:
    <r_h> [Ang]:                  [ -0.000000,   0.000000,  -0.000000]
    <r_e> [Ang]:                  [ -0.000000,  -0.000000,  -0.000000]
    |<r_e - r_h>| [Ang]:            0.000000
    Hole size [Ang]:                1.899303
      Cartesian components [Ang]: [  1.176855,   0.929527,   1.165480]
    Electron size [Ang]:            2.672451
      Cartesian components [Ang]: [  1.551323,   1.401533,   1.664662]
  
  Beta spin:
    <r_h> [Ang]:                  [ -0.000000,  -0.000000,  -0.000000]
    <r_e> [Ang]:                  [ -0.000000,   0.000000,   0.000000]
    |<r_e - r_h>| [Ang]:            0.000000
    Hole size [Ang]:                1.870712
      Cartesian components [Ang]: [  1.212433,   0.961207,   1.051498]
    Electron size [Ang]:            3.081365
      Cartesian components [Ang]: [  2.033895,   1.221370,   1.966300]
  ----------------------------------------------------------------------------


  Electron-attached state 3 (B2g)                                  [converged]
  ----------------------------------------------------------------------------
  Term symbol:  3 (2) B2g                                   R^2 =  3.89010e-07

  Total energy:                                            -78.1530860382 a.u.
  Electron attachment energy:                                      5.188540 eV

  Pole strength:                                                      0.042877

  Dip. moment [a.u.]:                  [   0.000000,   -0.000001,    0.000000]
  Total dipole [Debye]:                                               0.000002
  <r^2> [a.u.]:                        [  66.787758,   38.062919,   59.240094]
  Total <r^2> [a.u.]:                                               164.090771

  V1^2 = 0.0430, V2^2 = 0.9570

  Important amplitudes:
       occ i       vir a        vir b           v   
    -------------------------------------------------
     1 (B1u) A    2 (B1u) A    2 (B2g) B     -0.4693
     1 (B1u) A    2 (B1u) A    3 (B2g) B     -0.2551
    -------------------------------------------------

  Density matrix analysis:
  ------------------------
  NOs (alpha)
    Occupation of frontier NOs:
       0.1858   0.6504
    Number of electrons:  8.000000
  NOs (beta)
    Occupation of frontier NOs:
       0.3147   0.8150
    Number of electrons:  9.000000
  NOs (spin-traced)
    Occupation of frontier NOs:
       0.8441   1.0005
    Number of electrons: 17.000000
    Number of unpaired electrons: n_u =  3.10014, n_u,nl =  2.96331
    NO participation ratio (PR_NO):  3.795818
  
  
  Mulliken Population Analysis
  Atom  Charge (e)    Spin (e)  h+ (alpha)   h+ (beta)  e- (alpha)   e- (beta)
  ----------------------------------------------------------------------------
   1 C   -0.655491    0.490790    0.402980    0.080616   -0.401460   -0.569886
   2 C   -0.655491    0.490790    0.402980    0.080616   -0.401460   -0.569886
   3 H    0.077745    0.004605    0.001983    0.000658   -0.002743   -0.006023
   4 H    0.077749    0.004605    0.001983    0.000658   -0.002743   -0.006023
   5 H    0.077747    0.004605    0.001983    0.000658   -0.002743   -0.006023
   6 H    0.077742    0.004605    0.001983    0.000658   -0.002743   -0.006023
  ----------------------------------------------------------------------------
  Sum:   -1.000000    1.000000    0.813891    0.163864   -0.813891   -1.163864
  
  Multipole moment analysis of the density matrix
    Molecular charge:                      -1.000000
    Number of electrons:                   17.000000
      Center of electronic charge [Ang]: [ -0.000000,   0.000000,  -0.000000]
    Total nuclear charge:                  16.000000
      Center of nuclear charge [Ang]:    [  0.000000,   0.000000,   0.000000]
    Dipole moment [D]:                     0.000002
      Cartesian components [D]:          [  0.000000,  -0.000002,   0.000000]
    RMS size of the density [Ang]:         1.644064
      Cartesian components [Ang]:        [  1.048878,   0.791822,   0.987835]
  
  Exciton analysis of the difference density matrix
  Total:
    <r_h> [Ang]:                  [ -0.000000,   0.000000,   0.000000]
    <r_e> [Ang]:                  [  0.000000,   0.000000,  -0.000000]
    |<r_e - r_h>| [Ang]:            0.000000
    Hole size [Ang]:                1.320361
      Cartesian components [Ang]: [  0.777706,   0.547973,   0.915561]
    Electron size [Ang]:            3.536841
      Cartesian components [Ang]: [  1.727049,   1.549414,   2.669431]
  
  Alpha spin:
    <r_h> [Ang]:                  [ -0.000000,   0.000000,   0.000000]
    <r_e> [Ang]:                  [  0.000000,   0.000000,  -0.000000]
    |<r_e - r_h>| [Ang]:            0.000000
    Hole size [Ang]:                1.312643
      Cartesian components [Ang]: [  0.772101,   0.542345,   0.912554]
    Electron size [Ang]:            4.299605
      Cartesian components [Ang]: [  1.988614,   1.910100,   3.299021]
  
  Beta spin:
    <r_h> [Ang]:                  [ -0.000000,   0.000000,  -0.000000]
    <r_e> [Ang]:                  [  0.000000,   0.000000,  -0.000000]
    |<r_e - r_h>| [Ang]:            0.000000
    Hole size [Ang]:                1.358042
      Cartesian components [Ang]: [  0.804964,   0.575109,   0.930354]
    Electron size [Ang]:            2.886048
      Cartesian components [Ang]: [  1.517583,   1.236162,   2.120877]
  ----------------------------------------------------------------------------


  Electron-attached state 4 (B2g)                                  [converged]
  ----------------------------------------------------------------------------
  Term symbol:  4 (2) B2g                                   R^2 =  1.90244e-06

  Total energy:                                            -78.0886958027 a.u.
  Electron attachment energy:                                      6.940688 eV

  Pole strength:                                                      0.881719

  Dip. moment [a.u.]:                  [   0.000000,   -0.000001,   -0.000000]
  Total dipole [Debye]:                                               0.000002
  <r^2> [a.u.]:                        [  67.254783,   29.778922,   32.362448]
  Total <r^2> [a.u.]:                                               129.396153

  V1^2 = 0.8862, V2^2 = 0.1138

  Important amplitudes:
       occ i       vir a        vir b           v   
    -------------------------------------------------
                               3 (B2g) B     -0.9231
                               2 (B2g) B      0.1780
    -------------------------------------------------

  Density matrix analysis:
  ------------------------
  NOs (alpha)
    Occupation of frontier NOs:
       0.0431   0.9073
    Number of electrons:  8.000000
  NOs (beta)
    Occupation of frontier NOs:
       0.0801   0.8983
    Number of electrons:  9.000000
  NOs (spin-traced)
    Occupation of frontier NOs:
       0.1166   0.9058
    Number of electrons: 17.000000
    Number of unpaired electrons: n_u =  1.60556, n_u,nl =  1.14748
    NO participation ratio (PR_NO):  2.975028
  
  
  Mulliken Population Analysis
  Atom  Charge (e)    Spin (e)  h+ (alpha)   h+ (beta)  e- (alpha)   e- (beta)
  ----------------------------------------------------------------------------
   1 C   -0.585299    0.515268    0.096603    0.046108   -0.047747   -0.512521
   2 C   -0.585299    0.515268    0.096603    0.046108   -0.047747   -0.512521
   3 H    0.042648   -0.007634    0.000663    0.001107   -0.025091   -0.017901
   4 H    0.042653   -0.007634    0.000663    0.001107   -0.025091   -0.017901
   5 H    0.042650   -0.007634    0.000663    0.001107   -0.025091   -0.017901
   6 H    0.042646   -0.007634    0.000663    0.001107   -0.025091   -0.017901
  ----------------------------------------------------------------------------
  Sum:   -1.000000    1.000000    0.195858    0.096646   -0.195858   -1.096646
  
  Multipole moment analysis of the density matrix
    Molecular charge:                      -1.000000
    Number of electrons:                   17.000000
      Center of electronic charge [Ang]: [ -0.000000,   0.000000,   0.000000]
    Total nuclear charge:                  16.000000
      Center of nuclear charge [Ang]:    [  0.000000,   0.000000,   0.000000]
    Dipole moment [D]:                     0.000002
      Cartesian components [D]:          [  0.000000,  -0.000002,  -0.000000]
    RMS size of the density [Ang]:         1.459948
      Cartesian components [Ang]:        [  1.052539,   0.700376,   0.730125]
  
  Exciton analysis of the difference density matrix
  Total:
    <r_h> [Ang]:                  [ -0.000000,   0.000000,  -0.000000]
    <r_e> [Ang]:                  [  0.000000,   0.000000,   0.000000]
    |<r_e - r_h>| [Ang]:            0.000000
    Hole size [Ang]:                1.699026
      Cartesian components [Ang]: [  1.111415,   0.857870,   0.956820]
    Electron size [Ang]:            3.310436
      Cartesian components [Ang]: [  2.118309,   1.348363,   2.157236]
  
  Alpha spin:
    <r_h> [Ang]:                  [ -0.000000,   0.000000,  -0.000000]
    <r_e> [Ang]:                  [ -0.000000,  -0.000000,  -0.000000]
    |<r_e - r_h>| [Ang]:            0.000000
    Hole size [Ang]:                1.644002
      Cartesian components [Ang]: [  1.071555,   0.807075,   0.950338]
    Electron size [Ang]:            3.019007
      Cartesian components [Ang]: [  1.680623,   1.519049,   1.995595]
  
  Beta spin:
    <r_h> [Ang]:                  [  0.000000,  -0.000000,   0.000000]
    <r_e> [Ang]:                  [  0.000000,   0.000000,   0.000000]
    |<r_e - r_h>| [Ang]:            0.000000
    Hole size [Ang]:                1.805399
      Cartesian components [Ang]: [  1.188100,   0.952538,   0.969823]
    Electron size [Ang]:            3.359825
      Cartesian components [Ang]: [  2.187281,   1.315550,   2.184847]
  ----------------------------------------------------------------------------


  Electron-attached state 5 (B2g)                                  [converged]
  ----------------------------------------------------------------------------
  Term symbol:  5 (2) B2g                                   R^2 =  6.75353e-07

  Total energy:                                            -78.0487545305 a.u.
  Electron attachment energy:                                      8.027545 eV

  Pole strength:                                                      0.003195

  Dip. moment [a.u.]:                  [   0.000000,   -0.000001,   -0.000000]
  Total dipole [Debye]:                                               0.000002
  <r^2> [a.u.]:                        [ 105.712928,   45.686722,   34.584145]
  Total <r^2> [a.u.]:                                               185.983795

  V1^2 = 0.0032, V2^2 = 0.9968

  Important amplitudes:
       occ i       vir a        vir b           v   
    -------------------------------------------------
     1 (B1u) A    3 (B3u) A    5 (Ag ) B      0.4245
     1 (B1u) B    5 (Ag ) B    3 (B3u) B     -0.4150
    -------------------------------------------------

  Density matrix analysis:
  ------------------------
  NOs (alpha)
    Occupation of frontier NOs:
       0.4067   0.4683
    Number of electrons:  8.000000
  NOs (beta)
    Occupation of frontier NOs:
       0.4748   0.4973
    Number of electrons:  9.000000
  NOs (spin-traced)
    Occupation of frontier NOs:
       0.8493   0.8999
    Number of electrons: 17.000000
    Number of unpaired electrons: n_u =  3.28653, n_u,nl =  3.00826
    NO participation ratio (PR_NO):  4.424060
  
  
  Mulliken Population Analysis
  Atom  Charge (e)    Spin (e)  h+ (alpha)   h+ (beta)  e- (alpha)   e- (beta)
  ----------------------------------------------------------------------------
   1 C   -0.729492    0.572495    0.248077    0.244758   -0.242705   -0.811881
   2 C   -0.729492    0.572495    0.248077    0.244758   -0.242705   -0.811881
   3 H    0.114745   -0.036248    0.001480    0.001410   -0.004166    0.032152
   4 H    0.114749   -0.036247    0.001480    0.001410   -0.004166    0.032151
   5 H    0.114747   -0.036247    0.001480    0.001410   -0.004166    0.032151
   6 H    0.114743   -0.036248    0.001480    0.001410   -0.004166    0.032152
  ----------------------------------------------------------------------------
  Sum:   -1.000000    1.000000    0.502075    0.495157   -0.502075   -1.495157
  
  Multipole moment analysis of the density matrix
    Molecular charge:                      -1.000000
    Number of electrons:                   17.000000
      Center of electronic charge [Ang]: [ -0.000000,   0.000000,   0.000000]
    Total nuclear charge:                  16.000000
      Center of nuclear charge [Ang]:    [  0.000000,   0.000000,   0.000000]
    Dipole moment [D]:                     0.000002
      Cartesian components [D]:          [  0.000000,  -0.000002,  -0.000000]
    RMS size of the density [Ang]:         1.750307
      Cartesian components [Ang]:        [  1.319595,   0.867504,   0.754771]
  
  Exciton analysis of the difference density matrix
  Total:
    <r_h> [Ang]:                  [ -0.000000,   0.000000,   0.000000]
    <r_e> [Ang]:                  [ -0.000000,   0.000000,   0.000000]
    |<r_e - r_h>| [Ang]:            0.000000
    Hole size [Ang]:                1.253133
      Cartesian components [Ang]: [  0.748809,   0.511216,   0.865035]
    Electron size [Ang]:            3.922685
      Cartesian components [Ang]: [  2.897433,   1.851940,   1.887500]
  
  Alpha spin:
    <r_h> [Ang]:                  [ -0.000000,   0.000000,   0.000000]
    <r_e> [Ang]:                  [  0.000000,   0.000000,   0.000000]
    |<r_e - r_h>| [Ang]:            0.000000
    Hole size [Ang]:                1.250062
      Cartesian components [Ang]: [  0.747966,   0.509713,   0.862203]
    Electron size [Ang]:            4.677876
      Cartesian components [Ang]: [  3.596571,   2.128327,   2.101768]
  
  Beta spin:
    <r_h> [Ang]:                  [ -0.000000,   0.000000,   0.000000]
    <r_e> [Ang]:                  [ -0.000000,   0.000000,   0.000000]
    |<r_e - r_h>| [Ang]:            0.000000
    Hole size [Ang]:                1.256240
      Cartesian components [Ang]: [  0.749664,   0.512736,   0.867897]
    Electron size [Ang]:            3.634062
      Cartesian components [Ang]: [  2.621166,   1.749362,   1.809869]
  ----------------------------------------------------------------------------


  Electron-attached state 6 (B2g)                                  [converged]
  ----------------------------------------------------------------------------
  Term symbol:  6 (2) B2g                                   R^2 =  7.10842e-07

  Total energy:                                            -78.0370419218 a.u.
  Electron attachment energy:                                      8.346261 eV

  Pole strength:                                                      0.000203

  Dip. moment [a.u.]:                  [   0.000000,   -0.000001,   -0.000000]
  Total dipole [Debye]:                                               0.000002
  <r^2> [a.u.]:                        [ 107.106823,   47.870041,   35.953955]
  Total <r^2> [a.u.]:                                               190.930818

  V1^2 = 0.0002, V2^2 = 0.9998

  Important amplitudes:
       occ i       vir a        vir b           v   
    -------------------------------------------------
     1 (B1u) A    5 (Ag ) A    3 (B3u) B      0.4607
     1 (B1u) A    3 (B3u) A    5 (Ag ) B      0.2530
    -------------------------------------------------

  Density matrix analysis:
  ------------------------
  NOs (alpha)
    Occupation of frontier NOs:
       0.2102   0.4702
    Number of electrons:  8.000000
  NOs (beta)
    Occupation of frontier NOs:
       0.2436   0.6559
    Number of electrons:  9.000000
  NOs (spin-traced)
    Occupation of frontier NOs:
       0.7138   0.8658
    Number of electrons: 17.000000
    Number of unpaired electrons: n_u =  3.28697, n_u,nl =  2.98686
    NO participation ratio (PR_NO):  4.919534
  
  
  Mulliken Population Analysis
  Atom  Charge (e)    Spin (e)  h+ (alpha)   h+ (beta)  e- (alpha)   e- (beta)
  ----------------------------------------------------------------------------
   1 C   -0.697220    0.468721    0.392514    0.101527   -0.422893   -0.600627
   2 C   -0.697220    0.468721    0.392514    0.101527   -0.422893   -0.600627
   3 H    0.098609    0.015640    0.002329    0.000620    0.012860   -0.001071
   4 H    0.098613    0.015639    0.002329    0.000620    0.012860   -0.001071
   5 H    0.098611    0.015639    0.002329    0.000620    0.012860   -0.001071
   6 H    0.098607    0.015640    0.002329    0.000620    0.012860   -0.001071
  ----------------------------------------------------------------------------
  Sum:   -1.000000    1.000000    0.794345    0.205536   -0.794345   -1.205536
  
  Multipole moment analysis of the density matrix
    Molecular charge:                      -1.000000
    Number of electrons:                   17.000000
      Center of electronic charge [Ang]: [ -0.000000,   0.000000,   0.000000]
    Total nuclear charge:                  16.000000
      Center of nuclear charge [Ang]:    [  0.000000,   0.000000,   0.000000]
    Dipole moment [D]:                     0.000002
      Cartesian components [D]:          [  0.000000,  -0.000002,  -0.000000]
    RMS size of the density [Ang]:         1.773433
      Cartesian components [Ang]:        [  1.328267,   0.887991,   0.769573]
  
  Exciton analysis of the difference density matrix
  Total:
    <r_h> [Ang]:                  [ -0.000000,   0.000000,   0.000000]
    <r_e> [Ang]:                  [ -0.000000,   0.000000,   0.000000]
    |<r_e - r_h>| [Ang]:            0.000000
    Hole size [Ang]:                1.252876
      Cartesian components [Ang]: [  0.748451,   0.511122,   0.865029]
    Electron size [Ang]:            4.007683
      Cartesian components [Ang]: [  2.929104,   1.931619,   1.936680]
  
  Alpha spin:
    <r_h> [Ang]:                  [ -0.000000,   0.000000,   0.000000]
    <r_e> [Ang]:                  [ -0.000000,   0.000000,  -0.000000]
    |<r_e - r_h>| [Ang]:            0.000000
    Hole size [Ang]:                1.253640
      Cartesian components [Ang]: [  0.748642,   0.511429,   0.865787]
    Electron size [Ang]:            3.584528
      Cartesian components [Ang]: [  2.426687,   1.849366,   1.881455]
  
  Beta spin:
    <r_h> [Ang]:                  [ -0.000000,   0.000000,   0.000000]
    <r_e> [Ang]:                  [ -0.000000,   0.000000,   0.000000]
    |<r_e - r_h>| [Ang]:            0.000000
    Hole size [Ang]:                1.249921
      Cartesian components [Ang]: [  0.747709,   0.509933,   0.862093]
    Electron size [Ang]:            4.263615
      Cartesian components [Ang]: [  3.217558,   1.983953,   1.972223]
  ----------------------------------------------------------------------------


  Electron-attached state 7 (B2g)                                  [converged]
  ----------------------------------------------------------------------------
  Term symbol:  7 (2) B2g                                   R^2 =  8.41305e-07

  Total energy:                                            -78.0248554221 a.u.
  Electron attachment energy:                                      8.677873 eV

  Pole strength:                                                      0.001314

  Dip. moment [a.u.]:                  [   0.000000,   -0.000001,   -0.000000]
  Total dipole [Debye]:                                               0.000002
  <r^2> [a.u.]:                        [ 119.989331,   65.189235,   37.896957]
  Total <r^2> [a.u.]:                                               223.075523

  V1^2 = 0.0013, V2^2 = 0.9987

  Important amplitudes:
       occ i       vir a        vir b           v   
    -------------------------------------------------
     1 (B1u) B    4 (Ag ) B    3 (B3u) B      0.3758
     1 (B1u) B    2 (B1g) B    2 (B2u) B     -0.3206
    -------------------------------------------------

  Density matrix analysis:
  ------------------------
  NOs (alpha)
    Occupation of frontier NOs:
       0.1460   0.6087
    Number of electrons:  8.000000
  NOs (beta)
    Occupation of frontier NOs:
       0.3332   0.3972
    Number of electrons:  9.000000
  NOs (spin-traced)
    Occupation of frontier NOs:
       0.5327   0.5505
    Number of electrons: 17.000000
    Number of unpaired electrons: n_u =  3.28704, n_u,nl =  3.03828
    NO participation ratio (PR_NO):  6.124537
  
  
  Mulliken Population Analysis
  Atom  Charge (e)    Spin (e)  h+ (alpha)   h+ (beta)  e- (alpha)   e- (beta)
  ----------------------------------------------------------------------------
   1 C   -0.606531    0.460341    0.178663    0.315133   -0.167888   -0.764698
   2 C   -0.606531    0.460341    0.178663    0.315133   -0.167888   -0.764698
   3 H    0.053264    0.019830    0.001046    0.001841   -0.006434   -0.027058
   4 H    0.053269    0.019830    0.001046    0.001841   -0.006434   -0.027058
   5 H    0.053267    0.019830    0.001046    0.001841   -0.006434   -0.027058
   6 H    0.053262    0.019830    0.001046    0.001841   -0.006434   -0.027058
  ----------------------------------------------------------------------------
  Sum:   -1.000000    1.000000    0.361512    0.637629   -0.361512   -1.637629
  
  Multipole moment analysis of the density matrix
    Molecular charge:                      -1.000000
    Number of electrons:                   17.000000
      Center of electronic charge [Ang]: [ -0.000000,   0.000000,   0.000000]
    Total nuclear charge:                  16.000000
      Center of nuclear charge [Ang]:    [  0.000000,   0.000000,   0.000000]
    Dipole moment [D]:                     0.000002
      Cartesian components [D]:          [  0.000000,  -0.000002,  -0.000000]
    RMS size of the density [Ang]:         1.916914
      Cartesian components [Ang]:        [  1.405879,   1.036250,   0.790094]
  
  Exciton analysis of the difference density matrix
  Total:
    <r_h> [Ang]:                  [ -0.000000,   0.000000,   0.000000]
    <r_e> [Ang]:                  [ -0.000000,   0.000000,   0.000000]
    |<r_e - r_h>| [Ang]:            0.000000
    Hole size [Ang]:                1.256391
      Cartesian components [Ang]: [  0.749868,   0.512909,   0.867837]
    Electron size [Ang]:            4.535852
      Cartesian components [Ang]: [  3.223071,   2.481799,   2.006598]
  
  Alpha spin:
    <r_h> [Ang]:                  [ -0.000000,   0.000000,   0.000000]
    <r_e> [Ang]:                  [ -0.000000,   0.000000,   0.000000]
    |<r_e - r_h>| [Ang]:            0.000000
    Hole size [Ang]:                1.256068
      Cartesian components [Ang]: [  0.749900,   0.513046,   0.867260]
    Electron size [Ang]:            4.375212
      Cartesian components [Ang]: [  3.060924,   2.432764,   1.963387]
  
  Beta spin:
    <r_h> [Ang]:                  [ -0.000000,   0.000000,   0.000000]
    <r_e> [Ang]:                  [ -0.000000,   0.000000,   0.000000]
    |<r_e - r_h>| [Ang]:            0.000000
    Hole size [Ang]:                1.256575
      Cartesian components [Ang]: [  0.749850,   0.512831,   0.868164]
    Electron size [Ang]:            4.570553
      Cartesian components [Ang]: [  3.257779,   2.492494,   2.016013]
  ----------------------------------------------------------------------------


  Electron-attached state 8 (B2g)                                  [converged]
  ----------------------------------------------------------------------------
  Term symbol:  8 (2) B2g                                   R^2 =  1.19250e-06

  Total energy:                                            -78.0187278291 a.u.
  Electron attachment energy:                                      8.844613 eV

  Pole strength:                                                      0.007573

  Dip. moment [a.u.]:                  [   0.000000,   -0.000001,    0.000000]
  Total dipole [Debye]:                                               0.000002
  <r^2> [a.u.]:                        [  87.405263,   55.486633,   61.714850]
  Total <r^2> [a.u.]:                                               204.606746

  V1^2 = 0.0076, V2^2 = 0.9924

  Important amplitudes:
       occ i       vir a        vir b           v   
    -------------------------------------------------
     1 (B1u) B    1 (B2g) B    2 (B1u) B     -0.3967
     1 (B1u) A    1 (B2g) A    2 (B1u) B     -0.2924
    -------------------------------------------------

  Density matrix analysis:
  ------------------------
  NOs (alpha)
    Occupation of frontier NOs:
       0.2805   0.5510
    Number of electrons:  8.000000
  NOs (beta)
    Occupation of frontier NOs:
       0.4099   0.4205
    Number of electrons:  9.000000
  NOs (spin-traced)
    Occupation of frontier NOs:
       0.6907   0.7052
    Number of electrons: 17.000000
    Number of unpaired electrons: n_u =  3.31805, n_u,nl =  3.06695
    NO participation ratio (PR_NO):  5.384452
  
  
  Mulliken Population Analysis
  Atom  Charge (e)    Spin (e)  h+ (alpha)   h+ (beta)  e- (alpha)   e- (beta)
  ----------------------------------------------------------------------------
   1 C   -0.637067    0.480020    0.210922    0.279210   -0.205575   -0.753883
   2 C   -0.637067    0.480020    0.210922    0.279210   -0.205575   -0.753883
   3 H    0.068533    0.009990    0.001518    0.001997   -0.004191   -0.014660
   4 H    0.068537    0.009990    0.001518    0.001997   -0.004191   -0.014660
   5 H    0.068535    0.009990    0.001518    0.001997   -0.004191   -0.014660
   6 H    0.068530    0.009990    0.001518    0.001997   -0.004191   -0.014660
  ----------------------------------------------------------------------------
  Sum:   -1.000000    1.000000    0.427915    0.566407   -0.427915   -1.566407
  
  Multipole moment analysis of the density matrix
    Molecular charge:                      -1.000000
    Number of electrons:                   17.000000
      Center of electronic charge [Ang]: [ -0.000000,   0.000000,  -0.000000]
    Total nuclear charge:                  16.000000
      Center of nuclear charge [Ang]:    [  0.000000,   0.000000,   0.000000]
    Dipole moment [D]:                     0.000002
      Cartesian components [D]:          [  0.000000,  -0.000002,   0.000000]
    RMS size of the density [Ang]:         1.835848
      Cartesian components [Ang]:        [  1.199901,   0.956029,   1.008258]
  
  Exciton analysis of the difference density matrix
  Total:
    <r_h> [Ang]:                  [ -0.000000,   0.000000,   0.000000]
    <r_e> [Ang]:                  [  0.000000,   0.000000,  -0.000000]
    |<r_e - r_h>| [Ang]:            0.000000
    Hole size [Ang]:                1.265697
      Cartesian components [Ang]: [  0.757036,   0.520583,   0.870562]
    Electron size [Ang]:            4.247152
      Cartesian components [Ang]: [  2.417043,   2.194347,   2.716809]
  
  Alpha spin:
    <r_h> [Ang]:                  [ -0.000000,   0.000000,   0.000000]
    <r_e> [Ang]:                  [ -0.000000,   0.000000,  -0.000000]
    |<r_e - r_h>| [Ang]:            0.000000
    Hole size [Ang]:                1.263038
      Cartesian components [Ang]: [  0.756778,   0.519783,   0.867397]
    Electron size [Ang]:            3.875996
      Cartesian components [Ang]: [  2.500239,   1.974563,   2.207544]
  
  Beta spin:
    <r_h> [Ang]:                  [ -0.000000,   0.000000,   0.000000]
    <r_e> [Ang]:                  [  0.000000,   0.000000,  -0.000000]
    |<r_e - r_h>| [Ang]:            0.000000
    Hole size [Ang]:                1.267702
      Cartesian components [Ang]: [  0.757231,   0.521187,   0.872946]
    Electron size [Ang]:            4.343033
      Cartesian components [Ang]: [  2.393812,   2.250659,   2.840094]
  ----------------------------------------------------------------------------


  Electron-attached state 9 (B2g)                                  [converged]
  ----------------------------------------------------------------------------
  Term symbol:  9 (2) B2g                                   R^2 =  1.23928e-06

  Total energy:                                            -78.0063795804 a.u.
  Electron attachment energy:                                      9.180626 eV

  Pole strength:                                                      0.001039

  Dip. moment [a.u.]:                  [   0.000000,   -0.000001,   -0.000000]
  Total dipole [Debye]:                                               0.000001
  <r^2> [a.u.]:                        [ 105.609221,   65.937749,   40.785188]
  Total <r^2> [a.u.]:                                               212.332158

  V1^2 = 0.0010, V2^2 = 0.9990

  Important amplitudes:
       occ i       vir a        vir b           v   
    -------------------------------------------------
     1 (B1u) B    2 (B1g) B    2 (B2u) B     -0.3319
     1 (B1u) B    4 (Ag ) B    3 (B3u) B     -0.2708
    -------------------------------------------------

  Density matrix analysis:
  ------------------------
  NOs (alpha)
    Occupation of frontier NOs:
       0.1031   0.6023
    Number of electrons:  8.000000
  NOs (beta)
    Occupation of frontier NOs:
       0.3462   0.3661
    Number of electrons:  9.000000
  NOs (spin-traced)
    Occupation of frontier NOs:
       0.4456   0.4456
    Number of electrons: 17.000000
    Number of unpaired electrons: n_u =  3.30122, n_u,nl =  2.93457
    NO participation ratio (PR_NO):  6.632123
  
  
  Mulliken Population Analysis
  Atom  Charge (e)    Spin (e)  h+ (alpha)   h+ (beta)  e- (alpha)   e- (beta)
  ----------------------------------------------------------------------------
   1 C   -0.595870    0.446456    0.182684    0.309493   -0.173520   -0.746785
   2 C   -0.595870    0.446456    0.182684    0.309493   -0.173520   -0.746785
   3 H    0.047934    0.026772    0.001449    0.002202   -0.006031   -0.033556
   4 H    0.047938    0.026772    0.001449    0.002202   -0.006031   -0.033556
   5 H    0.047936    0.026772    0.001449    0.002202   -0.006031   -0.033556
   6 H    0.047931    0.026772    0.001449    0.002202   -0.006031   -0.033556
  ----------------------------------------------------------------------------
  Sum:   -1.000000    1.000000    0.371162    0.627794   -0.371162   -1.627794
  
  Multipole moment analysis of the density matrix
    Molecular charge:                      -1.000000
    Number of electrons:                   17.000000
      Center of electronic charge [Ang]: [ -0.000000,   0.000000,   0.000000]
    Total nuclear charge:                  16.000000
      Center of nuclear charge [Ang]:    [  0.000000,   0.000000,   0.000000]
    Dipole moment [D]:                     0.000001
      Cartesian components [D]:          [  0.000000,  -0.000001,  -0.000000]
    RMS size of the density [Ang]:         1.870185
      Cartesian components [Ang]:        [  1.318948,   1.042182,   0.819649]
  
  Exciton analysis of the difference density matrix
  Total:
    <r_h> [Ang]:                  [ -0.000000,   0.000000,   0.000000]
    <r_e> [Ang]:                  [  0.000000,   0.000000,   0.000000]
    |<r_e - r_h>| [Ang]:            0.000000
    Hole size [Ang]:                1.252858
      Cartesian components [Ang]: [  0.750941,   0.512881,   0.861797]
    Electron size [Ang]:            4.366494
      Cartesian components [Ang]: [  2.894034,   2.502941,   2.103835]
  
  Alpha spin:
    <r_h> [Ang]:                  [ -0.000000,   0.000000,   0.000000]
    <r_e> [Ang]:                  [  0.000000,   0.000000,  -0.000000]
    |<r_e - r_h>| [Ang]:            0.000000
    Hole size [Ang]:                1.252458
      Cartesian components [Ang]: [  0.751780,   0.513436,   0.860152]
    Electron size [Ang]:            4.175236
      Cartesian components [Ang]: [  2.857385,   2.380756,   1.897352]
  
  Beta spin:
    <r_h> [Ang]:                  [ -0.000000,   0.000000,   0.000000]
    <r_e> [Ang]:                  [ -0.000000,   0.000000,   0.000000]
    |<r_e - r_h>| [Ang]:            0.000000
    Hole size [Ang]:                1.253094
      Cartesian components [Ang]: [  0.750444,   0.512552,   0.862768]
    Electron size [Ang]:            4.408943
      Cartesian components [Ang]: [  2.902325,   2.529975,   2.148140]
  ----------------------------------------------------------------------------


  Electron-attached state 10 (B2g)                                  [converged]
  ----------------------------------------------------------------------------
  Term symbol:  10 (2) B2g                                  R^2 =  7.07969e-06

  Total energy:                                            -77.9891392114 a.u.
  Electron attachment energy:                                      9.649760 eV

  Pole strength:                                                      0.002060

  Dip. moment [a.u.]:                  [   0.000000,   -0.000000,    0.000000]
  Total dipole [Debye]:                                               0.000001
  <r^2> [a.u.]:                        [  99.740454,   79.675518,   42.040006]
  Total <r^2> [a.u.]:                                               221.455977

  V1^2 = 0.0021, V2^2 = 0.9979

  Important amplitudes:
       occ i       vir a        vir b           v   
    -------------------------------------------------
     1 (B1u) A    2 (B2u) A    2 (B1g) B     -0.3775
     1 (B1u) A    2 (B1g) A    2 (B2u) B     -0.3686
    -------------------------------------------------

  Density matrix analysis:
  ------------------------
  NOs (alpha)
    Occupation of frontier NOs:
       0.3532   0.3612
    Number of electrons:  8.000000
  NOs (beta)
    Occupation of frontier NOs:
       0.3550   0.3600
    Number of electrons:  9.000000
  NOs (spin-traced)
    Occupation of frontier NOs:
       0.7132   0.7161
    Number of electrons: 17.000000
    Number of unpaired electrons: n_u =  3.29211, n_u,nl =  2.97399
    NO participation ratio (PR_NO):  5.420561
  
  
  Mulliken Population Analysis
  Atom  Charge (e)    Spin (e)  h+ (alpha)   h+ (beta)  e- (alpha)   e- (beta)
  ----------------------------------------------------------------------------
   1 C   -0.587965    0.492264    0.477638    0.015644   -0.441617   -0.471888
   2 C   -0.587965    0.492264    0.477638    0.015644   -0.441617   -0.471888
   3 H    0.043982    0.003868    0.002900    0.000243   -0.020910   -0.022121
   4 H    0.043986    0.003868    0.002900    0.000243   -0.020910   -0.022121
   5 H    0.043983    0.003868    0.002900    0.000243   -0.020910   -0.022121
   6 H    0.043979    0.003868    0.002900    0.000243   -0.020910   -0.022121
  ----------------------------------------------------------------------------
  Sum:   -1.000000    1.000000    0.966875    0.032261   -0.966875   -1.032261
  
  Multipole moment analysis of the density matrix
    Molecular charge:                      -1.000000
    Number of electrons:                   17.000000
      Center of electronic charge [Ang]: [ -0.000000,   0.000000,  -0.000000]
    Total nuclear charge:                  16.000000
      Center of nuclear charge [Ang]:    [  0.000000,   0.000000,   0.000000]
    Dipole moment [D]:                     0.000001
      Cartesian components [D]:          [  0.000000,  -0.000001,   0.000000]
    RMS size of the density [Ang]:         1.909943
      Cartesian components [Ang]:        [  1.281777,   1.145616,   0.832162]
  
  Exciton analysis of the difference density matrix
  Total:
    <r_h> [Ang]:                  [ -0.000000,   0.000000,   0.000000]
    <r_e> [Ang]:                  [  0.000000,  -0.000000,  -0.000000]
    |<r_e - r_h>| [Ang]:            0.000000
    Hole size [Ang]:                1.256964
      Cartesian components [Ang]: [  0.750849,   0.514143,   0.867087]
    Electron size [Ang]:            4.510861
      Cartesian components [Ang]: [  2.748198,   2.861667,   2.146190]
  
  Alpha spin:
    <r_h> [Ang]:                  [ -0.000000,   0.000000,   0.000000]
    <r_e> [Ang]:                  [  0.000000,  -0.000000,  -0.000000]
    |<r_e - r_h>| [Ang]:            0.000000
    Hole size [Ang]:                1.255472
      Cartesian components [Ang]: [  0.749767,   0.512792,   0.866663]
    Electron size [Ang]:            4.514221
      Cartesian components [Ang]: [  2.715544,   2.906088,   2.135103]
  
  Beta spin:
    <r_h> [Ang]:                  [  0.000000,   0.000000,   0.000000]
    <r_e> [Ang]:                  [  0.000000,  -0.000000,  -0.000000]
    |<r_e - r_h>| [Ang]:            0.000000
    Hole size [Ang]:                1.300866
      Cartesian components [Ang]: [  0.782573,   0.553112,   0.879715]
    Electron size [Ang]:            4.507712
      Cartesian components [Ang]: [  2.778436,   2.819426,   2.156524]
  ----------------------------------------------------------------------------


--------------------------------------------------------------------------------
  Time of ADC calculation:  CPU 197.42 s  wall 45.58 s
================================================================================
 
 --------------------------------------------------------------
             Orbital Energies (a.u.) and Symmetries
 --------------------------------------------------------------
 
 Alpha MOs, Restricted
 -- Occupied --                  
-11.237 -11.235  -1.042  -0.782  -0.661  -0.567  -0.515  -0.377
  1 Ag    1 B3u   2 Ag    2 B3u   1 B2u   3 Ag    1 B1g   1 B1u                
 -- Virtual --                   
  0.045   0.046   0.053   0.065   0.066   0.067   0.105   0.137
  3 B3u   2 B2u   2 B1u   2 B1g   1 B2g   4 Ag    5 Ag    2 B2g                
  0.164   0.188   0.206   0.214   0.221   0.245   0.266   0.290
  4 B3u   3 B2u   3 B1g   3 B1u   6 Ag    5 B3u   7 Ag    3 B2g                
  0.342   0.350   0.490   0.526   0.719   0.805   0.862   0.894
  4 B2u   6 B3u   4 B1g   7 B3u   8 Ag    5 B2u   9 Ag    6 B2u                
  0.904   0.932   0.956   0.976   1.031   1.061   1.114   1.284
  4 B1u   8 B3u   4 B2g   9 B3u  10 Ag    5 B1g   1 B3g   5 B1u                
  1.284   1.332   1.346   1.609   1.615   1.702   1.853   1.912
  1 Au   10 B3u   6 B1g  11 Ag    7 B1g   7 B2u   5 B2g  11 B3u                
  1.939   1.998   2.017   2.051   2.172   2.304   2.412   2.445
  6 B1u  12 Ag    2 B3g   8 B2u   6 B2g  12 B3u   2 Au   13 Ag                 
  2.559   2.570   2.799   2.802   3.253   3.340
  8 B1g  13 B3u   9 B2u  14 Ag   14 B3u   9 B1g                                
 
 Beta MOs, Restricted
 -- Occupied --                  
-11.237 -11.235  -1.042  -0.782  -0.661  -0.567  -0.515  -0.377
  1 Ag    1 B3u   2 Ag    2 B3u   1 B2u   3 Ag    1 B1g   1 B1u                
 -- Virtual --                   
  0.045   0.046   0.053   0.065   0.066   0.067   0.105   0.137
  3 B3u   2 B2u   2 B1u   2 B1g   1 B2g   4 Ag    5 Ag    2 B2g                
  0.164   0.188   0.206   0.214   0.221   0.245   0.266   0.290
  4 B3u   3 B2u   3 B1g   3 B1u   6 Ag    5 B3u   7 Ag    3 B2g                
  0.342   0.350   0.490   0.526   0.719   0.805   0.862   0.894
  4 B2u   6 B3u   4 B1g   7 B3u   8 Ag    5 B2u   9 Ag    6 B2u                
  0.904   0.932   0.956   0.976   1.031   1.061   1.114   1.284
  4 B1u   8 B3u   4 B2g   9 B3u  10 Ag    5 B1g   1 B3g   5 B1u                
  1.284   1.332   1.346   1.609   1.615   1.702   1.853   1.912
  1 Au   10 B3u   6 B1g  11 Ag    7 B1g   7 B2u   5 B2g  11 B3u                
  1.939   1.998   2.017   2.051   2.172   2.304   2.412   2.445
  6 B1u  12 Ag    2 B3g   8 B2u   6 B2g  12 B3u   2 Au   13 Ag                 
  2.559   2.570   2.799   2.802   3.253   3.340
  8 B1g  13 B3u   9 B2u  14 Ag   14 B3u   9 B1g                                
 --------------------------------------------------------------
 
          Ground-State Mulliken Net Atomic Charges

     Atom                 Charge (a.u.)
  ----------------------------------------
      1 C                    -0.153364
      2 C                    -0.153364
      3 H                     0.076681
      4 H                     0.076686
      5 H                     0.076683
      6 H                     0.076678
  ----------------------------------------
  Sum of atomic charges =     0.000000

 -----------------------------------------------------------------
                    Cartesian Multipole Moments
 -----------------------------------------------------------------
    Charge (ESU x 10^10)
                -0.0000
    Dipole Moment (Debye)
         X       0.0000      Y      -0.0000      Z      -0.0000
       Tot       0.0000
    Quadrupole Moments (Debye-Ang)
        XX     -12.9292     XY       0.0000     YY     -11.9629
        XZ       0.0000     YZ      -0.0000     ZZ     -16.1200
    Octopole Moments (Debye-Ang^2)
       XXX       0.0000    XXY      -0.0000    XYY       0.0000
       YYY      -0.0000    XXZ      -0.0000    XYZ       0.0000
       YYZ      -0.0000    XZZ       0.0000    YZZ      -0.0000
       ZZZ      -0.0000
    Hexadecapole Moments (Debye-Ang^3)
      XXXX     -68.0830   XXXY       0.0000   XXYY     -13.2214
      XYYY       0.0000   YYYY     -26.8200   XXXZ       0.0000
      XXYZ       0.0000   XYYZ       0.0000   YYYZ      -0.0000
      XXZZ     -15.5032   XYZZ      -0.0000   YYZZ      -8.8893
      XZZZ       0.0000   YZZZ      -0.0000   ZZZZ     -21.2391
 -----------------------------------------------------------------
 Total job time:  129.35s(wall), 240.24s(cpu) 
 Sun Mar 27 21:31:06 2022

        *************************************************************
        *                                                           *
        *  Thank you very much for using Q-Chem.  Have a nice day.  *
        *                                                           *
        *************************************************************


