This is a multi-thread run using 8 threads
/src/tsommerfeld/qchem/exe/qcprog.exe .input1.5.12533.qcin.1 /src/jdavis/qchem.scratch/qchem12533/

                  Welcome to Q-Chem
     A Quantum Leap Into The Future Of Chemistry


 Q-Chem 5.4 (devel), Q-Chem, Inc., Pleasanton, CA (2021)

 E. Epifanovsky,  A. T. B. Gilbert,  Xintian Feng,  Joonho Lee,  Yuezhi Mao,  
 N. Mardirossian,  P. Pokhilko,  A. White,  M. Wormit,  M. P. Coons,  
 A. L. Dempwolff,  Zhengting Gan,  D. Hait,  P. R. Horn,  L. D. Jacobson,  
 I. Kaliman,  J. Kussmann,  A. W. Lange,  Ka Un Lao,  D. S. Levine,  Jie Liu,  
 S. C. McKenzie,  A. F. Morrison,  K. Nanda,  F. Plasser,  D. R. Rehn,  
 M. L. Vidal,  Zhi-Qiang You,  Ying Zhu,  B. Alam,  B. Albrecht,  
 A. Aldossary,  E. Alguire,  J. H. Andersen,  D. Barton,  K. Begam,  A. Behn,  
 Y. A. Bernard,  E. J. Berquist,  H. Burton,  A. Carreras,  K. Carter-Fenk,  
 R. Chakraborty,  A. D. Chien,  K. D. Closser,  V. Cofer-Shabica,  
 S. Dasgupta,  Jia Deng,  M. de Wergifosse,  M. Diedenhofen,  Hainam Do,  
 S. Ehlert,  Po-Tung Fang,  S. Fatehi,  Qingguo Feng,  T. Friedhoff,  
 J. Gayvert,  Qinghui Ge,  G. Gidofalvi,  M. Goldey,  J. Gomes,  
 C. Gonzalez-Espinoza,  S. Gulania,  A. Gunina,  M. W. D. Hanson-Heine,  
 P. H. P. Harbach,  A. W. Hauser,  M. F. Herbst,  M. Hernandez Vera,  
 M. Hodecker,  Z. C. Holden,  S. Houck,  Xunkun Huang,  Kerwin Hui,  
 B. C. Huynh,  M. Ivanov,  Hyunjun Ji,  Hanjie Jiang,  B. Kaduk,  S. Kaehler,  
 K. Khistyaev,  Jaehoon Kim,  P. Klunzinger,  Z. Koczor-Benda,  
 Joong Hoon Koh,  D. Kosenkov,  L. Koulias,  T. Kowalczyk,  C. M. Krauter,  
 K. Kue,  A. Kunitsa,  T. Kus,  A. Landau,  K. V. Lawler,  D. Lefrancois,  
 S. Lehtola,  Rain Li,  Yi-Pei Li,  Jiashu Liang,  M. Liebenthal,  
 Hung-Hsuan Lin,  You-Sheng Lin,  Fenglai Liu,  Kuan-Yu Liu,  
 M. Loipersberger,  A. Luenser,  A. Manjanath,  P. Manohar,  E. Mansoor,  
 S. F. Manzer,  Shan-Ping Mao,  A. V. Marenich,  T. Markovich,  S. Mason,  
 S. A. Maurer,  P. F. McLaughlin,  M. F. S. J. Menger,  J.-M. Mewes,  
 S. A. Mewes,  P. Morgante,  J. W. Mullinax,  K. J. Oosterbaan,  G. Paran,  
 Alexander C. Paul,  Suranjan K. Paul,  F. Pavosevic,  Zheng Pei,  S. Prager,  
 E. I. Proynov,  E. Ramos,  B. Rana,  A. E. Rask,  A. Rettig,  R. M. Richard,  
 F. Rob,  E. Rossomme,  T. Scheele,  M. Scheurer,  M. Schneider,  
 N. Sergueev,  S. M. Sharada,  W. Skomorowski,  D. W. Small,  C. J. Stein,  
 Yu-Chuan Su,  E. J. Sundstrom,  Zhen Tao,  J. Thirman,  T. Tsuchimochi,  
 N. M. Tubman,  S. P. Veccham,  O. Vydrov,  J. Wenzel,  J. Witte,  A. Yamada,  
 Kun Yao,  S. Yeganeh,  S. R. Yost,  A. Zech,  Igor Ying Zhang,  Xing Zhang,  
 Yu Zhang,  D. Zuev,  A. Aspuru-Guzik,  A. T. Bell,  N. A. Besley,  
 K. B. Bravaya,  B. R. Brooks,  D. Casanova,  Jeng-Da Chai,  S. Coriani,  
 C. J. Cramer,  A. E. DePrince, III,  R. A. DiStasio Jr.,  A. Dreuw,  
 B. D. Dunietz,  T. R. Furlani,  W. A. Goddard III,  S. Grimme,  
 S. Hammes-Schiffer,  T. Head-Gordon,  W. J. Hehre,  Chao-Ping Hsu,  
 T.-C. Jagau,  Yousung Jung,  A. Klamt,  Jing Kong,  D. S. Lambrecht,  
 WanZhen Liang,  N. J. Mayhall,  C. W. McCurdy,  J. B. Neaton,  
 C. Ochsenfeld,  J. A. Parkhill,  R. Peverati,  V. A. Rassolov,  Yihan Shao,  
 L. V. Slipchenko,  T. Stauch,  R. P. Steele,  J. E. Subotnik,  
 A. J. W. Thom,  A. Tkatchenko,  D. G. Truhlar,  T. Van Voorhis,  
 T. A. Wesolowski,  K. B. Whaley,  H. L. Woodcock III,  P. M. Zimmerman,  
 S. Faraji,  P. M. W. Gill,  M. Head-Gordon,  J. M. Herbert,  A. I. Krylov

 Additional authors for Version 5.4.1: 
 S. Kotaru,  Shaozhi Li,  Xiangyuan Li,  F. Matz,  A. Molle,  Haisheng Ren,  
 Yingli Su,  Hung-Yi Tsai,  C. Utku,  Fang Wang

 Contributors to earlier versions of Q-Chem not listed above: 
 R. D. Adamson,  B. Austin,  R. Baer,  J. Baker,  G. J. O. Beran,  
 K. Brandhorst,  S. T. Brown,  E. F. C. Byrd,  A. K. Chakraborty,  
 G. K. L. Chan,  Chun-Min Chang,  Yunqing Chen,  C.-L. Cheng,  
 Siu Hung Chien,  D. M. Chipman,  D. L. Crittenden,  H. Dachsel,  
 R. J. Doerksen,  A. D. Dutoi,  R. G. Edgar,  J. Fosso-Tande,  
 L. Fusti-Molnar,  D. Ghosh,  A. Ghysels,  A. Golubeva-Zadorozhnaya,  
 J. Gonthier,  M. S. Gordon,  S. R. Gwaltney,  G. Hawkins,  J. E. Herr,  
 A. Heyden,  S. Hirata,  E. G. Hohenstein,  G. Kedziora,  F. J. Keil,  
 C. Kelley,  Jihan Kim,  R. A. King,  R. Z. Khaliullin,  P. P. Korambath,  
 W. Kurlancheek,  A. Laurent,  A. M. Lee,  M. S. Lee,  S. V. Levchenko,  
 Ching Yeh Lin,  D. Liotard,  E. Livshits,  R. C. Lochan,  I. Lotan,  
 L. A. Martinez-Martinez,  P. E. Maslen,  N. Nair,  D. P. O'Neill,  
 D. Neuhauser,  E. Neuscamman,  C. M. Oana,  R. Olivares-Amaya,  R. Olson,  
 T. M. Perrine,  B. Peters,  P. A. Pieniazek,  A. Prociuk,  Y. M. Rhee,  
 J. Ritchie,  M. A. Rohrdanz,  E. Rosta,  N. J. Russ,  H. F. Schaefer III,  
 M. W. Schmidt,  N. E. Schultz,  S. Sharma,  N. Shenvi,  C. D. Sherrill,  
 A. C. Simmonett,  A. Sodt,  T. Stein,  D. Stuck,  K. S. Thanthiriwatte,  
 V. Vanovschi,  L. Vogt,  Tao Wang,  A. Warshel,  M. A. Watson,  
 C. F. Williams,  Q. Wu,  X. Xu,  Jun Yang,  W. Zhang,  Yan Zhao

 Please cite Q-Chem as follows:
 Y. Shao et al., Mol. Phys. 113, 184-215 (2015)
 DOI: 10.1080/00268976.2014.952696

 Q-Chem 5.4.1 for Intel X86 EM64T Linux

 Parts of Q-Chem use Armadillo 9.900.5 (Nocturnal Misbehaviour).
 http://arma.sourceforge.net/

 Q-Chem begins on Sun Mar 27 22:27:44 2022  

 Host: node01
0

     Scratch files written to /src/jdavis/qchem.scratch/qchem12533//
 Processing $rem in /src/tsommerfeld/qchem/config/preferences:
 Processing $rem in /home/jdavis/.qchemrc:

 Checking the input file for inconsistencies... 	...done.

--------------------------------------------------------------
User input:
--------------------------------------------------------------
$molecule
0 1
C        -0.6645000000    0.0000000000   -0.2082049804
C         0.6645000000    0.0000000000   -0.2082049804
H        -1.1590800000    0.0000000000    0.7541440196
H         1.1590800000    0.0000000000    0.7541440196
H        -1.1590800000    0.0000000000   -1.1705529804
H         1.1590800000    0.0000000000   -1.1705529804
$end

$rem
   METHOD adc(3)
   BASIS gen
   PURECART 11
   EA_STATES [0,0,10,0,0,0,0,0]
   scf_convergence 8
   ADC_DAVIDSON_MAXITER 120
   ADC_DAVIDSON_MAXSUBSPACE 200
   adc_nguess_singles 100
   THRESH 14
   S2THRESH 14
   adc_davidson_conv 5
   adc_davidson_thresh 14
   THREADS 10
   MEM_TOTAL 95000
   STATE_ANALYSIS TRUE
$end
$basis
C 1
S   9   1.00
      6.665000D+03           6.920000D-04
      1.000000D+03           5.329000D-03
      2.280000D+02           2.707700D-02
      6.471000D+01           1.017180D-01
      2.106000D+01           2.747400D-01
      7.495000D+00           4.485640D-01
      2.797000D+00           2.850740D-01
      5.215000D-01           1.520400D-02
      1.596000D-01          -3.191000D-03
S   9   1.00
      6.665000D+03          -1.460000D-04
      1.000000D+03          -1.154000D-03
      2.280000D+02          -5.725000D-03
      6.471000D+01          -2.331200D-02
      2.106000D+01          -6.395500D-02
      7.495000D+00          -1.499810D-01
      2.797000D+00          -1.272620D-01
      5.215000D-01           5.445290D-01
      1.596000D-01           5.804960D-01
S   1   1.00
      1.596000D-01           1.000000D+00
S   1   1.00
      0.0469000              1.0000000
P   4   1.00
      9.439000D+00           3.810900D-02
      2.002000D+00           2.094800D-01
      5.456000D-01           5.085570D-01
      1.517000D-01           4.688420D-01
P   1   1.00
      1.517000D-01           1.000000D+00
P   1   1.00
      0.09102      1.0000000
P   1   1.00
      0.04551      1.0000000
D   1   1.00
      5.500000D-01           1.0000000
****
C 2
S   9   1.00
      6.665000D+03           6.920000D-04
      1.000000D+03           5.329000D-03
      2.280000D+02           2.707700D-02
      6.471000D+01           1.017180D-01
      2.106000D+01           2.747400D-01
      7.495000D+00           4.485640D-01
      2.797000D+00           2.850740D-01
      5.215000D-01           1.520400D-02
      1.596000D-01          -3.191000D-03
S   9   1.00
      6.665000D+03          -1.460000D-04
      1.000000D+03          -1.154000D-03
      2.280000D+02          -5.725000D-03
      6.471000D+01          -2.331200D-02
      2.106000D+01          -6.395500D-02
      7.495000D+00          -1.499810D-01
      2.797000D+00          -1.272620D-01
      5.215000D-01           5.445290D-01
      1.596000D-01           5.804960D-01
S   1   1.00
      1.596000D-01           1.000000D+00
S   1   1.00
      0.0469000              1.0000000
P   4   1.00
      9.439000D+00           3.810900D-02
      2.002000D+00           2.094800D-01
      5.456000D-01           5.085570D-01
      1.517000D-01           4.688420D-01
P   1   1.00
      1.517000D-01           1.000000D+00
P   1   1.00
      0.09102      1.0000000
P   1   1.00
      0.04551      1.0000000
D   1   1.00
      5.500000D-01           1.0000000
****
H 3
cc-pVDZ
****
H 4
cc-pVDZ
****
H 5
cc-pVDZ
****
H 6
cc-pVDZ
****
H 7
aug-cc-pVDZ
****
$end
--------------------------------------------------------------
 Atom   2: ( -0.6645000000, -0.0000001250,  0.0000000000)
         ->( -0.6645000000,  0.0000001250, -0.0000000000)
 Atom   1: (  0.6645000000, -0.0000001250, -0.0000000000)
         ->(  0.6645000000,  0.0000000000,  0.0000000000)
 Atom   6: ( -1.1590800000, -0.9623481250, -0.0000000000)
         ->( -1.1590800000, -0.9623488750,  0.0000000000)
 Atom   5: (  1.1590800000, -0.9623481250, -0.0000000000)
         ->(  1.1590800000, -0.9623488750, -0.0000000000)
 ----------------------------------------------------------------
             Standard Nuclear Orientation (Angstroms)
    I     Atom           X                Y                Z
 ----------------------------------------------------------------
    1      C       0.6645000000     0.0000000000     0.0000000000
    2      C      -0.6645000000     0.0000001250    -0.0000000000
    3      H       1.1590800000     0.9623488750     0.0000000000
    4      H      -1.1590800000     0.9623488750     0.0000000000
    5      H       1.1590800000    -0.9623488750    -0.0000000000
    6      H      -1.1590800000    -0.9623488750     0.0000000000
 ----------------------------------------------------------------
 Molecular Point Group                 D2h   NOp =  8
 Largest Abelian Subgroup              D2h   NOp =  8
 Nuclear Repulsion Energy =          33.58921667 hartrees
 There are        8 alpha and        8 beta electrons
 Requested basis set is non-standard
 There are 30 shells and 62 basis functions
 Total memory of 95000 MB is distributed as follows: 
   MEM_STATIC is set to 192 MB
   QALLOC/CCMAN JOB total memory use is  94808 MB
 Warning: actual memory use might exceed 95000 MB

 Total QAlloc Memory Limit  95000 MB
 Mega-Array Size       188 MB
 MEM_STATIC part       192 MB

                       Distance Matrix (Angstroms)
             C (  1)   C (  2)   H (  3)   H (  4)   H (  5)
   C (  2)  1.329000
   H (  3)  1.082000  2.061931
   H (  4)  2.061931  1.082000  2.318160
   H (  5)  1.082000  2.061931  1.924698  3.013026
   H (  6)  2.061931  1.082000  3.013026  1.924698  2.318160
 
 A cutoff of  1.0D-14 yielded    465 shell pairs
 There are      2009 function pairs (      2146 Cartesian)
 Smallest overlap matrix eigenvalue = 1.93E-04

 Scale SEOQF with 1.000000e-01/1.000000e-01/1.000000e-01

 Standard Electronic Orientation quadrupole field applied
 Nucleus-field energy     =     0.0000000006 hartrees
 ================ Generating on-the-fly SAD Guess ================
Attempting to make child job directory: /src/jdavis/qchem.scratch/qchem12533//Frg1/
Attempting to make child job directory: /src/jdavis/qchem.scratch/qchem12533//Frg2/
Creating input file /src/jdavis/qchem.scratch/qchem12533/Frg1.input
using default PutDataFrgm: nothing
calling putenv with: QCSCRATCH=/src/jdavis/qchem.scratch/qchem12533/ 
Spawning Job For Fragment 0
Done Job For Fragment 0
calling putenv with: QCSCRATCH=/src/jdavis/qchem.scratch 
calling putenv with: QCTHREADS=8 
Creating input file /src/jdavis/qchem.scratch/qchem12533/Frg2.input
using default PutDataFrgm: nothing
calling putenv with: QCSCRATCH=/src/jdavis/qchem.scratch/qchem12533/ 
Spawning Job For Fragment 1
Done Job For Fragment 1
calling putenv with: QCSCRATCH=/src/jdavis/qchem.scratch 
calling putenv with: QCTHREADS=8 
 Time for running child jobs:  CPU 1.77 s  wall 55.47 s
 ============= Method Specific SAD Guess Constructed =============
 Guess from on-the-fly superposition of atomic densities
 Warning: Energy on first SCF cycle will be non-variational
 A restricted Hartree-Fock SCF calculation will be
 performed using Pulay DIIS extrapolation
 SCF converges when DIIS error is below 1.0E-08
 using 10 threads for integral computing
 -------------------------------------------------------
 OpenMP Integral computing Module                
 Release: version 1.0, May 2013, Q-Chem Inc. Pittsburgh 
 -------------------------------------------------------
 ---------------------------------------
  Cycle       Energy         DIIS Error
 ---------------------------------------
    1     -78.4591326582      7.95E-02
    2     -78.0145467243      5.76E-03
    3     -78.0358319920      1.51E-03
    4     -78.0374680548      5.02E-04
    5     -78.0376379291      6.07E-05
    6     -78.0376426919      1.29E-05
    7     -78.0376430802      3.05E-06
    8     -78.0376431519      2.77E-07
    9     -78.0376431588      3.54E-08
   10     -78.0376431593      3.71E-09 Convergence criterion met
 ---------------------------------------
 SCF time:  CPU 8.69 s  wall 0.87 s
 SCF   energy in the final basis set = -78.03764316
 Total energy in the final basis set = -78.03764316
================================================================================
|                                                                              |
|                                 A D C  M A N                                 |
|                                                                              |
 ------------------------------------------------------------------------------ 
|                                                                              |
| Components:                                                                  |
|                                                                              |
| - libvmm - 1.3-trunk                                                         |
|   Authors:                                                                   |
|   Evgeny Epifanovsky, Ilya Kaliman                                           |
|                                                                              |
| - libtensor - 2.5-trunk                                                      |
|   Authors:                                                                   |
|   Evgeny Epifanovsky, Michael Wormit, Dmitry Zuev, Sam Manzer,               |
|   Ilya Kaliman                                                               |
|                                                                              |
| - libwfa - 1.1-trunk                                                         |
|   Authors:                                                                   |
|   Felix Plasser, Stefanie Mewes (Baeppler), Benjamin Thomitzni,              |
|   Michael Wormit, Feng Chen, Anna I. Krylov, Pavel Pokhilko                  |
|                                                                              |
| - libadc - 1.1-trunk                                                         |
|   Authors:                                                                   |
|   Michael Wormit, Adrian L. Dempwolff, Philipp H. P. Harbach,                |
|   Caroline Krauter, Dirk Rehn, Matthias Schneider, Jan Wenzel                |
|                                                                              |
| - adcman - 2.6-trunk                                                         |
|   Authors:                                                                   |
|   Michael Wormit, Adrian L. Dempwolff, Philipp H. P. Harbach,                |
|   Caroline Krauter, Daniel Lefrancois, Jan-Michael Mewes, Dirk Rehn,         |
|   Matthias Schneider, Jan Wenzel, Andreas Dreuw                              |
|                                                                              |
| Authors of earlier versions of ADCMAN:                                       |
| Andreas Dreuw, Jan Hendrik Starcke, Dirk Rehn, Michael Wormit                |
|                                                                              |
================================================================================

 
 Alpha MOs, Restricted
 -- Occupied --                  
-11.237 -11.235  -1.042  -0.782  -0.660  -0.567  -0.515  -0.377
  1 Ag    1 B3u   2 Ag    2 B3u   1 B2u   3 Ag    1 B1g   1 B1u                
 -- Virtual --                   
  0.084   0.092   0.094   0.104   0.107   0.130   0.147   0.198
  3 B3u   4 Ag    2 B2u   1 B2g   2 B1u   2 B1g   5 Ag    2 B2g                
  0.216   0.262   0.325   0.338   0.359   0.379   0.379   0.396
  4 B3u   6 Ag    3 B2u   5 B3u   6 B3u   4 B2u   7 Ag    3 B1u                
  0.414   0.482   0.544   0.619   0.839   0.848   0.930   0.988
  3 B1g   3 B2g   4 B1g   7 B3u   8 Ag    5 B2u   8 B3u   9 Ag                 
  1.030   1.090   1.113   1.114   1.149   1.179   1.228   1.285
  5 B1g  10 Ag    6 B2u   1 B3g   9 B3u   4 B1u   4 B2g   1 Au                 
  1.297   1.329   1.482   1.625   1.739   1.741   1.880   1.945
  5 B1u  10 B3u   6 B1g  11 Ag    7 B2u   7 B1g   5 B2g   6 B1u                
  1.970   2.017   2.088   2.103   2.184   2.334   2.412   2.479
 11 B3u   2 B3g  12 Ag    8 B2u   6 B2g  12 B3u   2 Au   13 Ag                 
  2.558   2.582   2.863   2.864   3.282   3.350
  8 B1g  13 B3u  14 Ag    9 B2u  14 B3u   9 B1g                                
 
 Beta MOs, Restricted
 -- Occupied --                  
-11.237 -11.235  -1.042  -0.782  -0.660  -0.567  -0.515  -0.377
  1 Ag    1 B3u   2 Ag    2 B3u   1 B2u   3 Ag    1 B1g   1 B1u                
 -- Virtual --                   
  0.084   0.092   0.094   0.104   0.107   0.130   0.147   0.198
  3 B3u   4 Ag    2 B2u   1 B2g   2 B1u   2 B1g   5 Ag    2 B2g                
  0.216   0.262   0.325   0.338   0.359   0.379   0.379   0.396
  4 B3u   6 Ag    3 B2u   5 B3u   6 B3u   4 B2u   7 Ag    3 B1u                
  0.414   0.482   0.544   0.619   0.839   0.848   0.930   0.988
  3 B1g   3 B2g   4 B1g   7 B3u   8 Ag    5 B2u   8 B3u   9 Ag                 
  1.030   1.090   1.113   1.114   1.149   1.179   1.228   1.285
  5 B1g  10 Ag    6 B2u   1 B3g   9 B3u   4 B1u   4 B2g   1 Au                 
  1.297   1.329   1.482   1.625   1.739   1.741   1.880   1.945
  5 B1u  10 B3u   6 B1g  11 Ag    7 B2u   7 B1g   5 B2g   6 B1u                
  1.970   2.017   2.088   2.103   2.184   2.334   2.412   2.479
 11 B3u   2 B3g  12 Ag    8 B2u   6 B2g  12 B3u   2 Au   13 Ag                 
  2.558   2.582   2.863   2.864   3.282   3.350
  8 B1g  13 B3u  14 Ag    9 B2u  14 B3u   9 B1g                                

--------------------------------------------------------------------------------
                                   HF Summary                                   
--------------------------------------------------------------------------------
  Energy:                                                  -78.0376431593 a.u.
  Dip. moment [a.u.]:                  [  -0.000000,   -0.000001,    0.000000]
  Total dipole [Debye]:                                               0.000001
  <r^2> [a.u.]:                        [  47.706623,   22.117721,   12.008343]
  Total <r^2> [a.u.]:                                                81.832687
--------------------------------------------------------------------------------

--------------------------------------------------------------------------------
                                 MP(2) Summary                                  
--------------------------------------------------------------------------------
  MP energy contribution:                                   -0.2837613837 a.u.
  Total energy:                                            -78.3214045429 a.u.
  Dip. moment [a.u.]:                  [  -0.000000,   -0.000000,   -0.000000]
  Total dipole [Debye]:                                               0.000001
  <r^2> [a.u.]:                        [  47.814068,   22.148453,   11.860376]
  Total <r^2> [a.u.]:                                                81.822897

  Density matrix analysis:
  ------------------------
  NOs (alpha)
    Occupation of frontier NOs:
       0.0224   0.9685
    Number of electrons:  8.000000
  NOs (beta)
    Occupation of frontier NOs:
       0.0224   0.9685
    Number of electrons:  8.000000
  NOs (spin-traced)
    Occupation of frontier NOs:
       0.0448   1.9370
    Number of electrons: 16.000000
    Number of unpaired electrons: n_u =  0.40982, n_u,nl =  0.04611
    NO participation ratio (PR_NO): 13.971489
  
  
  Mulliken Population Analysis
  Atom  Charge (e)    Spin (e)  h+ (alpha)   h+ (beta)  e- (alpha)   e- (beta)
  ----------------------------------------------------------------------------
   1 C   -0.232979    0.000000    0.043469    0.043469   -0.051333   -0.051333
   2 C   -0.232979   -0.000000    0.043469    0.043469   -0.051333   -0.051333
   3 H    0.116483   -0.000000    0.009181    0.009181   -0.005249   -0.005249
   4 H    0.116502   -0.000000    0.009181    0.009181   -0.005249   -0.005249
   5 H    0.116496   -0.000000    0.009181    0.009181   -0.005249   -0.005249
   6 H    0.116477    0.000000    0.009181    0.009181   -0.005249   -0.005249
  ----------------------------------------------------------------------------
  Sum:   -0.000000   -0.000000    0.123661    0.123661   -0.123661   -0.123661
  
  Multipole moment analysis of the density matrix
    Molecular charge:                      -0.000000
    Number of electrons:                   16.000000
      Center of electronic charge [Ang]: [  0.000000,   0.000000,   0.000000]
    Total nuclear charge:                  16.000000
      Center of nuclear charge [Ang]:    [  0.000000,   0.000000,   0.000000]
    Dipole moment [D]:                     0.000001
      Cartesian components [D]:          [ -0.000000,  -0.000001,  -0.000000]
    RMS size of the density [Ang]:         1.196681
      Cartesian components [Ang]:        [  0.914785,   0.622605,   0.455607]
  
  Exciton analysis of the difference density matrix
  Total:
    <r_h> [Ang]:                  [ -0.000000,   0.000000,  -0.000000]
    <r_e> [Ang]:                  [  0.000000,  -0.000000,  -0.000000]
    |<r_e - r_h>| [Ang]:            0.000000
    Hole size [Ang]:                1.410010
      Cartesian components [Ang]: [  0.958314,   0.719158,   0.743354]
    Electron size [Ang]:            1.406075
      Cartesian components [Ang]: [  1.019814,   0.742957,   0.620517]
  
  Alpha spin:
    <r_h> [Ang]:                  [ -0.000000,   0.000000,  -0.000000]
    <r_e> [Ang]:                  [  0.000000,  -0.000000,  -0.000000]
    |<r_e - r_h>| [Ang]:            0.000000
    Hole size [Ang]:                1.410010
      Cartesian components [Ang]: [  0.958314,   0.719158,   0.743354]
    Electron size [Ang]:            1.406075
      Cartesian components [Ang]: [  1.019814,   0.742957,   0.620517]
  
  Beta spin:
    <r_h> [Ang]:                  [ -0.000000,   0.000000,  -0.000000]
    <r_e> [Ang]:                  [  0.000000,  -0.000000,  -0.000000]
    |<r_e - r_h>| [Ang]:            0.000000
    Hole size [Ang]:                1.410010
      Cartesian components [Ang]: [  0.958314,   0.719158,   0.743354]
    Electron size [Ang]:            1.406075
      Cartesian components [Ang]: [  1.019814,   0.742957,   0.620517]
--------------------------------------------------------------------------------

--------------------------------------------------------------------------------
                                 MP(3) Summary                                  
--------------------------------------------------------------------------------
  MP energy contribution:                                   -0.0245295208 a.u.
  Total energy:                                            -78.3459340638 a.u.
--------------------------------------------------------------------------------
Less particle guess vectors found than requested: 6 (found), 100 (requested).
Adjusting number of hole-2particle guess vectors to 94.
  Starting Davidson for electron-attached states of irrep B2g ... 
--------------------------------------------------------------------------------
   It NVec Conv  Avg. Norm  Max. Norm  Conv. states           Remark
--------------------------------------------------------------------------------
       100    0  3.900e-02  2.580e-01  0.1048 n n n n n n n n Guess.
    1  110    0  6.795e-03  3.141e-02  0.0854 n n n n n n n n 
    2  120    0  4.320e-03  3.899e-02  0.0849 n n n n n n n n 
    3  130    0  2.074e-03  1.960e-02  0.0849 n n n n n n n n 
    4  140    0  6.609e-04  6.270e-03  0.0849 n n n n n n n n 
    5  150    0  1.599e-04  1.519e-03  0.0849 n n n n n n n n 
    6  160    4  5.370e-05  5.112e-04  0.0849 y y n y y n n n 
    7  170    8  1.222e-05  1.158e-04  0.0849 y y y y y y y y 
    8  180    9  2.837e-06  2.690e-05  0.0849 y y y y y y y y 
    9  190   10  6.908e-07  6.562e-06  0.0849 y y y y y y y y Converged.
--------------------------------------------------------------------------------
  Davidson Summary: 
 ------------------------------------------------------------
  State  0: electron attachment energy =   0.0849 a.u.   (converged)
  State  1: electron attachment energy =   0.1644 a.u.   (converged)
  State  2: electron attachment energy =   0.2529 a.u.   (converged)
  State  3: electron attachment energy =   0.3154 a.u.   (converged)
  State  4: electron attachment energy =   0.3402 a.u.   (converged)
  State  5: electron attachment energy =   0.3687 a.u.   (converged)
  State  6: electron attachment energy =   0.3758 a.u.   (converged)
  State  7: electron attachment energy =   0.3953 a.u.   (converged)
  State  8: electron attachment energy =   0.4116 a.u.   (converged)
  State  9: electron attachment energy =   0.4187 a.u.   (converged)
 ------------------------------------------------------------


--------------------------------------------------------------------------------
                        Electron-Attached State Summary
--------------------------------------------------------------------------------

  Electron-attached state 1 (B2g)                                  [converged]
  ----------------------------------------------------------------------------
  Term symbol:  1 (2) B2g                                   R^2 =  2.03448e-08

  Total energy:                                            -78.2610368077 a.u.
  Electron attachment energy:                                      2.310172 eV

  Pole strength:                                                      0.942103

  Dip. moment [a.u.]:                  [  -0.000000,   -0.000000,   -0.000000]
  Total dipole [Debye]:                                               0.000001
  <r^2> [a.u.]:                        [  60.869955,   27.101769,   24.091215]
  Total <r^2> [a.u.]:                                               112.062938

  V1^2 = 0.9517, V2^2 = 0.0483

  Important amplitudes:
       occ i       vir a        vir b           v   
    -------------------------------------------------
                               1 (B2g) B     -0.9512
                               2 (B2g) B      0.2117
    -------------------------------------------------

  Density matrix analysis:
  ------------------------
  NOs (alpha)
    Occupation of frontier NOs:
       0.0194   0.9613
    Number of electrons:  8.000000
  NOs (beta)
    Occupation of frontier NOs:
       0.0267   0.9719
    Number of electrons:  9.000000
  NOs (spin-traced)
    Occupation of frontier NOs:
       0.0374   0.9832
    Number of electrons: 17.000000
    Number of unpaired electrons: n_u =  1.43692, n_u,nl =  1.05100
    NO participation ratio (PR_NO):  2.106548
  
  
  Mulliken Population Analysis
  Atom  Charge (e)    Spin (e)  h+ (alpha)   h+ (beta)  e- (alpha)   e- (beta)
  ----------------------------------------------------------------------------
   1 C   -0.653334    0.550944    0.099240    0.071866   -0.033945   -0.557516
   2 C   -0.653334    0.550944    0.099240    0.071866   -0.033945   -0.557516
   3 H    0.076661   -0.025472    0.000424    0.007155   -0.033072   -0.014330
   4 H    0.076680   -0.025472    0.000424    0.007155   -0.033072   -0.014330
   5 H    0.076673   -0.025472    0.000424    0.007154   -0.033072   -0.014330
   6 H    0.076654   -0.025472    0.000424    0.007154   -0.033072   -0.014330
  ----------------------------------------------------------------------------
  Sum:   -1.000000    1.000000    0.200176    0.172351   -0.200176   -1.172351
  
  Multipole moment analysis of the density matrix
    Molecular charge:                      -1.000000
    Number of electrons:                   17.000000
      Center of electronic charge [Ang]: [  0.000000,   0.000000,   0.000000]
    Total nuclear charge:                  16.000000
      Center of nuclear charge [Ang]:    [  0.000000,   0.000000,   0.000000]
    Dipole moment [D]:                     0.000001
      Cartesian components [D]:          [ -0.000000,  -0.000001,  -0.000000]
    RMS size of the density [Ang]:         1.358650
      Cartesian components [Ang]:        [  1.001332,   0.668152,   0.629950]
  
  Exciton analysis of the difference density matrix
  Total:
    <r_h> [Ang]:                  [  0.000000,   0.000000,   0.000000]
    <r_e> [Ang]:                  [  0.000000,   0.000000,   0.000000]
    |<r_e - r_h>| [Ang]:            0.000000
    Hole size [Ang]:                1.839968
      Cartesian components [Ang]: [  1.184555,   0.926650,   1.060015]
    Electron size [Ang]:            2.662437
      Cartesian components [Ang]: [  1.744866,   1.115193,   1.673427]
  
  Alpha spin:
    <r_h> [Ang]:                  [ -0.000000,   0.000000,   0.000000]
    <r_e> [Ang]:                  [ -0.000000,   0.000000,   0.000000]
    |<r_e - r_h>| [Ang]:            0.000000
    Hole size [Ang]:                1.776306
      Cartesian components [Ang]: [  1.149668,   0.890037,   1.020471]
    Electron size [Ang]:            2.499649
      Cartesian components [Ang]: [  1.496368,   1.357161,   1.472155]
  
  Beta spin:
    <r_h> [Ang]:                  [  0.000000,   0.000000,   0.000000]
    <r_e> [Ang]:                  [  0.000000,   0.000000,   0.000000]
    |<r_e - r_h>| [Ang]:            0.000000
    Hole size [Ang]:                1.911248
      Cartesian components [Ang]: [  1.223826,   0.967436,   1.104168]
    Electron size [Ang]:            2.689248
      Cartesian components [Ang]: [  1.783840,   1.068414,   1.705421]
  ----------------------------------------------------------------------------


  Electron-attached state 2 (B2g)                                  [converged]
  ----------------------------------------------------------------------------
  Term symbol:  2 (2) B2g                                   R^2 =  4.41425e-08

  Total energy:                                            -78.1815333061 a.u.
  Electron attachment energy:                                      4.473572 eV

  Pole strength:                                                      0.909391

  Dip. moment [a.u.]:                  [  -0.000000,   -0.000000,    0.000000]
  Total dipole [Debye]:                                               0.000001
  <r^2> [a.u.]:                        [  65.859031,   28.909582,   29.837096]
  Total <r^2> [a.u.]:                                               124.605709

  V1^2 = 0.9164, V2^2 = 0.0836

  Important amplitudes:
       occ i       vir a        vir b           v   
    -------------------------------------------------
                               2 (B2g) B     -0.9162
                               1 (B2g) B     -0.2637
    -------------------------------------------------

  Density matrix analysis:
  ------------------------
  NOs (alpha)
    Occupation of frontier NOs:
       0.0354   0.9251
    Number of electrons:  8.000000
  NOs (beta)
    Occupation of frontier NOs:
       0.0522   0.9371
    Number of electrons:  9.000000
  NOs (spin-traced)
    Occupation of frontier NOs:
       0.0754   0.9493
    Number of electrons: 17.000000
    Number of unpaired electrons: n_u =  1.52563, n_u,nl =  1.09839
    NO participation ratio (PR_NO):  2.504969
  
  
  Mulliken Population Analysis
  Atom  Charge (e)    Spin (e)  h+ (alpha)   h+ (beta)  e- (alpha)   e- (beta)
  ----------------------------------------------------------------------------
   1 C   -0.643418    0.518039    0.108943    0.045060   -0.055143   -0.509299
   2 C   -0.643418    0.518039    0.108943    0.045060   -0.055143   -0.509299
   3 H    0.071703   -0.009019    0.001187    0.003055   -0.028087   -0.020935
   4 H    0.071721   -0.009020    0.001187    0.003055   -0.028087   -0.020935
   5 H    0.071715   -0.009019    0.001187    0.003055   -0.028087   -0.020936
   6 H    0.071696   -0.009019    0.001187    0.003055   -0.028087   -0.020935
  ----------------------------------------------------------------------------
  Sum:   -1.000000    1.000000    0.222632    0.102340   -0.222632   -1.102340
  
  Multipole moment analysis of the density matrix
    Molecular charge:                      -1.000000
    Number of electrons:                   17.000000
      Center of electronic charge [Ang]: [  0.000000,   0.000000,  -0.000000]
    Total nuclear charge:                  16.000000
      Center of nuclear charge [Ang]:    [  0.000000,   0.000000,   0.000000]
    Dipole moment [D]:                     0.000001
      Cartesian components [D]:          [ -0.000000,  -0.000001,   0.000000]
    RMS size of the density [Ang]:         1.432668
      Cartesian components [Ang]:        [  1.041560,   0.690077,   0.701060]
  
  Exciton analysis of the difference density matrix
  Total:
    <r_h> [Ang]:                  [  0.000000,   0.000000,   0.000000]
    <r_e> [Ang]:                  [ -0.000000,   0.000000,  -0.000000]
    |<r_e - r_h>| [Ang]:            0.000000
    Hole size [Ang]:                1.671849
      Cartesian components [Ang]: [  1.089385,   0.841523,   0.948766]
    Electron size [Ang]:            3.118902
      Cartesian components [Ang]: [  2.026035,   1.265951,   2.005019]
  
  Alpha spin:
    <r_h> [Ang]:                  [  0.000000,  -0.000000,   0.000000]
    <r_e> [Ang]:                  [ -0.000000,   0.000000,   0.000000]
    |<r_e - r_h>| [Ang]:            0.000000
    Hole size [Ang]:                1.652344
      Cartesian components [Ang]: [  1.062080,   0.805541,   0.976387]
    Electron size [Ang]:            2.601183
      Cartesian components [Ang]: [  1.501297,   1.340939,   1.647466]
  
  Beta spin:
    <r_h> [Ang]:                  [ -0.000000,   0.000000,   0.000000]
    <r_e> [Ang]:                  [  0.000000,   0.000000,  -0.000000]
    |<r_e - r_h>| [Ang]:            0.000000
    Hole size [Ang]:                1.713513
      Cartesian components [Ang]: [  1.146543,   0.914924,   0.885709]
    Electron size [Ang]:            3.213354
      Cartesian components [Ang]: [  2.116279,   1.250260,   2.069748]
  ----------------------------------------------------------------------------


  Electron-attached state 3 (B2g)                                  [converged]
  ----------------------------------------------------------------------------
  Term symbol:  3 (2) B2g                                   R^2 =  5.88521e-08

  Total energy:                                            -78.0930077203 a.u.
  Electron attachment energy:                                      6.882476 eV

  Pole strength:                                                      0.062605

  Dip. moment [a.u.]:                  [   0.000000,   -0.000000,   -0.000000]
  Total dipole [Debye]:                                               0.000001
  <r^2> [a.u.]:                        [  59.784189,   31.147750,   37.749922]
  Total <r^2> [a.u.]:                                               128.681860

  V1^2 = 0.0633, V2^2 = 0.9367

  Important amplitudes:
       occ i       vir a        vir b           v   
    -------------------------------------------------
     1 (B1u) A    2 (B1u) A    1 (B2g) B      0.3892
     1 (B1u) A    2 (B1u) A    2 (B2g) B     -0.3690
    -------------------------------------------------

  Density matrix analysis:
  ------------------------
  NOs (alpha)
    Occupation of frontier NOs:
       0.1817   0.6630
    Number of electrons:  8.000000
  NOs (beta)
    Occupation of frontier NOs:
       0.2956   0.8192
    Number of electrons:  9.000000
  NOs (spin-traced)
    Occupation of frontier NOs:
       0.7313   1.0006
    Number of electrons: 17.000000
    Number of unpaired electrons: n_u =  2.90306, n_u,nl =  2.80968
    NO participation ratio (PR_NO):  3.881589
  
  
  Mulliken Population Analysis
  Atom  Charge (e)    Spin (e)  h+ (alpha)   h+ (beta)  e- (alpha)   e- (beta)
  ----------------------------------------------------------------------------
   1 C   -0.694402    0.496601    0.411889    0.092735   -0.394300   -0.571746
   2 C   -0.694402    0.496601    0.411889    0.092735   -0.394300   -0.571746
   3 H    0.097195    0.001700    0.001517    0.000904   -0.010311   -0.011398
   4 H    0.097213    0.001700    0.001517    0.000904   -0.010311   -0.011398
   5 H    0.097207    0.001700    0.001517    0.000904   -0.010311   -0.011398
   6 H    0.097188    0.001700    0.001517    0.000904   -0.010311   -0.011398
  ----------------------------------------------------------------------------
  Sum:   -1.000000    1.000000    0.829844    0.189084   -0.829844   -1.189084
  
  Multipole moment analysis of the density matrix
    Molecular charge:                      -1.000000
    Number of electrons:                   17.000000
      Center of electronic charge [Ang]: [ -0.000000,   0.000000,   0.000000]
    Total nuclear charge:                  16.000000
      Center of nuclear charge [Ang]:    [  0.000000,   0.000000,   0.000000]
    Dipole moment [D]:                     0.000001
      Cartesian components [D]:          [  0.000000,  -0.000001,  -0.000000]
    RMS size of the density [Ang]:         1.455913
      Cartesian components [Ang]:        [  0.992361,   0.716292,   0.788560]
  
  Exciton analysis of the difference density matrix
  Total:
    <r_h> [Ang]:                  [ -0.000000,   0.000000,   0.000000]
    <r_e> [Ang]:                  [ -0.000000,   0.000000,   0.000000]
    |<r_e - r_h>| [Ang]:            0.000000
    Hole size [Ang]:                1.408814
      Cartesian components [Ang]: [  0.826449,   0.601695,   0.969382]
    Electron size [Ang]:            2.738813
      Cartesian components [Ang]: [  1.415975,   1.196216,   2.016228]
  
  Alpha spin:
    <r_h> [Ang]:                  [ -0.000000,   0.000000,   0.000000]
    <r_e> [Ang]:                  [ -0.000000,   0.000000,   0.000000]
    |<r_e - r_h>| [Ang]:            0.000000
    Hole size [Ang]:                1.395456
      Cartesian components [Ang]: [  0.813953,   0.589102,   0.968368]
    Electron size [Ang]:            3.232098
      Cartesian components [Ang]: [  1.546597,   1.441295,   2.444824]
  
  Beta spin:
    <r_h> [Ang]:                  [ -0.000000,   0.000000,   0.000000]
    <r_e> [Ang]:                  [ -0.000000,   0.000000,   0.000000]
    |<r_e - r_h>| [Ang]:            0.000000
    Hole size [Ang]:                1.466003
      Cartesian components [Ang]: [  0.879194,   0.654105,   0.973822]
    Electron size [Ang]:            2.333574
      Cartesian components [Ang]: [  1.317164,   0.989858,   1.652522]
  ----------------------------------------------------------------------------


  Electron-attached state 4 (B2g)                                  [converged]
  ----------------------------------------------------------------------------
  Term symbol:  4 (2) B2g                                   R^2 =  2.49094e-08

  Total energy:                                            -78.0305182279 a.u.
  Electron attachment energy:                                      8.582901 eV

  Pole strength:                                                      0.000750

  Dip. moment [a.u.]:                  [  -0.000000,    0.000003,    0.000000]
  Total dipole [Debye]:                                               0.000007
  <r^2> [a.u.]:                        [  98.412538,   37.356313,   25.578850]
  Total <r^2> [a.u.]:                                               161.347701

  V1^2 = 0.0007, V2^2 = 0.9993

  Important amplitudes:
       occ i       vir a        vir b           v   
    -------------------------------------------------
     1 (B1u) B    4 (Ag ) B    3 (B3u) B     -0.5309
     1 (B1u) A    3 (B3u) A    4 (Ag ) B      0.3169
    -------------------------------------------------

  Density matrix analysis:
  ------------------------
  NOs (alpha)
    Occupation of frontier NOs:
       0.2482   0.6114
    Number of electrons:  8.000000
  NOs (beta)
    Occupation of frontier NOs:
       0.3291   0.7253
    Number of electrons:  9.000000
  NOs (spin-traced)
    Occupation of frontier NOs:
       0.9403   0.9606
    Number of electrons: 17.000000
    Number of unpaired electrons: n_u =  3.28691, n_u,nl =  3.02505
    NO participation ratio (PR_NO):  3.909813
  
  
  Mulliken Population Analysis
  Atom  Charge (e)    Spin (e)  h+ (alpha)   h+ (beta)  e- (alpha)   e- (beta)
  ----------------------------------------------------------------------------
   1 C   -0.738453    0.524395    0.177001    0.316944   -0.167540   -0.831878
   2 C   -0.738453    0.524395    0.177001    0.316944   -0.167540   -0.831878
   3 H    0.119221   -0.012198    0.001044    0.001836   -0.005775    0.005632
   4 H    0.119238   -0.012197    0.001044    0.001836   -0.005775    0.005631
   5 H    0.119232   -0.012197    0.001044    0.001836   -0.005775    0.005631
   6 H    0.119215   -0.012198    0.001044    0.001836   -0.005775    0.005633
  ----------------------------------------------------------------------------
  Sum:   -1.000000    1.000000    0.358180    0.641230   -0.358180   -1.641230
  
  Multipole moment analysis of the density matrix
    Molecular charge:                      -1.000000
    Number of electrons:                   17.000000
      Center of electronic charge [Ang]: [  0.000000,  -0.000000,  -0.000000]
    Total nuclear charge:                  16.000000
      Center of nuclear charge [Ang]:    [  0.000000,   0.000000,   0.000000]
    Dipole moment [D]:                     0.000007
      Cartesian components [D]:          [ -0.000000,   0.000007,   0.000000]
    RMS size of the density [Ang]:         1.630264
      Cartesian components [Ang]:        [  1.273215,   0.784438,   0.649108]
  
  Exciton analysis of the difference density matrix
  Total:
    <r_h> [Ang]:                  [ -0.000000,   0.000000,  -0.000000]
    <r_e> [Ang]:                  [  0.000000,  -0.000001,  -0.000000]
    |<r_e - r_h>| [Ang]:            0.000001
    Hole size [Ang]:                1.253455
      Cartesian components [Ang]: [  0.749039,   0.511031,   0.865412]
    Electron size [Ang]:            3.453004
      Cartesian components [Ang]: [  2.714230,   1.503491,   1.515159]
  
  Alpha spin:
    <r_h> [Ang]:                  [ -0.000000,   0.000000,   0.000000]
    <r_e> [Ang]:                  [ -0.000000,  -0.000000,   0.000000]
    |<r_e - r_h>| [Ang]:            0.000000
    Hole size [Ang]:                1.252369
      Cartesian components [Ang]: [  0.748840,   0.510584,   0.864274]
    Electron size [Ang]:            3.672927
      Cartesian components [Ang]: [  3.012256,   1.504869,   1.466997]
  
  Beta spin:
    <r_h> [Ang]:                  [ -0.000000,   0.000000,  -0.000000]
    <r_e> [Ang]:                  [  0.000000,  -0.000001,  -0.000000]
    |<r_e - r_h>| [Ang]:            0.000001
    Hole size [Ang]:                1.254061
      Cartesian components [Ang]: [  0.749150,   0.511280,   0.866046]
    Electron size [Ang]:            3.403120
      Cartesian components [Ang]: [  2.644729,   1.503190,   1.525468]
  ----------------------------------------------------------------------------


  Electron-attached state 5 (B2g)                                  [converged]
  ----------------------------------------------------------------------------
  Term symbol:  5 (2) B2g                                   R^2 =  6.08532e-08

  Total energy:                                            -78.0057634143 a.u.
  Electron attachment energy:                                      9.256514 eV

  Pole strength:                                                      0.000125

  Dip. moment [a.u.]:                  [  -0.000000,    0.000002,    0.000000]
  Total dipole [Debye]:                                               0.000006
  <r^2> [a.u.]:                        [  85.621488,   39.325893,   28.170643]
  Total <r^2> [a.u.]:                                               153.118024

  V1^2 = 0.0001, V2^2 = 0.9999

  Important amplitudes:
       occ i       vir a        vir b           v   
    -------------------------------------------------
     1 (B1u) A    3 (B3u) A    5 (Ag ) B     -0.3793
     1 (B1u) A    4 (Ag ) A    3 (B3u) B      0.3401
    -------------------------------------------------

  Density matrix analysis:
  ------------------------
  NOs (alpha)
    Occupation of frontier NOs:
       0.3937   0.4631
    Number of electrons:  8.000000
  NOs (beta)
    Occupation of frontier NOs:
       0.3954   0.5022
    Number of electrons:  9.000000
  NOs (spin-traced)
    Occupation of frontier NOs:
       0.8425   0.8957
    Number of electrons: 17.000000
    Number of unpaired electrons: n_u =  3.28865, n_u,nl =  3.01066
    NO participation ratio (PR_NO):  4.469298
  
  
  Mulliken Population Analysis
  Atom  Charge (e)    Spin (e)  h+ (alpha)   h+ (beta)  e- (alpha)   e- (beta)
  ----------------------------------------------------------------------------
   1 C   -0.750799    0.482930    0.467452    0.026637   -0.484897   -0.527012
   2 C   -0.750799    0.482930    0.467452    0.026637   -0.484897   -0.527012
   3 H    0.125394    0.008535    0.002757    0.000176    0.005966    0.000012
   4 H    0.125411    0.008535    0.002757    0.000176    0.005965    0.000011
   5 H    0.125405    0.008535    0.002757    0.000176    0.005965    0.000012
   6 H    0.125388    0.008535    0.002757    0.000176    0.005966    0.000012
  ----------------------------------------------------------------------------
  Sum:   -1.000000    1.000000    0.945933    0.053976   -0.945933   -1.053976
  
  Multipole moment analysis of the density matrix
    Molecular charge:                      -1.000000
    Number of electrons:                   17.000000
      Center of electronic charge [Ang]: [  0.000000,  -0.000000,  -0.000000]
    Total nuclear charge:                  16.000000
      Center of nuclear charge [Ang]:    [  0.000000,   0.000000,   0.000000]
    Dipole moment [D]:                     0.000006
      Cartesian components [D]:          [ -0.000000,   0.000006,   0.000000]
    RMS size of the density [Ang]:         1.588144
      Cartesian components [Ang]:        [  1.187594,   0.804852,   0.681201]
  
  Exciton analysis of the difference density matrix
  Total:
    <r_h> [Ang]:                  [ -0.000000,   0.000000,   0.000000]
    <r_e> [Ang]:                  [  0.000000,  -0.000001,  -0.000000]
    |<r_e - r_h>| [Ang]:            0.000001
    Hole size [Ang]:                1.252632
      Cartesian components [Ang]: [  0.748682,   0.510789,   0.864671]
    Electron size [Ang]:            3.281356
      Cartesian components [Ang]: [  2.360947,   1.592370,   1.630210]
  
  Alpha spin:
    <r_h> [Ang]:                  [ -0.000000,   0.000000,   0.000000]
    <r_e> [Ang]:                  [  0.000000,  -0.000001,  -0.000000]
    |<r_e - r_h>| [Ang]:            0.000001
    Hole size [Ang]:                1.252734
      Cartesian components [Ang]: [  0.748645,   0.510776,   0.864858]
    Electron size [Ang]:            3.253013
      Cartesian components [Ang]: [  2.307242,   1.606223,   1.636696]
  
  Beta spin:
    <r_h> [Ang]:                  [  0.000000,   0.000000,   0.000000]
    <r_e> [Ang]:                  [ -0.000000,  -0.000001,  -0.000000]
    |<r_e - r_h>| [Ang]:            0.000001
    Hole size [Ang]:                1.250847
      Cartesian components [Ang]: [  0.749342,   0.511006,   0.861381]
    Electron size [Ang]:            3.306586
      Cartesian components [Ang]: [  2.408126,   1.579834,   1.624367]
  ----------------------------------------------------------------------------


  Electron-attached state 6 (B2g)                                  [converged]
  ----------------------------------------------------------------------------
  Term symbol:  6 (2) B2g                                   R^2 =  3.03370e-07

  Total energy:                                            -77.9772492705 a.u.
  Electron attachment energy:                                     10.032423 eV

  Pole strength:                                                      0.026062

  Dip. moment [a.u.]:                  [  -0.000000,   -0.000000,   -0.000000]
  Total dipole [Debye]:                                               0.000000
  <r^2> [a.u.]:                        [  74.195097,   34.672703,   40.076676]
  Total <r^2> [a.u.]:                                               148.944475

  V1^2 = 0.0261, V2^2 = 0.9739

  Important amplitudes:
       occ i       vir a        vir b           v   
    -------------------------------------------------
     1 (B1u) B    1 (B2g) B    2 (B1u) B      0.4323
     1 (B1u) A    1 (B2g) A    2 (B1u) B      0.3801
    -------------------------------------------------

  Density matrix analysis:
  ------------------------
  NOs (alpha)
    Occupation of frontier NOs:
       0.3279   0.5235
    Number of electrons:  8.000000
  NOs (beta)
    Occupation of frontier NOs:
       0.4078   0.4701
    Number of electrons:  9.000000
  NOs (spin-traced)
    Occupation of frontier NOs:
       0.7270   0.7328
    Number of electrons: 17.000000
    Number of unpaired electrons: n_u =  3.34642, n_u,nl =  2.99085
    NO participation ratio (PR_NO):  5.225677
  
  
  Mulliken Population Analysis
  Atom  Charge (e)    Spin (e)  h+ (alpha)   h+ (beta)  e- (alpha)   e- (beta)
  ----------------------------------------------------------------------------
   1 C   -0.722695    0.498021    0.228985    0.251584   -0.224833   -0.745452
   2 C   -0.722695    0.498021    0.228985    0.251584   -0.224833   -0.745452
   3 H    0.111341    0.000990    0.002084    0.001701   -0.004160   -0.004766
   4 H    0.111360    0.000990    0.002084    0.001701   -0.004160   -0.004766
   5 H    0.111354    0.000989    0.002084    0.001701   -0.004160   -0.004766
   6 H    0.111335    0.000989    0.002084    0.001701   -0.004160   -0.004766
  ----------------------------------------------------------------------------
  Sum:   -1.000000    1.000000    0.466307    0.509970   -0.466307   -1.509970
  
  Multipole moment analysis of the density matrix
    Molecular charge:                      -1.000000
    Number of electrons:                   17.000000
      Center of electronic charge [Ang]: [  0.000000,   0.000000,   0.000000]
    Total nuclear charge:                  16.000000
      Center of nuclear charge [Ang]:    [  0.000000,   0.000000,   0.000000]
    Dipole moment [D]:                     0.000000
      Cartesian components [D]:          [ -0.000000,  -0.000000,  -0.000000]
    RMS size of the density [Ang]:         1.566350
      Cartesian components [Ang]:        [  1.105514,   0.755737,   0.812498]
  
  Exciton analysis of the difference density matrix
  Total:
    <r_h> [Ang]:                  [  0.000000,   0.000000,   0.000000]
    <r_e> [Ang]:                  [ -0.000000,  -0.000000,   0.000000]
    |<r_e - r_h>| [Ang]:            0.000000
    Hole size [Ang]:                1.261803
      Cartesian components [Ang]: [  0.760466,   0.521160,   0.861529]
    Electron size [Ang]:            3.208942
      Cartesian components [Ang]: [  2.005927,   1.381592,   2.089203]
  
  Alpha spin:
    <r_h> [Ang]:                  [  0.000000,   0.000000,   0.000000]
    <r_e> [Ang]:                  [  0.000000,  -0.000000,   0.000000]
    |<r_e - r_h>| [Ang]:            0.000000
    Hole size [Ang]:                1.255685
      Cartesian components [Ang]: [  0.761250,   0.519397,   0.852919]
    Electron size [Ang]:            2.849888
      Cartesian components [Ang]: [  1.963901,   1.220917,   1.665628]
  
  Beta spin:
    <r_h> [Ang]:                  [  0.000000,   0.000000,   0.000000]
    <r_e> [Ang]:                  [ -0.000000,  -0.000000,   0.000000]
    |<r_e - r_h>| [Ang]:            0.000000
    Hole size [Ang]:                1.267372
      Cartesian components [Ang]: [  0.759748,   0.522766,   0.869328]
    Electron size [Ang]:            3.311968
      Cartesian components [Ang]: [  2.018728,   1.427562,   2.203618]
  ----------------------------------------------------------------------------


  Electron-attached state 7 (B2g)                                  [converged]
  ----------------------------------------------------------------------------
  Term symbol:  7 (2) B2g                                   R^2 =  1.91731e-07

  Total energy:                                            -77.9701519987 a.u.
  Electron attachment energy:                                     10.225550 eV

  Pole strength:                                                      0.002713

  Dip. moment [a.u.]:                  [   0.000000,   -0.000000,   -0.000000]
  Total dipole [Debye]:                                               0.000001
  <r^2> [a.u.]:                        [  88.195274,   46.178528,   26.470442]
  Total <r^2> [a.u.]:                                               160.844243

  V1^2 = 0.0027, V2^2 = 0.9973

  Important amplitudes:
       occ i       vir a        vir b           v   
    -------------------------------------------------
     1 (B1u) B    5 (Ag ) B    3 (B3u) B     -0.3728
     1 (B1u) B    2 (B1g) B    2 (B2u) B      0.3240
    -------------------------------------------------

  Density matrix analysis:
  ------------------------
  NOs (alpha)
    Occupation of frontier NOs:
       0.0853   0.6152
    Number of electrons:  8.000000
  NOs (beta)
    Occupation of frontier NOs:
       0.3347   0.4145
    Number of electrons:  9.000000
  NOs (spin-traced)
    Occupation of frontier NOs:
       0.4984   0.4994
    Number of electrons: 17.000000
    Number of unpaired electrons: n_u =  3.30139, n_u,nl =  2.95012
    NO participation ratio (PR_NO):  6.455249
  
  
  Mulliken Population Analysis
  Atom  Charge (e)    Spin (e)  h+ (alpha)   h+ (beta)  e- (alpha)   e- (beta)
  ----------------------------------------------------------------------------
   1 C   -0.630286    0.424249    0.176688    0.315099   -0.163217   -0.725877
   2 C   -0.630286    0.424249    0.176688    0.315099   -0.163217   -0.725877
   3 H    0.065137    0.037875    0.001433    0.002002   -0.008169   -0.046613
   4 H    0.065155    0.037876    0.001433    0.002002   -0.008169   -0.046613
   5 H    0.065149    0.037876    0.001433    0.002002   -0.008169   -0.046613
   6 H    0.065131    0.037875    0.001433    0.002002   -0.008169   -0.046612
  ----------------------------------------------------------------------------
  Sum:   -1.000000    1.000000    0.359110    0.638205   -0.359110   -1.638205
  
  Multipole moment analysis of the density matrix
    Molecular charge:                      -1.000000
    Number of electrons:                   17.000000
      Center of electronic charge [Ang]: [ -0.000000,   0.000000,   0.000000]
    Total nuclear charge:                  16.000000
      Center of nuclear charge [Ang]:    [  0.000000,   0.000000,   0.000000]
    Dipole moment [D]:                     0.000001
      Cartesian components [D]:          [  0.000000,  -0.000001,  -0.000000]
    RMS size of the density [Ang]:         1.627719
      Cartesian components [Ang]:        [  1.205312,   0.872161,   0.660324]
  
  Exciton analysis of the difference density matrix
  Total:
    <r_h> [Ang]:                  [ -0.000000,   0.000000,   0.000000]
    <r_e> [Ang]:                  [ -0.000000,  -0.000000,   0.000000]
    |<r_e - r_h>| [Ang]:            0.000000
    Hole size [Ang]:                1.253378
      Cartesian components [Ang]: [  0.751205,   0.512663,   0.862452]
    Electron size [Ang]:            3.444330
      Cartesian components [Ang]: [  2.437893,   1.870912,   1.555564]
  
  Alpha spin:
    <r_h> [Ang]:                  [ -0.000000,   0.000000,   0.000000]
    <r_e> [Ang]:                  [ -0.000000,   0.000000,   0.000000]
    |<r_e - r_h>| [Ang]:            0.000000
    Hole size [Ang]:                1.252829
      Cartesian components [Ang]: [  0.753164,   0.513869,   0.859222]
    Electron size [Ang]:            3.353695
      Cartesian components [Ang]: [  2.393606,   1.815304,   1.490835]
  
  Beta spin:
    <r_h> [Ang]:                  [ -0.000000,   0.000000,   0.000000]
    <r_e> [Ang]:                  [ -0.000000,  -0.000000,   0.000000]
    |<r_e - r_h>| [Ang]:            0.000000
    Hole size [Ang]:                1.253687
      Cartesian components [Ang]: [  0.750101,   0.511982,   0.864264]
    Electron size [Ang]:            3.463882
      Cartesian components [Ang]: [  2.447494,   1.882882,   1.569397]
  ----------------------------------------------------------------------------


  Electron-attached state 8 (B2g)                                  [converged]
  ----------------------------------------------------------------------------
  Term symbol:  8 (2) B2g                                   R^2 =  1.52904e-07

  Total energy:                                            -77.9506756841 a.u.
  Electron attachment energy:                                     10.755528 eV

  Pole strength:                                                      0.000265

  Dip. moment [a.u.]:                  [   0.000000,   -0.000001,    0.000000]
  Total dipole [Debye]:                                               0.000003
  <r^2> [a.u.]:                        [  84.665870,   54.256288,   24.191513]
  Total <r^2> [a.u.]:                                               163.113672

  V1^2 = 0.0003, V2^2 = 0.9997

  Important amplitudes:
       occ i       vir a        vir b           v   
    -------------------------------------------------
     1 (B1u) B    2 (B1g) B    2 (B2u) B      0.4382
     1 (B1u) B    5 (Ag ) B    3 (B3u) B      0.3198
    -------------------------------------------------

  Density matrix analysis:
  ------------------------
  NOs (alpha)
    Occupation of frontier NOs:
       0.1400   0.6212
    Number of electrons:  8.000000
  NOs (beta)
    Occupation of frontier NOs:
       0.3206   0.4855
    Number of electrons:  9.000000
  NOs (spin-traced)
    Occupation of frontier NOs:
       0.6255   0.6268
    Number of electrons: 17.000000
    Number of unpaired electrons: n_u =  3.29056, n_u,nl =  3.14537
    NO participation ratio (PR_NO):  5.671908
  
  
  Mulliken Population Analysis
  Atom  Charge (e)    Spin (e)  h+ (alpha)   h+ (beta)  e- (alpha)   e- (beta)
  ----------------------------------------------------------------------------
   1 C   -0.592646    0.401867    0.172522    0.321200   -0.151421   -0.701966
   2 C   -0.592646    0.401867    0.172522    0.321200   -0.151421   -0.701966
   3 H    0.046317    0.049066    0.001142    0.001932   -0.011692   -0.061549
   4 H    0.046335    0.049067    0.001142    0.001932   -0.011692   -0.061549
   5 H    0.046329    0.049067    0.001142    0.001932   -0.011692   -0.061549
   6 H    0.046311    0.049066    0.001142    0.001932   -0.011692   -0.061549
  ----------------------------------------------------------------------------
  Sum:   -1.000000    1.000000    0.349609    0.650129   -0.349609   -1.650129
  
  Multipole moment analysis of the density matrix
    Molecular charge:                      -1.000000
    Number of electrons:                   17.000000
      Center of electronic charge [Ang]: [ -0.000000,   0.000000,  -0.000000]
    Total nuclear charge:                  16.000000
      Center of nuclear charge [Ang]:    [  0.000000,   0.000000,   0.000000]
    Dipole moment [D]:                     0.000003
      Cartesian components [D]:          [  0.000000,  -0.000003,   0.000000]
    RMS size of the density [Ang]:         1.639162
      Cartesian components [Ang]:        [  1.180948,   0.945370,   0.631260]
  
  Exciton analysis of the difference density matrix
  Total:
    <r_h> [Ang]:                  [ -0.000000,   0.000000,   0.000000]
    <r_e> [Ang]:                  [ -0.000000,   0.000000,  -0.000000]
    |<r_e - r_h>| [Ang]:            0.000000
    Hole size [Ang]:                1.252646
      Cartesian components [Ang]: [  0.749264,   0.511128,   0.863987]
    Electron size [Ang]:            3.488240
      Cartesian components [Ang]: [  2.332620,   2.150989,   1.449120]
  
  Alpha spin:
    <r_h> [Ang]:                  [ -0.000000,   0.000000,   0.000000]
    <r_e> [Ang]:                  [ -0.000000,   0.000000,  -0.000000]
    |<r_e - r_h>| [Ang]:            0.000000
    Hole size [Ang]:                1.253161
      Cartesian components [Ang]: [  0.750217,   0.511890,   0.863456]
    Electron size [Ang]:            3.536734
      Cartesian components [Ang]: [  2.416149,   2.141032,   1.444538]
  
  Beta spin:
    <r_h> [Ang]:                  [  0.000000,   0.000000,   0.000000]
    <r_e> [Ang]:                  [ -0.000000,   0.000000,  -0.000000]
    |<r_e - r_h>| [Ang]:            0.000000
    Hole size [Ang]:                1.252369
      Cartesian components [Ang]: [  0.748751,   0.510717,   0.864273]
    Electron size [Ang]:            3.477879
      Cartesian components [Ang]: [  2.314536,   2.153092,   1.450089]
  ----------------------------------------------------------------------------


  Electron-attached state 9 (B2g)                                  [converged]
  ----------------------------------------------------------------------------
  Term symbol:  9 (2) B2g                                   R^2 =  2.12212e-06

  Total energy:                                            -77.9343014583 a.u.
  Electron attachment energy:                                     11.201093 eV

  Pole strength:                                                      0.050917

  Dip. moment [a.u.]:                  [  -0.000000,    0.000001,   -0.000000]
  Total dipole [Debye]:                                               0.000002
  <r^2> [a.u.]:                        [  86.558991,   42.839842,   25.432770]
  Total <r^2> [a.u.]:                                               154.831603

  V1^2 = 0.0510, V2^2 = 0.9490

  Important amplitudes:
       occ i       vir a        vir b           v   
    -------------------------------------------------
     1 (B1u) A    4 (B3u) A    4 (Ag ) B     -0.2544
     1 (B1u) A    4 (Ag ) A    4 (B3u) B     -0.2486
    -------------------------------------------------

  Density matrix analysis:
  ------------------------
  NOs (alpha)
    Occupation of frontier NOs:
       0.2077   0.2472
    Number of electrons:  8.000000
  NOs (beta)
    Occupation of frontier NOs:
       0.2060   0.2365
    Number of electrons:  9.000000
  NOs (spin-traced)
    Occupation of frontier NOs:
       0.4129   0.4831
    Number of electrons: 17.000000
    Number of unpaired electrons: n_u =  3.30639, n_u,nl =  2.65878
    NO participation ratio (PR_NO):  7.623526
  
  
  Mulliken Population Analysis
  Atom  Charge (e)    Spin (e)  h+ (alpha)   h+ (beta)  e- (alpha)   e- (beta)
  ----------------------------------------------------------------------------
   1 C   -0.637711    0.482160    0.449004    0.007056   -0.410290   -0.450502
   2 C   -0.637711    0.482160    0.449004    0.007056   -0.410290   -0.450502
   3 H    0.068849    0.008920    0.009453    0.000124   -0.028810   -0.028401
   4 H    0.068868    0.008920    0.009453    0.000124   -0.028811   -0.028402
   5 H    0.068862    0.008920    0.009453    0.000124   -0.028810   -0.028401
   6 H    0.068844    0.008920    0.009453    0.000124   -0.028810   -0.028401
  ----------------------------------------------------------------------------
  Sum:   -1.000000    1.000000    0.935820    0.014608   -0.935820   -1.014608
  
  Multipole moment analysis of the density matrix
    Molecular charge:                      -1.000000
    Number of electrons:                   17.000000
      Center of electronic charge [Ang]: [  0.000000,   0.000000,   0.000000]
    Total nuclear charge:                  16.000000
      Center of nuclear charge [Ang]:    [  0.000000,   0.000000,   0.000000]
    Dipole moment [D]:                     0.000002
      Cartesian components [D]:          [ -0.000000,   0.000002,  -0.000000]
    RMS size of the density [Ang]:         1.597006
      Cartesian components [Ang]:        [  1.194078,   0.840041,   0.647252]
  
  Exciton analysis of the difference density matrix
  Total:
    <r_h> [Ang]:                  [  0.000000,   0.000000,  -0.000000]
    <r_e> [Ang]:                  [  0.000000,  -0.000000,   0.000000]
    |<r_e - r_h>| [Ang]:            0.000000
    Hole size [Ang]:                1.252617
      Cartesian components [Ang]: [  0.788087,   0.524937,   0.820005]
    Electron size [Ang]:            3.353602
      Cartesian components [Ang]: [  2.421851,   1.762100,   1.508737]
  
  Alpha spin:
    <r_h> [Ang]:                  [  0.000000,   0.000000,  -0.000000]
    <r_e> [Ang]:                  [  0.000000,  -0.000000,   0.000000]
    |<r_e - r_h>| [Ang]:            0.000000
    Hole size [Ang]:                1.252743
      Cartesian components [Ang]: [  0.787142,   0.524170,   0.821594]
    Electron size [Ang]:            3.373379
      Cartesian components [Ang]: [  2.426216,   1.796461,   1.505286]
  
  Beta spin:
    <r_h> [Ang]:                  [  0.000000,   0.000000,   0.000000]
    <r_e> [Ang]:                  [  0.000000,  -0.000000,   0.000000]
    |<r_e - r_h>| [Ang]:            0.000000
    Hole size [Ang]:                1.244505
      Cartesian components [Ang]: [  0.846409,   0.571900,   0.710855]
    Electron size [Ang]:            3.335258
      Cartesian components [Ang]: [  2.417819,   1.729803,   1.511912]
  ----------------------------------------------------------------------------


  Electron-attached state 10 (B2g)                                  [converged]
  ----------------------------------------------------------------------------
  Term symbol:  10 (2) B2g                                  R^2 =  6.56170e-06

  Total energy:                                            -77.9272199344 a.u.
  Electron attachment energy:                                     11.393791 eV

  Pole strength:                                                      0.122110

  Dip. moment [a.u.]:                  [  -0.000000,    0.000001,   -0.000000]
  Total dipole [Debye]:                                               0.000002
  <r^2> [a.u.]:                        [  76.478027,   37.064051,   24.280306]
  Total <r^2> [a.u.]:                                               137.822384

  V1^2 = 0.1223, V2^2 = 0.8777

  Important amplitudes:
       occ i       vir a        vir b           v   
    -------------------------------------------------
                               3 (B2g) B     -0.3366
     3 (Ag ) A    4 (Ag ) A    1 (B2g) B     -0.2727
    -------------------------------------------------

  Density matrix analysis:
  ------------------------
  NOs (alpha)
    Occupation of frontier NOs:
       0.3251   0.5125
    Number of electrons:  8.000000
  NOs (beta)
    Occupation of frontier NOs:
       0.2089   0.3818
    Number of electrons:  9.000000
  NOs (spin-traced)
    Occupation of frontier NOs:
       0.5331   0.5987
    Number of electrons: 17.000000
    Number of unpaired electrons: n_u =  3.16448, n_u,nl =  2.73618
    NO participation ratio (PR_NO):  8.355552
  
  
  Mulliken Population Analysis
  Atom  Charge (e)    Spin (e)  h+ (alpha)   h+ (beta)  e- (alpha)   e- (beta)
  ----------------------------------------------------------------------------
   1 C   -0.770642    0.401723    0.341585    0.022594   -0.409554   -0.492287
   2 C   -0.770642    0.401723    0.341585    0.022594   -0.409554   -0.492287
   3 H    0.135315    0.049138    0.037221    0.001306   -0.003236   -0.016460
   4 H    0.135333    0.049138    0.037221    0.001306   -0.003237   -0.016460
   5 H    0.135327    0.049138    0.037221    0.001306   -0.003237   -0.016460
   6 H    0.135309    0.049138    0.037221    0.001306   -0.003236   -0.016460
  ----------------------------------------------------------------------------
  Sum:   -1.000000    1.000000    0.832055    0.050413   -0.832055   -1.050413
  
  Multipole moment analysis of the density matrix
    Molecular charge:                      -1.000000
    Number of electrons:                   17.000000
      Center of electronic charge [Ang]: [  0.000000,   0.000000,   0.000000]
    Total nuclear charge:                  16.000000
      Center of nuclear charge [Ang]:    [  0.000000,   0.000000,   0.000000]
    Dipole moment [D]:                     0.000002
      Cartesian components [D]:          [ -0.000000,   0.000002,  -0.000000]
    RMS size of the density [Ang]:         1.506734
      Cartesian components [Ang]:        [  1.122393,   0.781363,   0.632417]
  
  Exciton analysis of the difference density matrix
  Total:
    <r_h> [Ang]:                  [  0.000000,   0.000000,  -0.000000]
    <r_e> [Ang]:                  [  0.000000,  -0.000000,   0.000000]
    |<r_e - r_h>| [Ang]:            0.000000
    Hole size [Ang]:                1.282066
      Cartesian components [Ang]: [  0.966574,   0.588382,   0.602689]
    Electron size [Ang]:            3.016753
      Cartesian components [Ang]: [  2.168388,   1.543073,   1.420499]
  
  Alpha spin:
    <r_h> [Ang]:                  [  0.000000,   0.000000,  -0.000000]
    <r_e> [Ang]:                  [  0.000000,  -0.000000,   0.000000]
    |<r_e - r_h>| [Ang]:            0.000001
    Hole size [Ang]:                1.282016
      Cartesian components [Ang]: [  0.967034,   0.587625,   0.602583]
    Electron size [Ang]:            3.190262
      Cartesian components [Ang]: [  2.354131,   1.624888,   1.412649]
  
  Beta spin:
    <r_h> [Ang]:                  [  0.000000,   0.000000,   0.000000]
    <r_e> [Ang]:                  [  0.000000,  -0.000000,   0.000000]
    |<r_e - r_h>| [Ang]:            0.000000
    Hole size [Ang]:                1.282898
      Cartesian components [Ang]: [  0.958955,   0.600743,   0.604434]
    Electron size [Ang]:            2.871882
      Cartesian components [Ang]: [  2.009104,   1.475049,   1.426687]
  ----------------------------------------------------------------------------


--------------------------------------------------------------------------------
  Time of ADC calculation:  CPU 213.53 s  wall 49.84 s
================================================================================
 
 --------------------------------------------------------------
             Orbital Energies (a.u.) and Symmetries
 --------------------------------------------------------------
 
 Alpha MOs, Restricted
 -- Occupied --                  
-11.237 -11.235  -1.042  -0.782  -0.660  -0.567  -0.515  -0.377
  1 Ag    1 B3u   2 Ag    2 B3u   1 B2u   3 Ag    1 B1g   1 B1u                
 -- Virtual --                   
  0.084   0.092   0.094   0.104   0.107   0.130   0.147   0.198
  3 B3u   4 Ag    2 B2u   1 B2g   2 B1u   2 B1g   5 Ag    2 B2g                
  0.216   0.262   0.325   0.338   0.359   0.379   0.379   0.396
  4 B3u   6 Ag    3 B2u   5 B3u   6 B3u   4 B2u   7 Ag    3 B1u                
  0.414   0.482   0.544   0.619   0.839   0.848   0.930   0.988
  3 B1g   3 B2g   4 B1g   7 B3u   8 Ag    5 B2u   8 B3u   9 Ag                 
  1.030   1.090   1.113   1.114   1.149   1.179   1.228   1.285
  5 B1g  10 Ag    6 B2u   1 B3g   9 B3u   4 B1u   4 B2g   1 Au                 
  1.297   1.329   1.482   1.625   1.739   1.741   1.880   1.945
  5 B1u  10 B3u   6 B1g  11 Ag    7 B2u   7 B1g   5 B2g   6 B1u                
  1.970   2.017   2.088   2.103   2.184   2.334   2.412   2.479
 11 B3u   2 B3g  12 Ag    8 B2u   6 B2g  12 B3u   2 Au   13 Ag                 
  2.558   2.582   2.863   2.864   3.282   3.350
  8 B1g  13 B3u  14 Ag    9 B2u  14 B3u   9 B1g                                
 
 Beta MOs, Restricted
 -- Occupied --                  
-11.237 -11.235  -1.042  -0.782  -0.660  -0.567  -0.515  -0.377
  1 Ag    1 B3u   2 Ag    2 B3u   1 B2u   3 Ag    1 B1g   1 B1u                
 -- Virtual --                   
  0.084   0.092   0.094   0.104   0.107   0.130   0.147   0.198
  3 B3u   4 Ag    2 B2u   1 B2g   2 B1u   2 B1g   5 Ag    2 B2g                
  0.216   0.262   0.325   0.338   0.359   0.379   0.379   0.396
  4 B3u   6 Ag    3 B2u   5 B3u   6 B3u   4 B2u   7 Ag    3 B1u                
  0.414   0.482   0.544   0.619   0.839   0.848   0.930   0.988
  3 B1g   3 B2g   4 B1g   7 B3u   8 Ag    5 B2u   8 B3u   9 Ag                 
  1.030   1.090   1.113   1.114   1.149   1.179   1.228   1.285
  5 B1g  10 Ag    6 B2u   1 B3g   9 B3u   4 B1u   4 B2g   1 Au                 
  1.297   1.329   1.482   1.625   1.739   1.741   1.880   1.945
  5 B1u  10 B3u   6 B1g  11 Ag    7 B2u   7 B1g   5 B2g   6 B1u                
  1.970   2.017   2.088   2.103   2.184   2.334   2.412   2.479
 11 B3u   2 B3g  12 Ag    8 B2u   6 B2g  12 B3u   2 Au   13 Ag                 
  2.558   2.582   2.863   2.864   3.282   3.350
  8 B1g  13 B3u  14 Ag    9 B2u  14 B3u   9 B1g                                
 --------------------------------------------------------------
 
          Ground-State Mulliken Net Atomic Charges

     Atom                 Charge (a.u.)
  ----------------------------------------
      1 C                    -0.217250
      2 C                    -0.217250
      3 H                     0.108619
      4 H                     0.108638
      5 H                     0.108632
      6 H                     0.108612
  ----------------------------------------
  Sum of atomic charges =     0.000000

 -----------------------------------------------------------------
                    Cartesian Multipole Moments
 -----------------------------------------------------------------
    Charge (ESU x 10^10)
                -0.0000
    Dipole Moment (Debye)
         X      -0.0000      Y      -0.0000      Z       0.0000
       Tot       0.0000
    Quadrupole Moments (Debye-Ang)
        XX     -12.9044     XY       0.0000     YY     -11.9558
        XZ       0.0000     YZ      -0.0000     ZZ     -16.1516
    Octopole Moments (Debye-Ang^2)
       XXX       0.0000    XXY      -0.0000    XYY       0.0000
       YYY      -0.0000    XXZ      -0.0000    XYZ       0.0000
       YYZ      -0.0000    XZZ       0.0000    YZZ      -0.0000
       ZZZ      -0.0000
    Hexadecapole Moments (Debye-Ang^3)
      XXXX     -67.9224   XXXY       0.0000   XXYY     -13.1359
      XYYY       0.0000   YYYY     -26.8055   XXXZ      -0.0000
      XXYZ       0.0000   XYYZ       0.0000   YYYZ      -0.0000
      XXZZ     -15.6261   XYZZ       0.0000   YYZZ      -9.0169
      XZZZ       0.0000   YZZZ      -0.0000   ZZZZ     -21.7255
 -----------------------------------------------------------------
 Total job time:  133.42s(wall), 256.29s(cpu) 
 Sun Mar 27 22:29:58 2022

        *************************************************************
        *                                                           *
        *  Thank you very much for using Q-Chem.  Have a nice day.  *
        *                                                           *
        *************************************************************


