This is a multi-thread run using 8 threads
/src/tsommerfeld/qchem/exe/qcprog.exe .input1.555556.12770.qcin.1 /src/jdavis/qchem.scratch/qchem12770/

                  Welcome to Q-Chem
     A Quantum Leap Into The Future Of Chemistry


 Q-Chem 5.4 (devel), Q-Chem, Inc., Pleasanton, CA (2021)

 E. Epifanovsky,  A. T. B. Gilbert,  Xintian Feng,  Joonho Lee,  Yuezhi Mao,  
 N. Mardirossian,  P. Pokhilko,  A. White,  M. Wormit,  M. P. Coons,  
 A. L. Dempwolff,  Zhengting Gan,  D. Hait,  P. R. Horn,  L. D. Jacobson,  
 I. Kaliman,  J. Kussmann,  A. W. Lange,  Ka Un Lao,  D. S. Levine,  Jie Liu,  
 S. C. McKenzie,  A. F. Morrison,  K. Nanda,  F. Plasser,  D. R. Rehn,  
 M. L. Vidal,  Zhi-Qiang You,  Ying Zhu,  B. Alam,  B. Albrecht,  
 A. Aldossary,  E. Alguire,  J. H. Andersen,  D. Barton,  K. Begam,  A. Behn,  
 Y. A. Bernard,  E. J. Berquist,  H. Burton,  A. Carreras,  K. Carter-Fenk,  
 R. Chakraborty,  A. D. Chien,  K. D. Closser,  V. Cofer-Shabica,  
 S. Dasgupta,  Jia Deng,  M. de Wergifosse,  M. Diedenhofen,  Hainam Do,  
 S. Ehlert,  Po-Tung Fang,  S. Fatehi,  Qingguo Feng,  T. Friedhoff,  
 J. Gayvert,  Qinghui Ge,  G. Gidofalvi,  M. Goldey,  J. Gomes,  
 C. Gonzalez-Espinoza,  S. Gulania,  A. Gunina,  M. W. D. Hanson-Heine,  
 P. H. P. Harbach,  A. W. Hauser,  M. F. Herbst,  M. Hernandez Vera,  
 M. Hodecker,  Z. C. Holden,  S. Houck,  Xunkun Huang,  Kerwin Hui,  
 B. C. Huynh,  M. Ivanov,  Hyunjun Ji,  Hanjie Jiang,  B. Kaduk,  S. Kaehler,  
 K. Khistyaev,  Jaehoon Kim,  P. Klunzinger,  Z. Koczor-Benda,  
 Joong Hoon Koh,  D. Kosenkov,  L. Koulias,  T. Kowalczyk,  C. M. Krauter,  
 K. Kue,  A. Kunitsa,  T. Kus,  A. Landau,  K. V. Lawler,  D. Lefrancois,  
 S. Lehtola,  Rain Li,  Yi-Pei Li,  Jiashu Liang,  M. Liebenthal,  
 Hung-Hsuan Lin,  You-Sheng Lin,  Fenglai Liu,  Kuan-Yu Liu,  
 M. Loipersberger,  A. Luenser,  A. Manjanath,  P. Manohar,  E. Mansoor,  
 S. F. Manzer,  Shan-Ping Mao,  A. V. Marenich,  T. Markovich,  S. Mason,  
 S. A. Maurer,  P. F. McLaughlin,  M. F. S. J. Menger,  J.-M. Mewes,  
 S. A. Mewes,  P. Morgante,  J. W. Mullinax,  K. J. Oosterbaan,  G. Paran,  
 Alexander C. Paul,  Suranjan K. Paul,  F. Pavosevic,  Zheng Pei,  S. Prager,  
 E. I. Proynov,  E. Ramos,  B. Rana,  A. E. Rask,  A. Rettig,  R. M. Richard,  
 F. Rob,  E. Rossomme,  T. Scheele,  M. Scheurer,  M. Schneider,  
 N. Sergueev,  S. M. Sharada,  W. Skomorowski,  D. W. Small,  C. J. Stein,  
 Yu-Chuan Su,  E. J. Sundstrom,  Zhen Tao,  J. Thirman,  T. Tsuchimochi,  
 N. M. Tubman,  S. P. Veccham,  O. Vydrov,  J. Wenzel,  J. Witte,  A. Yamada,  
 Kun Yao,  S. Yeganeh,  S. R. Yost,  A. Zech,  Igor Ying Zhang,  Xing Zhang,  
 Yu Zhang,  D. Zuev,  A. Aspuru-Guzik,  A. T. Bell,  N. A. Besley,  
 K. B. Bravaya,  B. R. Brooks,  D. Casanova,  Jeng-Da Chai,  S. Coriani,  
 C. J. Cramer,  A. E. DePrince, III,  R. A. DiStasio Jr.,  A. Dreuw,  
 B. D. Dunietz,  T. R. Furlani,  W. A. Goddard III,  S. Grimme,  
 S. Hammes-Schiffer,  T. Head-Gordon,  W. J. Hehre,  Chao-Ping Hsu,  
 T.-C. Jagau,  Yousung Jung,  A. Klamt,  Jing Kong,  D. S. Lambrecht,  
 WanZhen Liang,  N. J. Mayhall,  C. W. McCurdy,  J. B. Neaton,  
 C. Ochsenfeld,  J. A. Parkhill,  R. Peverati,  V. A. Rassolov,  Yihan Shao,  
 L. V. Slipchenko,  T. Stauch,  R. P. Steele,  J. E. Subotnik,  
 A. J. W. Thom,  A. Tkatchenko,  D. G. Truhlar,  T. Van Voorhis,  
 T. A. Wesolowski,  K. B. Whaley,  H. L. Woodcock III,  P. M. Zimmerman,  
 S. Faraji,  P. M. W. Gill,  M. Head-Gordon,  J. M. Herbert,  A. I. Krylov

 Additional authors for Version 5.4.1: 
 S. Kotaru,  Shaozhi Li,  Xiangyuan Li,  F. Matz,  A. Molle,  Haisheng Ren,  
 Yingli Su,  Hung-Yi Tsai,  C. Utku,  Fang Wang

 Contributors to earlier versions of Q-Chem not listed above: 
 R. D. Adamson,  B. Austin,  R. Baer,  J. Baker,  G. J. O. Beran,  
 K. Brandhorst,  S. T. Brown,  E. F. C. Byrd,  A. K. Chakraborty,  
 G. K. L. Chan,  Chun-Min Chang,  Yunqing Chen,  C.-L. Cheng,  
 Siu Hung Chien,  D. M. Chipman,  D. L. Crittenden,  H. Dachsel,  
 R. J. Doerksen,  A. D. Dutoi,  R. G. Edgar,  J. Fosso-Tande,  
 L. Fusti-Molnar,  D. Ghosh,  A. Ghysels,  A. Golubeva-Zadorozhnaya,  
 J. Gonthier,  M. S. Gordon,  S. R. Gwaltney,  G. Hawkins,  J. E. Herr,  
 A. Heyden,  S. Hirata,  E. G. Hohenstein,  G. Kedziora,  F. J. Keil,  
 C. Kelley,  Jihan Kim,  R. A. King,  R. Z. Khaliullin,  P. P. Korambath,  
 W. Kurlancheek,  A. Laurent,  A. M. Lee,  M. S. Lee,  S. V. Levchenko,  
 Ching Yeh Lin,  D. Liotard,  E. Livshits,  R. C. Lochan,  I. Lotan,  
 L. A. Martinez-Martinez,  P. E. Maslen,  N. Nair,  D. P. O'Neill,  
 D. Neuhauser,  E. Neuscamman,  C. M. Oana,  R. Olivares-Amaya,  R. Olson,  
 T. M. Perrine,  B. Peters,  P. A. Pieniazek,  A. Prociuk,  Y. M. Rhee,  
 J. Ritchie,  M. A. Rohrdanz,  E. Rosta,  N. J. Russ,  H. F. Schaefer III,  
 M. W. Schmidt,  N. E. Schultz,  S. Sharma,  N. Shenvi,  C. D. Sherrill,  
 A. C. Simmonett,  A. Sodt,  T. Stein,  D. Stuck,  K. S. Thanthiriwatte,  
 V. Vanovschi,  L. Vogt,  Tao Wang,  A. Warshel,  M. A. Watson,  
 C. F. Williams,  Q. Wu,  X. Xu,  Jun Yang,  W. Zhang,  Yan Zhao

 Please cite Q-Chem as follows:
 Y. Shao et al., Mol. Phys. 113, 184-215 (2015)
 DOI: 10.1080/00268976.2014.952696

 Q-Chem 5.4.1 for Intel X86 EM64T Linux

 Parts of Q-Chem use Armadillo 9.900.5 (Nocturnal Misbehaviour).
 http://arma.sourceforge.net/

 Q-Chem begins on Sun Mar 27 22:32:12 2022  

 Host: node01
0

     Scratch files written to /src/jdavis/qchem.scratch/qchem12770//
 Processing $rem in /src/tsommerfeld/qchem/config/preferences:
 Processing $rem in /home/jdavis/.qchemrc:

 Checking the input file for inconsistencies... 	...done.

--------------------------------------------------------------
User input:
--------------------------------------------------------------
$molecule
0 1
C        -0.6645000000    0.0000000000   -0.2082049804
C         0.6645000000    0.0000000000   -0.2082049804
H        -1.1590800000    0.0000000000    0.7541440196
H         1.1590800000    0.0000000000    0.7541440196
H        -1.1590800000    0.0000000000   -1.1705529804
H         1.1590800000    0.0000000000   -1.1705529804
$end

$rem
   METHOD adc(3)
   BASIS gen
   PURECART 11
   EA_STATES [0,0,10,0,0,0,0,0]
   scf_convergence 8
   ADC_DAVIDSON_MAXITER 120
   ADC_DAVIDSON_MAXSUBSPACE 200
   adc_nguess_singles 100
   THRESH 14
   S2THRESH 14
   adc_davidson_conv 5
   adc_davidson_thresh 14
   THREADS 10
   MEM_TOTAL 95000
   STATE_ANALYSIS TRUE
$end
$basis
C 1
S   9   1.00
      6.665000D+03           6.920000D-04
      1.000000D+03           5.329000D-03
      2.280000D+02           2.707700D-02
      6.471000D+01           1.017180D-01
      2.106000D+01           2.747400D-01
      7.495000D+00           4.485640D-01
      2.797000D+00           2.850740D-01
      5.215000D-01           1.520400D-02
      1.596000D-01          -3.191000D-03
S   9   1.00
      6.665000D+03          -1.460000D-04
      1.000000D+03          -1.154000D-03
      2.280000D+02          -5.725000D-03
      6.471000D+01          -2.331200D-02
      2.106000D+01          -6.395500D-02
      7.495000D+00          -1.499810D-01
      2.797000D+00          -1.272620D-01
      5.215000D-01           5.445290D-01
      1.596000D-01           5.804960D-01
S   1   1.00
      1.596000D-01           1.000000D+00
S   1   1.00
      0.0469000              1.0000000
P   4   1.00
      9.439000D+00           3.810900D-02
      2.002000D+00           2.094800D-01
      5.456000D-01           5.085570D-01
      1.517000D-01           4.688420D-01
P   1   1.00
      1.517000D-01           1.000000D+00
P   1   1.00
      0.0943911      1.0000000
P   1   1.00
      0.0471956      1.0000000
D   1   1.00
      5.500000D-01           1.0000000
****
C 2
S   9   1.00
      6.665000D+03           6.920000D-04
      1.000000D+03           5.329000D-03
      2.280000D+02           2.707700D-02
      6.471000D+01           1.017180D-01
      2.106000D+01           2.747400D-01
      7.495000D+00           4.485640D-01
      2.797000D+00           2.850740D-01
      5.215000D-01           1.520400D-02
      1.596000D-01          -3.191000D-03
S   9   1.00
      6.665000D+03          -1.460000D-04
      1.000000D+03          -1.154000D-03
      2.280000D+02          -5.725000D-03
      6.471000D+01          -2.331200D-02
      2.106000D+01          -6.395500D-02
      7.495000D+00          -1.499810D-01
      2.797000D+00          -1.272620D-01
      5.215000D-01           5.445290D-01
      1.596000D-01           5.804960D-01
S   1   1.00
      1.596000D-01           1.000000D+00
S   1   1.00
      0.0469000              1.0000000
P   4   1.00
      9.439000D+00           3.810900D-02
      2.002000D+00           2.094800D-01
      5.456000D-01           5.085570D-01
      1.517000D-01           4.688420D-01
P   1   1.00
      1.517000D-01           1.000000D+00
P   1   1.00
      0.0943911      1.0000000
P   1   1.00
      0.0471956      1.0000000
D   1   1.00
      5.500000D-01           1.0000000
****
H 3
cc-pVDZ
****
H 4
cc-pVDZ
****
H 5
cc-pVDZ
****
H 6
cc-pVDZ
****
H 7
aug-cc-pVDZ
****
$end
--------------------------------------------------------------
 Atom   2: ( -0.6645000000, -0.0000001250,  0.0000000000)
         ->( -0.6645000000,  0.0000001250, -0.0000000000)
 Atom   1: (  0.6645000000, -0.0000001250, -0.0000000000)
         ->(  0.6645000000,  0.0000000000,  0.0000000000)
 Atom   6: ( -1.1590800000, -0.9623481250, -0.0000000000)
         ->( -1.1590800000, -0.9623488750,  0.0000000000)
 Atom   5: (  1.1590800000, -0.9623481250, -0.0000000000)
         ->(  1.1590800000, -0.9623488750, -0.0000000000)
 ----------------------------------------------------------------
             Standard Nuclear Orientation (Angstroms)
    I     Atom           X                Y                Z
 ----------------------------------------------------------------
    1      C       0.6645000000     0.0000000000     0.0000000000
    2      C      -0.6645000000     0.0000001250    -0.0000000000
    3      H       1.1590800000     0.9623488750     0.0000000000
    4      H      -1.1590800000     0.9623488750     0.0000000000
    5      H       1.1590800000    -0.9623488750    -0.0000000000
    6      H      -1.1590800000    -0.9623488750     0.0000000000
 ----------------------------------------------------------------
 Molecular Point Group                 D2h   NOp =  8
 Largest Abelian Subgroup              D2h   NOp =  8
 Nuclear Repulsion Energy =          33.58921667 hartrees
 There are        8 alpha and        8 beta electrons
 Requested basis set is non-standard
 There are 30 shells and 62 basis functions
 Total memory of 95000 MB is distributed as follows: 
   MEM_STATIC is set to 192 MB
   QALLOC/CCMAN JOB total memory use is  94808 MB
 Warning: actual memory use might exceed 95000 MB

 Total QAlloc Memory Limit  95000 MB
 Mega-Array Size       188 MB
 MEM_STATIC part       192 MB

                       Distance Matrix (Angstroms)
             C (  1)   C (  2)   H (  3)   H (  4)   H (  5)
   C (  2)  1.329000
   H (  3)  1.082000  2.061931
   H (  4)  2.061931  1.082000  2.318160
   H (  5)  1.082000  2.061931  1.924698  3.013026
   H (  6)  2.061931  1.082000  3.013026  1.924698  2.318160
 
 A cutoff of  1.0D-14 yielded    465 shell pairs
 There are      2009 function pairs (      2146 Cartesian)
 Smallest overlap matrix eigenvalue = 1.81E-04

 Scale SEOQF with 1.000000e-01/1.000000e-01/1.000000e-01

 Standard Electronic Orientation quadrupole field applied
 Nucleus-field energy     =     0.0000000006 hartrees
 ================ Generating on-the-fly SAD Guess ================
Attempting to make child job directory: /src/jdavis/qchem.scratch/qchem12770//Frg1/
Attempting to make child job directory: /src/jdavis/qchem.scratch/qchem12770//Frg2/
Creating input file /src/jdavis/qchem.scratch/qchem12770/Frg1.input
using default PutDataFrgm: nothing
calling putenv with: QCSCRATCH=/src/jdavis/qchem.scratch/qchem12770/ 
Spawning Job For Fragment 0
Done Job For Fragment 0
calling putenv with: QCSCRATCH=/src/jdavis/qchem.scratch 
calling putenv with: QCTHREADS=8 
Creating input file /src/jdavis/qchem.scratch/qchem12770/Frg2.input
using default PutDataFrgm: nothing
calling putenv with: QCSCRATCH=/src/jdavis/qchem.scratch/qchem12770/ 
Spawning Job For Fragment 1
Done Job For Fragment 1
calling putenv with: QCSCRATCH=/src/jdavis/qchem.scratch 
calling putenv with: QCTHREADS=8 
 Time for running child jobs:  CPU 1.77 s  wall 55.49 s
 ============= Method Specific SAD Guess Constructed =============
 Guess from on-the-fly superposition of atomic densities
 Warning: Energy on first SCF cycle will be non-variational
 A restricted Hartree-Fock SCF calculation will be
 performed using Pulay DIIS extrapolation
 SCF converges when DIIS error is below 1.0E-08
 using 10 threads for integral computing
 -------------------------------------------------------
 OpenMP Integral computing Module                
 Release: version 1.0, May 2013, Q-Chem Inc. Pittsburgh 
 -------------------------------------------------------
 ---------------------------------------
  Cycle       Energy         DIIS Error
 ---------------------------------------
    1     -78.4593605286      7.95E-02
    2     -78.0145781000      5.76E-03
    3     -78.0358620094      1.52E-03
    4     -78.0374985371      5.03E-04
    5     -78.0376683718      6.07E-05
    6     -78.0376731198      1.29E-05
    7     -78.0376735132      3.05E-06
    8     -78.0376735888      2.77E-07
    9     -78.0376735962      3.54E-08
   10     -78.0376735967      3.72E-09 Convergence criterion met
 ---------------------------------------
 SCF time:  CPU 7.95 s  wall 0.80 s
 SCF   energy in the final basis set = -78.03767360
 Total energy in the final basis set = -78.03767360
================================================================================
|                                                                              |
|                                 A D C  M A N                                 |
|                                                                              |
 ------------------------------------------------------------------------------ 
|                                                                              |
| Components:                                                                  |
|                                                                              |
| - libvmm - 1.3-trunk                                                         |
|   Authors:                                                                   |
|   Evgeny Epifanovsky, Ilya Kaliman                                           |
|                                                                              |
| - libtensor - 2.5-trunk                                                      |
|   Authors:                                                                   |
|   Evgeny Epifanovsky, Michael Wormit, Dmitry Zuev, Sam Manzer,               |
|   Ilya Kaliman                                                               |
|                                                                              |
| - libwfa - 1.1-trunk                                                         |
|   Authors:                                                                   |
|   Felix Plasser, Stefanie Mewes (Baeppler), Benjamin Thomitzni,              |
|   Michael Wormit, Feng Chen, Anna I. Krylov, Pavel Pokhilko                  |
|                                                                              |
| - libadc - 1.1-trunk                                                         |
|   Authors:                                                                   |
|   Michael Wormit, Adrian L. Dempwolff, Philipp H. P. Harbach,                |
|   Caroline Krauter, Dirk Rehn, Matthias Schneider, Jan Wenzel                |
|                                                                              |
| - adcman - 2.6-trunk                                                         |
|   Authors:                                                                   |
|   Michael Wormit, Adrian L. Dempwolff, Philipp H. P. Harbach,                |
|   Caroline Krauter, Daniel Lefrancois, Jan-Michael Mewes, Dirk Rehn,         |
|   Matthias Schneider, Jan Wenzel, Andreas Dreuw                              |
|                                                                              |
| Authors of earlier versions of ADCMAN:                                       |
| Andreas Dreuw, Jan Hendrik Starcke, Dirk Rehn, Michael Wormit                |
|                                                                              |
================================================================================

 
 Alpha MOs, Restricted
 -- Occupied --                  
-11.237 -11.235  -1.042  -0.782  -0.660  -0.567  -0.515  -0.377
  1 Ag    1 B3u   2 Ag    2 B3u   1 B2u   3 Ag    1 B1g   1 B1u                
 -- Virtual --                   
  0.089   0.094   0.097   0.105   0.110   0.134   0.151   0.202
  3 B3u   4 Ag    2 B2u   1 B2g   2 B1u   2 B1g   5 Ag    2 B2g                
  0.214   0.262   0.326   0.343   0.360   0.389   0.390   0.408
  4 B3u   6 Ag    3 B2u   5 B3u   6 B3u   4 B2u   7 Ag    3 B1u                
  0.427   0.495   0.546   0.619   0.840   0.848   0.926   0.995
  3 B1g   3 B2g   4 B1g   7 B3u   8 Ag    5 B2u   8 B3u   9 Ag                 
  1.035   1.105   1.114   1.132   1.150   1.196   1.249   1.285
  5 B1g  10 Ag    1 B3g   6 B2u   9 B3u   4 B1u   4 B2g   1 Au                 
  1.301   1.349   1.488   1.627   1.741   1.763   1.881   1.946
  5 B1u  10 B3u   6 B1g  11 Ag    7 B2u   7 B1g   5 B2g   6 B1u                
  1.973   2.017   2.092   2.105   2.185   2.333   2.412   2.481
 11 B3u   2 B3g  12 Ag    8 B2u   6 B2g  12 B3u   2 Au   13 Ag                 
  2.556   2.582   2.870   2.873   3.291   3.353
  8 B1g  13 B3u  14 Ag    9 B2u  14 B3u   9 B1g                                
 
 Beta MOs, Restricted
 -- Occupied --                  
-11.237 -11.235  -1.042  -0.782  -0.660  -0.567  -0.515  -0.377
  1 Ag    1 B3u   2 Ag    2 B3u   1 B2u   3 Ag    1 B1g   1 B1u                
 -- Virtual --                   
  0.089   0.094   0.097   0.105   0.110   0.134   0.151   0.202
  3 B3u   4 Ag    2 B2u   1 B2g   2 B1u   2 B1g   5 Ag    2 B2g                
  0.214   0.262   0.326   0.343   0.360   0.389   0.390   0.408
  4 B3u   6 Ag    3 B2u   5 B3u   6 B3u   4 B2u   7 Ag    3 B1u                
  0.427   0.495   0.546   0.619   0.840   0.848   0.926   0.995
  3 B1g   3 B2g   4 B1g   7 B3u   8 Ag    5 B2u   8 B3u   9 Ag                 
  1.035   1.105   1.114   1.132   1.150   1.196   1.249   1.285
  5 B1g  10 Ag    1 B3g   6 B2u   9 B3u   4 B1u   4 B2g   1 Au                 
  1.301   1.349   1.488   1.627   1.741   1.763   1.881   1.946
  5 B1u  10 B3u   6 B1g  11 Ag    7 B2u   7 B1g   5 B2g   6 B1u                
  1.973   2.017   2.092   2.105   2.185   2.333   2.412   2.481
 11 B3u   2 B3g  12 Ag    8 B2u   6 B2g  12 B3u   2 Au   13 Ag                 
  2.556   2.582   2.870   2.873   3.291   3.353
  8 B1g  13 B3u  14 Ag    9 B2u  14 B3u   9 B1g                                

--------------------------------------------------------------------------------
                                   HF Summary                                   
--------------------------------------------------------------------------------
  Energy:                                                  -78.0376735967 a.u.
  Dip. moment [a.u.]:                  [  -0.000000,   -0.000001,   -0.000000]
  Total dipole [Debye]:                                               0.000001
  <r^2> [a.u.]:                        [  47.704493,   22.116761,   12.009969]
  Total <r^2> [a.u.]:                                                81.831223
--------------------------------------------------------------------------------

--------------------------------------------------------------------------------
                                 MP(2) Summary                                  
--------------------------------------------------------------------------------
  MP energy contribution:                                   -0.2839249722 a.u.
  Total energy:                                            -78.3215985689 a.u.
  Dip. moment [a.u.]:                  [  -0.000000,   -0.000000,   -0.000000]
  Total dipole [Debye]:                                               0.000001
  <r^2> [a.u.]:                        [  47.811171,   22.146903,   11.861859]
  Total <r^2> [a.u.]:                                                81.819934

  Density matrix analysis:
  ------------------------
  NOs (alpha)
    Occupation of frontier NOs:
       0.0224   0.9685
    Number of electrons:  8.000000
  NOs (beta)
    Occupation of frontier NOs:
       0.0224   0.9685
    Number of electrons:  8.000000
  NOs (spin-traced)
    Occupation of frontier NOs:
       0.0448   1.9370
    Number of electrons: 16.000000
    Number of unpaired electrons: n_u =  0.40989, n_u,nl =  0.04613
    NO participation ratio (PR_NO): 13.973079
  
  
  Mulliken Population Analysis
  Atom  Charge (e)    Spin (e)  h+ (alpha)   h+ (beta)  e- (alpha)   e- (beta)
  ----------------------------------------------------------------------------
   1 C   -0.237935   -0.000000    0.043389    0.043389   -0.051371   -0.051371
   2 C   -0.237935   -0.000000    0.043389    0.043389   -0.051371   -0.051371
   3 H    0.118961   -0.000000    0.009229    0.009229   -0.005238   -0.005238
   4 H    0.118980    0.000000    0.009228    0.009228   -0.005238   -0.005238
   5 H    0.118974   -0.000000    0.009229    0.009229   -0.005238   -0.005238
   6 H    0.118955    0.000000    0.009229    0.009229   -0.005238   -0.005238
  ----------------------------------------------------------------------------
  Sum:    0.000000    0.000000    0.123692    0.123692   -0.123692   -0.123692
  
  Multipole moment analysis of the density matrix
    Molecular charge:                      0.000000
    Number of electrons:                   16.000000
      Center of electronic charge [Ang]: [  0.000000,   0.000000,   0.000000]
    Total nuclear charge:                  16.000000
      Center of nuclear charge [Ang]:    [  0.000000,   0.000000,   0.000000]
    Dipole moment [D]:                     0.000001
      Cartesian components [D]:          [ -0.000000,  -0.000001,  -0.000000]
    RMS size of the density [Ang]:         1.196660
      Cartesian components [Ang]:        [  0.914757,   0.622584,   0.455635]
  
  Exciton analysis of the difference density matrix
  Total:
    <r_h> [Ang]:                  [  0.000000,   0.000000,   0.000000]
    <r_e> [Ang]:                  [  0.000000,  -0.000000,   0.000000]
    |<r_e - r_h>| [Ang]:            0.000000
    Hole size [Ang]:                1.409437
      Cartesian components [Ang]: [  0.957762,   0.718831,   0.743295]
    Electron size [Ang]:            1.404897
      Cartesian components [Ang]: [  1.018854,   0.742184,   0.620349]
  
  Alpha spin:
    <r_h> [Ang]:                  [  0.000000,   0.000000,   0.000000]
    <r_e> [Ang]:                  [  0.000000,  -0.000000,   0.000000]
    |<r_e - r_h>| [Ang]:            0.000000
    Hole size [Ang]:                1.409437
      Cartesian components [Ang]: [  0.957762,   0.718831,   0.743295]
    Electron size [Ang]:            1.404897
      Cartesian components [Ang]: [  1.018854,   0.742184,   0.620349]
  
  Beta spin:
    <r_h> [Ang]:                  [  0.000000,   0.000000,   0.000000]
    <r_e> [Ang]:                  [  0.000000,  -0.000000,   0.000000]
    |<r_e - r_h>| [Ang]:            0.000000
    Hole size [Ang]:                1.409437
      Cartesian components [Ang]: [  0.957762,   0.718831,   0.743295]
    Electron size [Ang]:            1.404897
      Cartesian components [Ang]: [  1.018854,   0.742184,   0.620349]
--------------------------------------------------------------------------------

--------------------------------------------------------------------------------
                                 MP(3) Summary                                  
--------------------------------------------------------------------------------
  MP energy contribution:                                   -0.0245229273 a.u.
  Total energy:                                            -78.3461214962 a.u.
--------------------------------------------------------------------------------
Less particle guess vectors found than requested: 6 (found), 100 (requested).
Adjusting number of hole-2particle guess vectors to 94.
  Starting Davidson for electron-attached states of irrep B2g ... 
--------------------------------------------------------------------------------
   It NVec Conv  Avg. Norm  Max. Norm  Conv. states           Remark
--------------------------------------------------------------------------------
       100    0  3.917e-02  2.556e-01  0.1065 n n n n n n n n Guess.
    1  110    0  6.752e-03  3.067e-02  0.0863 n n n n n n n n 
    2  120    0  5.104e-03  4.801e-02  0.0858 n n n n n n n n 
    3  130    0  2.166e-03  2.090e-02  0.0857 n n n n n n n n 
    4  140    0  6.523e-04  6.307e-03  0.0857 n n n n n n n n 
    5  150    0  1.629e-04  1.580e-03  0.0857 n n n n n n n n 
    6  160    5  5.013e-05  4.867e-04  0.0857 y y y y y n n n 
    7  170    8  1.067e-05  1.037e-04  0.0857 y y y y y y y y 
    8  180    9  2.324e-06  2.264e-05  0.0857 y y y y y y y y 
    9  190   10  5.582e-07  5.455e-06  0.0857 y y y y y y y y Converged.
--------------------------------------------------------------------------------
  Davidson Summary: 
 ------------------------------------------------------------
  State  0: electron attachment energy =   0.0857 a.u.   (converged)
  State  1: electron attachment energy =   0.1688 a.u.   (converged)
  State  2: electron attachment energy =   0.2572 a.u.   (converged)
  State  3: electron attachment energy =   0.3187 a.u.   (converged)
  State  4: electron attachment energy =   0.3443 a.u.   (converged)
  State  5: electron attachment energy =   0.3727 a.u.   (converged)
  State  6: electron attachment energy =   0.3808 a.u.   (converged)
  State  7: electron attachment energy =   0.4009 a.u.   (converged)
  State  8: electron attachment energy =   0.4142 a.u.   (converged)
  State  9: electron attachment energy =   0.4216 a.u.   (converged)
 ------------------------------------------------------------


--------------------------------------------------------------------------------
                        Electron-Attached State Summary
--------------------------------------------------------------------------------

  Electron-attached state 1 (B2g)                                  [converged]
  ----------------------------------------------------------------------------
  Term symbol:  1 (2) B2g                                   R^2 =  1.58989e-08

  Total energy:                                            -78.2603874651 a.u.
  Electron attachment energy:                                      2.332942 eV

  Pole strength:                                                      0.940223

  Dip. moment [a.u.]:                  [  -0.000000,   -0.000001,   -0.000000]
  Total dipole [Debye]:                                               0.000002
  <r^2> [a.u.]:                        [  60.357596,   26.956091,   23.573995]
  Total <r^2> [a.u.]:                                               110.887682

  V1^2 = 0.9502, V2^2 = 0.0498

  Important amplitudes:
       occ i       vir a        vir b           v   
    -------------------------------------------------
                               1 (B2g) B     -0.9514
                               2 (B2g) B     -0.2077
    -------------------------------------------------

  Density matrix analysis:
  ------------------------
  NOs (alpha)
    Occupation of frontier NOs:
       0.0194   0.9612
    Number of electrons:  8.000000
  NOs (beta)
    Occupation of frontier NOs:
       0.0262   0.9722
    Number of electrons:  9.000000
  NOs (spin-traced)
    Occupation of frontier NOs:
       0.0366   0.9833
    Number of electrons: 17.000000
    Number of unpaired electrons: n_u =  1.43696, n_u,nl =  1.05084
    NO participation ratio (PR_NO):  2.106417
  
  
  Mulliken Population Analysis
  Atom  Charge (e)    Spin (e)  h+ (alpha)   h+ (beta)  e- (alpha)   e- (beta)
  ----------------------------------------------------------------------------
   1 C   -0.656273    0.552278    0.102449    0.073606   -0.035479   -0.558914
   2 C   -0.656273    0.552278    0.102449    0.073606   -0.035479   -0.558914
   3 H    0.078130   -0.026139    0.000495    0.007374   -0.033980   -0.014720
   4 H    0.078149   -0.026139    0.000495    0.007374   -0.033980   -0.014720
   5 H    0.078143   -0.026139    0.000495    0.007374   -0.033980   -0.014720
   6 H    0.078124   -0.026139    0.000495    0.007374   -0.033980   -0.014720
  ----------------------------------------------------------------------------
  Sum:   -1.000000    1.000000    0.206879    0.176709   -0.206879   -1.176709
  
  Multipole moment analysis of the density matrix
    Molecular charge:                      -1.000000
    Number of electrons:                   17.000000
      Center of electronic charge [Ang]: [  0.000000,   0.000000,   0.000000]
    Total nuclear charge:                  16.000000
      Center of nuclear charge [Ang]:    [  0.000000,   0.000000,   0.000000]
    Dipole moment [D]:                     0.000002
      Cartesian components [D]:          [ -0.000000,  -0.000002,  -0.000000]
    RMS size of the density [Ang]:         1.351507
      Cartesian components [Ang]:        [  0.997109,   0.666354,   0.623151]
  
  Exciton analysis of the difference density matrix
  Total:
    <r_h> [Ang]:                  [  0.000000,   0.000000,   0.000000]
    <r_e> [Ang]:                  [  0.000000,   0.000000,   0.000000]
    |<r_e - r_h>| [Ang]:            0.000000
    Hole size [Ang]:                1.827579
      Cartesian components [Ang]: [  1.179868,   0.921601,   1.048145]
    Electron size [Ang]:            2.609427
      Cartesian components [Ang]: [  1.710337,   1.099464,   1.635553]
  
  Alpha spin:
    <r_h> [Ang]:                  [  0.000000,   0.000000,  -0.000000]
    <r_e> [Ang]:                  [ -0.000000,   0.000000,   0.000000]
    |<r_e - r_h>| [Ang]:            0.000000
    Hole size [Ang]:                1.765222
      Cartesian components [Ang]: [  1.145898,   0.885028,   1.009779]
    Electron size [Ang]:            2.490526
      Cartesian components [Ang]: [  1.493557,   1.353417,   1.462966]
  
  Beta spin:
    <r_h> [Ang]:                  [  0.000000,   0.000000,   0.000000]
    <r_e> [Ang]:                  [  0.000000,   0.000000,   0.000000]
    |<r_e - r_h>| [Ang]:            0.000000
    Hole size [Ang]:                1.897980
      Cartesian components [Ang]: [  1.218435,   0.962654,   1.091349]
    Electron size [Ang]:            2.629775
      Cartesian components [Ang]: [  1.745669,   1.048477,   1.664047]
  ----------------------------------------------------------------------------


  Electron-attached state 2 (B2g)                                  [converged]
  ----------------------------------------------------------------------------
  Term symbol:  2 (2) B2g                                   R^2 =  3.03135e-08

  Total energy:                                            -78.1773021683 a.u.
  Electron attachment energy:                                      4.593808 eV

  Pole strength:                                                      0.908549

  Dip. moment [a.u.]:                  [  -0.000000,   -0.000001,    0.000000]
  Total dipole [Debye]:                                               0.000002
  <r^2> [a.u.]:                        [  65.609192,   28.816847,   29.608494]
  Total <r^2> [a.u.]:                                               124.034534

  V1^2 = 0.9153, V2^2 = 0.0847

  Important amplitudes:
       occ i       vir a        vir b           v   
    -------------------------------------------------
                               2 (B2g) B      0.9167
                               1 (B2g) B     -0.2605
    -------------------------------------------------

  Density matrix analysis:
  ------------------------
  NOs (alpha)
    Occupation of frontier NOs:
       0.0363   0.9232
    Number of electrons:  8.000000
  NOs (beta)
    Occupation of frontier NOs:
       0.0535   0.9352
    Number of electrons:  9.000000
  NOs (spin-traced)
    Occupation of frontier NOs:
       0.0779   0.9472
    Number of electrons: 17.000000
    Number of unpaired electrons: n_u =  1.52993, n_u,nl =  1.10156
    NO participation ratio (PR_NO):  2.527506
  
  
  Mulliken Population Analysis
  Atom  Charge (e)    Spin (e)  h+ (alpha)   h+ (beta)  e- (alpha)   e- (beta)
  ----------------------------------------------------------------------------
   1 C   -0.649802    0.516757    0.107530    0.043964   -0.055085   -0.508276
   2 C   -0.649802    0.516757    0.107530    0.043964   -0.055085   -0.508276
   3 H    0.074895   -0.008378    0.001168    0.002862   -0.027391   -0.020706
   4 H    0.074914   -0.008378    0.001168    0.002862   -0.027391   -0.020706
   5 H    0.074907   -0.008378    0.001168    0.002862   -0.027391   -0.020706
   6 H    0.074888   -0.008378    0.001168    0.002862   -0.027391   -0.020706
  ----------------------------------------------------------------------------
  Sum:   -1.000000    1.000000    0.219734    0.099376   -0.219734   -1.099376
  
  Multipole moment analysis of the density matrix
    Molecular charge:                      -1.000000
    Number of electrons:                   17.000000
      Center of electronic charge [Ang]: [  0.000000,   0.000000,  -0.000000]
    Total nuclear charge:                  16.000000
      Center of nuclear charge [Ang]:    [  0.000000,   0.000000,   0.000000]
    Dipole moment [D]:                     0.000002
      Cartesian components [D]:          [ -0.000000,  -0.000002,   0.000000]
    RMS size of the density [Ang]:         1.429381
      Cartesian components [Ang]:        [  1.039583,   0.688969,   0.698369]
  
  Exciton analysis of the difference density matrix
  Total:
    <r_h> [Ang]:                  [  0.000000,   0.000000,  -0.000000]
    <r_e> [Ang]:                  [  0.000000,   0.000000,  -0.000000]
    |<r_e - r_h>| [Ang]:            0.000000
    Hole size [Ang]:                1.656916
      Cartesian components [Ang]: [  1.083189,   0.835007,   0.935327]
    Electron size [Ang]:            3.102532
      Cartesian components [Ang]: [  2.015467,   1.258811,   1.994742]
  
  Alpha spin:
    <r_h> [Ang]:                  [  0.000000,   0.000000,  -0.000000]
    <r_e> [Ang]:                  [ -0.000000,   0.000000,   0.000000]
    |<r_e - r_h>| [Ang]:            0.000000
    Hole size [Ang]:                1.633396
      Cartesian components [Ang]: [  1.054120,   0.796599,   0.960334]
    Electron size [Ang]:            2.591082
      Cartesian components [Ang]: [  1.496154,   1.335423,   1.640693]
  
  Beta spin:
    <r_h> [Ang]:                  [  0.000000,   0.000000,  -0.000000]
    <r_e> [Ang]:                  [  0.000000,   0.000000,  -0.000000]
    |<r_e - r_h>| [Ang]:            0.000000
    Hole size [Ang]:                1.707773
      Cartesian components [Ang]: [  1.144848,   0.914220,   0.877506]
    Electron size [Ang]:            3.194954
      Cartesian components [Ang]: [  2.103948,   1.242933,   2.058216]
  ----------------------------------------------------------------------------


  Electron-attached state 3 (B2g)                                  [converged]
  ----------------------------------------------------------------------------
  Term symbol:  3 (2) B2g                                   R^2 =  4.96769e-08

  Total energy:                                            -78.0889017302 a.u.
  Electron attachment energy:                                      6.999306 eV

  Pole strength:                                                      0.063774

  Dip. moment [a.u.]:                  [   0.000000,   -0.000001,   -0.000000]
  Total dipole [Debye]:                                               0.000001
  <r^2> [a.u.]:                        [  59.558645,   30.913453,   36.992924]
  Total <r^2> [a.u.]:                                               127.465022

  V1^2 = 0.0645, V2^2 = 0.9355

  Important amplitudes:
       occ i       vir a        vir b           v   
    -------------------------------------------------
     1 (B1u) A    2 (B1u) A    1 (B2g) B     -0.3992
     1 (B1u) A    2 (B1u) A    2 (B2g) B     -0.3585
    -------------------------------------------------

  Density matrix analysis:
  ------------------------
  NOs (alpha)
    Occupation of frontier NOs:
       0.1813   0.6616
    Number of electrons:  8.000000
  NOs (beta)
    Occupation of frontier NOs:
       0.2945   0.8177
    Number of electrons:  9.000000
  NOs (spin-traced)
    Occupation of frontier NOs:
       0.7296   0.9987
    Number of electrons: 17.000000
    Number of unpaired electrons: n_u =  2.90439, n_u,nl =  2.80789
    NO participation ratio (PR_NO):  3.894062
  
  
  Mulliken Population Analysis
  Atom  Charge (e)    Spin (e)  h+ (alpha)   h+ (beta)  e- (alpha)   e- (beta)
  ----------------------------------------------------------------------------
   1 C   -0.698626    0.496868    0.411971    0.093084   -0.393882   -0.571864
   2 C   -0.698626    0.496868    0.411971    0.093084   -0.393882   -0.571864
   3 H    0.099307    0.001566    0.001507    0.000895   -0.010552   -0.011506
   4 H    0.099326    0.001566    0.001507    0.000895   -0.010552   -0.011506
   5 H    0.099319    0.001566    0.001507    0.000895   -0.010552   -0.011506
   6 H    0.099300    0.001566    0.001507    0.000895   -0.010552   -0.011506
  ----------------------------------------------------------------------------
  Sum:   -1.000000    1.000000    0.829971    0.189751   -0.829971   -1.189751
  
  Multipole moment analysis of the density matrix
    Molecular charge:                      -1.000000
    Number of electrons:                   17.000000
      Center of electronic charge [Ang]: [ -0.000000,   0.000000,   0.000000]
    Total nuclear charge:                  16.000000
      Center of nuclear charge [Ang]:    [  0.000000,   0.000000,   0.000000]
    Dipole moment [D]:                     0.000001
      Cartesian components [D]:          [  0.000000,  -0.000001,  -0.000000]
    RMS size of the density [Ang]:         1.449013
      Cartesian components [Ang]:        [  0.990488,   0.713593,   0.780613]
  
  Exciton analysis of the difference density matrix
  Total:
    <r_h> [Ang]:                  [ -0.000000,   0.000000,   0.000000]
    <r_e> [Ang]:                  [ -0.000000,   0.000000,   0.000000]
    |<r_e - r_h>| [Ang]:            0.000000
    Hole size [Ang]:                1.408751
      Cartesian components [Ang]: [  0.827265,   0.602177,   0.968295]
    Electron size [Ang]:            2.707497
      Cartesian components [Ang]: [  1.405090,   1.182597,   1.989403]
  
  Alpha spin:
    <r_h> [Ang]:                  [ -0.000000,   0.000000,   0.000000]
    <r_e> [Ang]:                  [ -0.000000,   0.000000,   0.000000]
    |<r_e - r_h>| [Ang]:            0.000000
    Hole size [Ang]:                1.395552
      Cartesian components [Ang]: [  0.814639,   0.589461,   0.967710]
    Electron size [Ang]:            3.187968
      Cartesian components [Ang]: [  1.529440,   1.422322,   2.408517]
  
  Beta spin:
    <r_h> [Ang]:                  [  0.000000,   0.000000,   0.000000]
    <r_e> [Ang]:                  [ -0.000000,   0.000000,   0.000000]
    |<r_e - r_h>| [Ang]:            0.000000
    Hole size [Ang]:                1.465088
      Cartesian components [Ang]: [  0.880367,   0.654899,   0.970847]
    Electron size [Ang]:            2.313982
      Cartesian components [Ang]: [  1.311380,   0.981279,   1.634590]
  ----------------------------------------------------------------------------


  Electron-attached state 4 (B2g)                                  [converged]
  ----------------------------------------------------------------------------
  Term symbol:  4 (2) B2g                                   R^2 =  1.86947e-08

  Total energy:                                            -78.0274693905 a.u.
  Electron attachment energy:                                      8.670965 eV

  Pole strength:                                                      0.000827

  Dip. moment [a.u.]:                  [   0.000000,    0.000001,    0.000000]
  Total dipole [Debye]:                                               0.000002
  <r^2> [a.u.]:                        [  96.158374,   37.253342,   25.568664]
  Total <r^2> [a.u.]:                                               158.980379

  V1^2 = 0.0008, V2^2 = 0.9992

  Important amplitudes:
       occ i       vir a        vir b           v   
    -------------------------------------------------
     1 (B1u) B    4 (Ag ) B    3 (B3u) B      0.5350
     1 (B1u) A    3 (B3u) A    4 (Ag ) B     -0.3189
    -------------------------------------------------

  Density matrix analysis:
  ------------------------
  NOs (alpha)
    Occupation of frontier NOs:
       0.2447   0.6133
    Number of electrons:  8.000000
  NOs (beta)
    Occupation of frontier NOs:
       0.3274   0.7277
    Number of electrons:  9.000000
  NOs (spin-traced)
    Occupation of frontier NOs:
       0.9405   0.9609
    Number of electrons: 17.000000
    Number of unpaired electrons: n_u =  3.28708, n_u,nl =  3.02520
    NO participation ratio (PR_NO):  3.912044
  
  
  Mulliken Population Analysis
  Atom  Charge (e)    Spin (e)  h+ (alpha)   h+ (beta)  e- (alpha)   e- (beta)
  ----------------------------------------------------------------------------
   1 C   -0.749191    0.526599    0.176101    0.317836   -0.168430   -0.836764
   2 C   -0.749191    0.526599    0.176101    0.317836   -0.168430   -0.836764
   3 H    0.124590   -0.013300    0.001035    0.001835   -0.004871    0.007629
   4 H    0.124607   -0.013299    0.001035    0.001835   -0.004871    0.007628
   5 H    0.124601   -0.013299    0.001035    0.001835   -0.004871    0.007628
   6 H    0.124584   -0.013300    0.001035    0.001835   -0.004871    0.007630
  ----------------------------------------------------------------------------
  Sum:   -1.000000    1.000000    0.356342    0.643012   -0.356342   -1.643012
  
  Multipole moment analysis of the density matrix
    Molecular charge:                      -1.000000
    Number of electrons:                   17.000000
      Center of electronic charge [Ang]: [ -0.000000,   0.000000,  -0.000000]
    Total nuclear charge:                  16.000000
      Center of nuclear charge [Ang]:    [  0.000000,   0.000000,   0.000000]
    Dipole moment [D]:                     0.000002
      Cartesian components [D]:          [  0.000000,   0.000002,   0.000000]
    RMS size of the density [Ang]:         1.618261
      Cartesian components [Ang]:        [  1.258549,   0.783356,   0.648979]
  
  Exciton analysis of the difference density matrix
  Total:
    <r_h> [Ang]:                  [ -0.000000,   0.000000,   0.000000]
    <r_e> [Ang]:                  [ -0.000000,  -0.000000,  -0.000000]
    |<r_e - r_h>| [Ang]:            0.000000
    Hole size [Ang]:                1.253588
      Cartesian components [Ang]: [  0.749135,   0.511077,   0.865494]
    Electron size [Ang]:            3.404782
      Cartesian components [Ang]: [  2.655559,   1.498785,   1.514657]
  
  Alpha spin:
    <r_h> [Ang]:                  [ -0.000000,   0.000000,   0.000000]
    <r_e> [Ang]:                  [ -0.000000,  -0.000000,  -0.000000]
    |<r_e - r_h>| [Ang]:            0.000000
    Hole size [Ang]:                1.252398
      Cartesian components [Ang]: [  0.748903,   0.510582,   0.864264]
    Electron size [Ang]:            3.601579
      Cartesian components [Ang]: [  2.931447,   1.495102,   1.463784]
  
  Beta spin:
    <r_h> [Ang]:                  [ -0.000000,   0.000000,   0.000000]
    <r_e> [Ang]:                  [  0.000000,  -0.000000,  -0.000000]
    |<r_e - r_h>| [Ang]:            0.000000
    Hole size [Ang]:                1.254247
      Cartesian components [Ang]: [  0.749264,   0.511351,   0.866175]
    Electron size [Ang]:            3.360579
      Cartesian components [Ang]: [  2.591851,   1.499583,   1.525467]
  ----------------------------------------------------------------------------


  Electron-attached state 5 (B2g)                                  [converged]
  ----------------------------------------------------------------------------
  Term symbol:  5 (2) B2g                                   R^2 =  5.76948e-08

  Total energy:                                            -78.0018285038 a.u.
  Electron attachment energy:                                      9.368689 eV

  Pole strength:                                                      0.000138

  Dip. moment [a.u.]:                  [   0.000000,    0.000001,    0.000000]
  Total dipole [Debye]:                                               0.000002
  <r^2> [a.u.]:                        [  83.347562,   39.124290,   28.193245]
  Total <r^2> [a.u.]:                                               150.665097

  V1^2 = 0.0001, V2^2 = 0.9999

  Important amplitudes:
       occ i       vir a        vir b           v   
    -------------------------------------------------
     1 (B1u) A    3 (B3u) A    5 (Ag ) B      0.3680
     1 (B1u) A    4 (Ag ) A    3 (B3u) B      0.3498
    -------------------------------------------------

  Density matrix analysis:
  ------------------------
  NOs (alpha)
    Occupation of frontier NOs:
       0.3888   0.4602
    Number of electrons:  8.000000
  NOs (beta)
    Occupation of frontier NOs:
       0.3908   0.4969
    Number of electrons:  9.000000
  NOs (spin-traced)
    Occupation of frontier NOs:
       0.8362   0.8854
    Number of electrons: 17.000000
    Number of unpaired electrons: n_u =  3.28902, n_u,nl =  3.00927
    NO participation ratio (PR_NO):  4.520189
  
  
  Mulliken Population Analysis
  Atom  Charge (e)    Spin (e)  h+ (alpha)   h+ (beta)  e- (alpha)   e- (beta)
  ----------------------------------------------------------------------------
   1 C   -0.763119    0.482879    0.467087    0.027004   -0.488239   -0.531036
   2 C   -0.763119    0.482879    0.467087    0.027004   -0.488239   -0.531036
   3 H    0.131554    0.008561    0.002750    0.000179    0.007826    0.001837
   4 H    0.131571    0.008560    0.002750    0.000179    0.007825    0.001836
   5 H    0.131566    0.008560    0.002750    0.000179    0.007826    0.001837
   6 H    0.131548    0.008561    0.002750    0.000179    0.007827    0.001837
  ----------------------------------------------------------------------------
  Sum:   -1.000000    1.000000    0.945175    0.054724   -0.945175   -1.054724
  
  Multipole moment analysis of the density matrix
    Molecular charge:                      -1.000000
    Number of electrons:                   17.000000
      Center of electronic charge [Ang]: [ -0.000000,   0.000000,  -0.000000]
    Total nuclear charge:                  16.000000
      Center of nuclear charge [Ang]:    [  0.000000,   0.000000,   0.000000]
    Dipole moment [D]:                     0.000002
      Cartesian components [D]:          [  0.000000,   0.000002,   0.000000]
    RMS size of the density [Ang]:         1.575372
      Cartesian components [Ang]:        [  1.171718,   0.802786,   0.681474]
  
  Exciton analysis of the difference density matrix
  Total:
    <r_h> [Ang]:                  [ -0.000000,   0.000000,   0.000000]
    <r_e> [Ang]:                  [ -0.000000,  -0.000000,  -0.000000]
    |<r_e - r_h>| [Ang]:            0.000000
    Hole size [Ang]:                1.252693
      Cartesian components [Ang]: [  0.748767,   0.510821,   0.864667]
    Electron size [Ang]:            3.228679
      Cartesian components [Ang]: [  2.292632,   1.583559,   1.631119]
  
  Alpha spin:
    <r_h> [Ang]:                  [ -0.000000,   0.000000,   0.000000]
    <r_e> [Ang]:                  [ -0.000000,  -0.000000,  -0.000000]
    |<r_e - r_h>| [Ang]:            0.000000
    Hole size [Ang]:                1.252761
      Cartesian components [Ang]: [  0.748706,   0.510782,   0.864842]
    Electron size [Ang]:            3.207944
      Cartesian components [Ang]: [  2.246082,   1.600564,   1.638359]
  
  Beta spin:
    <r_h> [Ang]:                  [ -0.000000,   0.000000,   0.000000]
    <r_e> [Ang]:                  [ -0.000000,  -0.000000,  -0.000000]
    |<r_e - r_h>| [Ang]:            0.000000
    Hole size [Ang]:                1.251518
      Cartesian components [Ang]: [  0.749819,   0.511503,   0.861645]
    Electron size [Ang]:            3.247148
      Cartesian components [Ang]: [  2.333559,   1.568163,   1.624603]
  ----------------------------------------------------------------------------


  Electron-attached state 6 (B2g)                                  [converged]
  ----------------------------------------------------------------------------
  Term symbol:  6 (2) B2g                                   R^2 =  2.24747e-07

  Total energy:                                            -77.9734589051 a.u.
  Electron attachment energy:                                     10.140665 eV

  Pole strength:                                                      0.023264

  Dip. moment [a.u.]:                  [   0.000000,   -0.000000,   -0.000000]
  Total dipole [Debye]:                                               0.000001
  <r^2> [a.u.]:                        [  72.417944,   34.135916,   39.818375]
  Total <r^2> [a.u.]:                                               146.372235

  V1^2 = 0.0233, V2^2 = 0.9767

  Important amplitudes:
       occ i       vir a        vir b           v   
    -------------------------------------------------
     1 (B1u) B    1 (B2g) B    2 (B1u) B      0.4402
     1 (B1u) A    1 (B2g) A    2 (B1u) B      0.3907
    -------------------------------------------------

  Density matrix analysis:
  ------------------------
  NOs (alpha)
    Occupation of frontier NOs:
       0.3425   0.5125
    Number of electrons:  8.000000
  NOs (beta)
    Occupation of frontier NOs:
       0.4209   0.4806
    Number of electrons:  9.000000
  NOs (spin-traced)
    Occupation of frontier NOs:
       0.7535   0.7606
    Number of electrons: 17.000000
    Number of unpaired electrons: n_u =  3.34970, n_u,nl =  2.99435
    NO participation ratio (PR_NO):  5.085860
  
  
  Mulliken Population Analysis
  Atom  Charge (e)    Spin (e)  h+ (alpha)   h+ (beta)  e- (alpha)   e- (beta)
  ----------------------------------------------------------------------------
   1 C   -0.729241    0.500930    0.234989    0.246662   -0.230178   -0.742781
   2 C   -0.729241    0.500930    0.234989    0.246662   -0.230178   -0.742781
   3 H    0.114614   -0.000465    0.002227    0.001720   -0.004633   -0.003661
   4 H    0.114633   -0.000465    0.002227    0.001720   -0.004633   -0.003661
   5 H    0.114627   -0.000465    0.002227    0.001720   -0.004633   -0.003661
   6 H    0.114608   -0.000465    0.002227    0.001720   -0.004632   -0.003661
  ----------------------------------------------------------------------------
  Sum:   -1.000000    1.000000    0.478885    0.500206   -0.478885   -1.500206
  
  Multipole moment analysis of the density matrix
    Molecular charge:                      -1.000000
    Number of electrons:                   17.000000
      Center of electronic charge [Ang]: [ -0.000000,   0.000000,   0.000000]
    Total nuclear charge:                  16.000000
      Center of nuclear charge [Ang]:    [  0.000000,   0.000000,   0.000000]
    Dipole moment [D]:                     0.000001
      Cartesian components [D]:          [  0.000000,  -0.000001,  -0.000000]
    RMS size of the density [Ang]:         1.552766
      Cartesian components [Ang]:        [  1.092194,   0.749864,   0.809876]
  
  Exciton analysis of the difference density matrix
  Total:
    <r_h> [Ang]:                  [  0.000000,   0.000000,   0.000000]
    <r_e> [Ang]:                  [ -0.000000,  -0.000000,   0.000000]
    |<r_e - r_h>| [Ang]:            0.000000
    Hole size [Ang]:                1.262518
      Cartesian components [Ang]: [  0.761343,   0.521785,   0.861423]
    Electron size [Ang]:            3.149966
      Cartesian components [Ang]: [  1.941251,   1.353166,   2.079127]
  
  Alpha spin:
    <r_h> [Ang]:                  [  0.000000,   0.000000,   0.000000]
    <r_e> [Ang]:                  [ -0.000000,  -0.000000,   0.000000]
    |<r_e - r_h>| [Ang]:            0.000000
    Hole size [Ang]:                1.256197
      Cartesian components [Ang]: [  0.761977,   0.519842,   0.852751]
    Electron size [Ang]:            2.803807
      Cartesian components [Ang]: [  1.938387,   1.190557,   1.639074]
  
  Beta spin:
    <r_h> [Ang]:                  [  0.000000,   0.000000,   0.000000]
    <r_e> [Ang]:                  [ -0.000000,   0.000000,   0.000000]
    |<r_e - r_h>| [Ang]:            0.000000
    Hole size [Ang]:                1.268541
      Cartesian components [Ang]: [  0.760735,   0.523638,   0.869644]
    Electron size [Ang]:            3.252717
      Cartesian components [Ang]: [  1.942165,   1.401105,   2.201152]
  ----------------------------------------------------------------------------


  Electron-attached state 7 (B2g)                                  [converged]
  ----------------------------------------------------------------------------
  Term symbol:  7 (2) B2g                                   R^2 =  1.28479e-07

  Total energy:                                            -77.9652938220 a.u.
  Electron attachment energy:                                     10.362848 eV

  Pole strength:                                                      0.001490

  Dip. moment [a.u.]:                  [   0.000000,    0.000000,    0.000000]
  Total dipole [Debye]:                                               0.000000
  <r^2> [a.u.]:                        [  87.397803,   46.283161,   25.367850]
  Total <r^2> [a.u.]:                                               159.048814

  V1^2 = 0.0015, V2^2 = 0.9985

  Important amplitudes:
       occ i       vir a        vir b           v   
    -------------------------------------------------
     1 (B1u) B    5 (Ag ) B    3 (B3u) B      0.3778
     1 (B1u) B    2 (B1g) B    2 (B2u) B      0.3346
    -------------------------------------------------

  Density matrix analysis:
  ------------------------
  NOs (alpha)
    Occupation of frontier NOs:
       0.0868   0.6192
    Number of electrons:  8.000000
  NOs (beta)
    Occupation of frontier NOs:
       0.3280   0.4217
    Number of electrons:  9.000000
  NOs (spin-traced)
    Occupation of frontier NOs:
       0.5072   0.5083
    Number of electrons: 17.000000
    Number of unpaired electrons: n_u =  3.29870, n_u,nl =  2.98559
    NO participation ratio (PR_NO):  6.346892
  
  
  Mulliken Population Analysis
  Atom  Charge (e)    Spin (e)  h+ (alpha)   h+ (beta)  e- (alpha)   e- (beta)
  ----------------------------------------------------------------------------
   1 C   -0.641121    0.428405    0.174408    0.318126   -0.161799   -0.733921
   2 C   -0.641121    0.428405    0.174408    0.318126   -0.161799   -0.733921
   3 H    0.070554    0.035798    0.001368    0.001995   -0.007672   -0.044097
   4 H    0.070573    0.035798    0.001368    0.001995   -0.007672   -0.044098
   5 H    0.070567    0.035798    0.001368    0.001995   -0.007672   -0.044098
   6 H    0.070548    0.035797    0.001368    0.001995   -0.007672   -0.044097
  ----------------------------------------------------------------------------
  Sum:   -1.000000    1.000000    0.354287    0.644233   -0.354287   -1.644233
  
  Multipole moment analysis of the density matrix
    Molecular charge:                      -1.000000
    Number of electrons:                   17.000000
      Center of electronic charge [Ang]: [ -0.000000,   0.000000,  -0.000000]
    Total nuclear charge:                  16.000000
      Center of nuclear charge [Ang]:    [  0.000000,   0.000000,   0.000000]
    Dipole moment [D]:                     0.000000
      Cartesian components [D]:          [  0.000000,   0.000000,   0.000000]
    RMS size of the density [Ang]:         1.618609
      Cartesian components [Ang]:        [  1.199850,   0.873149,   0.646426]
  
  Exciton analysis of the difference density matrix
  Total:
    <r_h> [Ang]:                  [ -0.000000,   0.000000,   0.000000]
    <r_e> [Ang]:                  [ -0.000000,  -0.000000,   0.000000]
    |<r_e - r_h>| [Ang]:            0.000000
    Hole size [Ang]:                1.253010
      Cartesian components [Ang]: [  0.750733,   0.512150,   0.862633]
    Electron size [Ang]:            3.406698
      Cartesian components [Ang]: [  2.414206,   1.874293,   1.504734]
  
  Alpha spin:
    <r_h> [Ang]:                  [ -0.000000,   0.000000,   0.000000]
    <r_e> [Ang]:                  [ -0.000000,  -0.000000,  -0.000000]
    |<r_e - r_h>| [Ang]:            0.000000
    Hole size [Ang]:                1.252816
      Cartesian components [Ang]: [  0.752601,   0.513381,   0.859988]
    Electron size [Ang]:            3.335487
      Cartesian components [Ang]: [  2.372920,   1.833136,   1.460938]
  
  Beta spin:
    <r_h> [Ang]:                  [ -0.000000,   0.000000,   0.000000]
    <r_e> [Ang]:                  [ -0.000000,  -0.000000,   0.000000]
    |<r_e - r_h>| [Ang]:            0.000000
    Hole size [Ang]:                1.253117
      Cartesian components [Ang]: [  0.749704,   0.511472,   0.864084]
    Electron size [Ang]:            3.421847
      Cartesian components [Ang]: [  2.423010,   1.883044,   1.514005]
  ----------------------------------------------------------------------------


  Electron-attached state 8 (B2g)                                  [converged]
  ----------------------------------------------------------------------------
  Term symbol:  8 (2) B2g                                   R^2 =  1.04690e-07

  Total energy:                                            -77.9452677918 a.u.
  Electron attachment energy:                                     10.907784 eV

  Pole strength:                                                      0.000099

  Dip. moment [a.u.]:                  [   0.000000,   -0.000000,    0.000000]
  Total dipole [Debye]:                                               0.000001
  <r^2> [a.u.]:                        [  83.848041,   52.741556,   23.879958]
  Total <r^2> [a.u.]:                                               160.469555

  V1^2 = 0.0001, V2^2 = 0.9999

  Important amplitudes:
       occ i       vir a        vir b           v   
    -------------------------------------------------
     1 (B1u) B    2 (B1g) B    2 (B2u) B     -0.4300
     1 (B1u) B    5 (Ag ) B    3 (B3u) B      0.3273
    -------------------------------------------------

  Density matrix analysis:
  ------------------------
  NOs (alpha)
    Occupation of frontier NOs:
       0.1417   0.6163
    Number of electrons:  8.000000
  NOs (beta)
    Occupation of frontier NOs:
       0.3255   0.4627
    Number of electrons:  9.000000
  NOs (spin-traced)
    Occupation of frontier NOs:
       0.6044   0.6058
    Number of electrons: 17.000000
    Number of unpaired electrons: n_u =  3.29085, n_u,nl =  3.14064
    NO participation ratio (PR_NO):  5.759915
  
  
  Mulliken Population Analysis
  Atom  Charge (e)    Spin (e)  h+ (alpha)   h+ (beta)  e- (alpha)   e- (beta)
  ----------------------------------------------------------------------------
   1 C   -0.614589    0.410875    0.174983    0.318828   -0.157872   -0.712592
   2 C   -0.614589    0.410875    0.174983    0.318828   -0.157872   -0.712592
   3 H    0.057288    0.044562    0.001157    0.001915   -0.009712   -0.055032
   4 H    0.057307    0.044563    0.001157    0.001915   -0.009712   -0.055033
   5 H    0.057300    0.044562    0.001157    0.001915   -0.009712   -0.055032
   6 H    0.057282    0.044562    0.001157    0.001915   -0.009712   -0.055032
  ----------------------------------------------------------------------------
  Sum:   -1.000000    1.000000    0.354593    0.645313   -0.354593   -1.645313
  
  Multipole moment analysis of the density matrix
    Molecular charge:                      -1.000000
    Number of electrons:                   17.000000
      Center of electronic charge [Ang]: [ -0.000000,   0.000000,  -0.000000]
    Total nuclear charge:                  16.000000
      Center of nuclear charge [Ang]:    [  0.000000,   0.000000,   0.000000]
    Dipole moment [D]:                     0.000001
      Cartesian components [D]:          [  0.000000,  -0.000001,   0.000000]
    RMS size of the density [Ang]:         1.625822
      Cartesian components [Ang]:        [  1.175231,   0.932080,   0.627182]
  
  Exciton analysis of the difference density matrix
  Total:
    <r_h> [Ang]:                  [ -0.000000,   0.000000,   0.000000]
    <r_e> [Ang]:                  [ -0.000000,  -0.000000,  -0.000000]
    |<r_e - r_h>| [Ang]:            0.000000
    Hole size [Ang]:                1.252728
      Cartesian components [Ang]: [  0.749359,   0.511144,   0.864014]
    Electron size [Ang]:            3.434707
      Cartesian components [Ang]: [  2.307958,   2.101075,   1.433885]
  
  Alpha spin:
    <r_h> [Ang]:                  [ -0.000000,   0.000000,   0.000000]
    <r_e> [Ang]:                  [ -0.000000,   0.000000,  -0.000000]
    |<r_e - r_h>| [Ang]:            0.000000
    Hole size [Ang]:                1.253269
      Cartesian components [Ang]: [  0.750349,   0.511920,   0.863480]
    Electron size [Ang]:            3.497869
      Cartesian components [Ang]: [  2.416637,   2.084551,   1.431642]
  
  Beta spin:
    <r_h> [Ang]:                  [ -0.000000,   0.000000,   0.000000]
    <r_e> [Ang]:                  [ -0.000000,  -0.000000,  -0.000000]
    |<r_e - r_h>| [Ang]:            0.000000
    Hole size [Ang]:                1.252431
      Cartesian components [Ang]: [  0.748815,   0.510717,   0.864307]
    Electron size [Ang]:            3.420941
      Cartesian components [Ang]: [  2.283858,   2.104619,   1.434368]
  ----------------------------------------------------------------------------


  Electron-attached state 9 (B2g)                                  [converged]
  ----------------------------------------------------------------------------
  Term symbol:  9 (2) B2g                                   R^2 =  1.14927e-06

  Total energy:                                            -77.9319059504 a.u.
  Electron attachment energy:                                     11.271378 eV

  Pole strength:                                                      0.028379

  Dip. moment [a.u.]:                  [  -0.000000,    0.000000,   -0.000000]
  Total dipole [Debye]:                                               0.000001
  <r^2> [a.u.]:                        [  86.545508,   42.905175,   25.550101]
  Total <r^2> [a.u.]:                                               155.000784

  V1^2 = 0.0284, V2^2 = 0.9716

  Important amplitudes:
       occ i       vir a        vir b           v   
    -------------------------------------------------
     1 (B1u) A    4 (B3u) A    4 (Ag ) B     -0.2676
     1 (B1u) A    4 (Ag ) A    4 (B3u) B     -0.2555
    -------------------------------------------------

  Density matrix analysis:
  ------------------------
  NOs (alpha)
    Occupation of frontier NOs:
       0.2247   0.2543
    Number of electrons:  8.000000
  NOs (beta)
    Occupation of frontier NOs:
       0.2231   0.2498
    Number of electrons:  9.000000
  NOs (spin-traced)
    Occupation of frontier NOs:
       0.4456   0.5023
    Number of electrons: 17.000000
    Number of unpaired electrons: n_u =  3.35159, n_u,nl =  2.72805
    NO participation ratio (PR_NO):  7.223398
  
  
  Mulliken Population Analysis
  Atom  Charge (e)    Spin (e)  h+ (alpha)   h+ (beta)  e- (alpha)   e- (beta)
  ----------------------------------------------------------------------------
   1 C   -0.656942    0.488653    0.460174    0.009403   -0.425351   -0.463233
   2 C   -0.656942    0.488653    0.460174    0.009403   -0.425351   -0.463233
   3 H    0.078465    0.005673    0.008153    0.000139   -0.025564   -0.023224
   4 H    0.078483    0.005673    0.008153    0.000139   -0.025565   -0.023224
   5 H    0.078477    0.005673    0.008153    0.000139   -0.025564   -0.023224
   6 H    0.078459    0.005673    0.008153    0.000139   -0.025564   -0.023223
  ----------------------------------------------------------------------------
  Sum:   -1.000000    1.000000    0.952958    0.019361   -0.952958   -1.019361
  
  Multipole moment analysis of the density matrix
    Molecular charge:                      -1.000000
    Number of electrons:                   17.000000
      Center of electronic charge [Ang]: [  0.000000,   0.000000,   0.000000]
    Total nuclear charge:                  16.000000
      Center of nuclear charge [Ang]:    [  0.000000,   0.000000,   0.000000]
    Dipole moment [D]:                     0.000001
      Cartesian components [D]:          [ -0.000000,   0.000001,  -0.000000]
    RMS size of the density [Ang]:         1.597878
      Cartesian components [Ang]:        [  1.193985,   0.840682,   0.648743]
  
  Exciton analysis of the difference density matrix
  Total:
    <r_h> [Ang]:                  [  0.000000,   0.000000,   0.000000]
    <r_e> [Ang]:                  [  0.000000,  -0.000000,   0.000000]
    |<r_e - r_h>| [Ang]:            0.000000
    Hole size [Ang]:                1.253684
      Cartesian components [Ang]: [  0.780110,   0.521833,   0.831170]
    Electron size [Ang]:            3.341407
      Cartesian components [Ang]: [  2.408213,   1.755417,   1.511298]
  
  Alpha spin:
    <r_h> [Ang]:                  [  0.000000,   0.000000,   0.000000]
    <r_e> [Ang]:                  [  0.000000,  -0.000000,   0.000000]
    |<r_e - r_h>| [Ang]:            0.000000
    Hole size [Ang]:                1.254487
      Cartesian components [Ang]: [  0.779894,   0.521794,   0.832607]
    Electron size [Ang]:            3.341386
      Cartesian components [Ang]: [  2.390663,   1.781403,   1.508706]
  
  Beta spin:
    <r_h> [Ang]:                  [  0.000000,   0.000000,  -0.000000]
    <r_e> [Ang]:                  [  0.000000,  -0.000000,   0.000000]
    |<r_e - r_h>| [Ang]:            0.000000
    Hole size [Ang]:                1.213497
      Cartesian components [Ang]: [  0.790660,   0.523723,   0.757063]
    Electron size [Ang]:            3.341427
      Cartesian components [Ang]: [  2.424505,   1.730771,   1.513717]
  ----------------------------------------------------------------------------


  Electron-attached state 10 (B2g)                                  [converged]
  ----------------------------------------------------------------------------
  Term symbol:  10 (2) B2g                                  R^2 =  5.45486e-06

  Total energy:                                            -77.9245105575 a.u.
  Electron attachment energy:                                     11.472617 eV

  Pole strength:                                                      0.072996

  Dip. moment [a.u.]:                  [  -0.000000,    0.000000,   -0.000000]
  Total dipole [Debye]:                                               0.000001
  <r^2> [a.u.]:                        [  76.252807,   34.274810,   23.828169]
  Total <r^2> [a.u.]:                                               134.355786

  V1^2 = 0.0730, V2^2 = 0.9270

  Important amplitudes:
       occ i       vir a        vir b           v   
    -------------------------------------------------
     3 (Ag ) A    4 (Ag ) A    1 (B2g) B      0.3186
     3 (Ag ) A    4 (Ag ) A    2 (B2g) B      0.2899
    -------------------------------------------------

  Density matrix analysis:
  ------------------------
  NOs (alpha)
    Occupation of frontier NOs:
       0.3696   0.4136
    Number of electrons:  8.000000
  NOs (beta)
    Occupation of frontier NOs:
       0.2605   0.4757
    Number of electrons:  9.000000
  NOs (spin-traced)
    Occupation of frontier NOs:
       0.6715   0.7460
    Number of electrons: 17.000000
    Number of unpaired electrons: n_u =  3.26337, n_u,nl =  2.94007
    NO participation ratio (PR_NO):  6.613273
  
  
  Mulliken Population Analysis
  Atom  Charge (e)    Spin (e)  h+ (alpha)   h+ (beta)  e- (alpha)   e- (beta)
  ----------------------------------------------------------------------------
   1 C   -0.823323    0.379252    0.346269    0.024277   -0.449337   -0.506597
   2 C   -0.823323    0.379252    0.346269    0.024277   -0.449337   -0.506597
   3 H    0.161655    0.060374    0.045744    0.001656    0.005790   -0.010495
   4 H    0.161674    0.060374    0.045744    0.001656    0.005790   -0.010496
   5 H    0.161667    0.060374    0.045744    0.001656    0.005790   -0.010496
   6 H    0.161649    0.060374    0.045744    0.001656    0.005790   -0.010495
  ----------------------------------------------------------------------------
  Sum:   -1.000000    1.000000    0.875514    0.055176   -0.875514   -1.055176
  
  Multipole moment analysis of the density matrix
    Molecular charge:                      -1.000000
    Number of electrons:                   17.000000
      Center of electronic charge [Ang]: [  0.000000,   0.000000,   0.000000]
    Total nuclear charge:                  16.000000
      Center of nuclear charge [Ang]:    [  0.000000,   0.000000,   0.000000]
    Dipole moment [D]:                     0.000001
      Cartesian components [D]:          [ -0.000000,   0.000001,  -0.000000]
    RMS size of the density [Ang]:         1.487664
      Cartesian components [Ang]:        [  1.120739,   0.751388,   0.626501]
  
  Exciton analysis of the difference density matrix
  Total:
    <r_h> [Ang]:                  [  0.000000,   0.000000,  -0.000000]
    <r_e> [Ang]:                  [  0.000000,  -0.000000,   0.000000]
    |<r_e - r_h>| [Ang]:            0.000000
    Hole size [Ang]:                1.291117
      Cartesian components [Ang]: [  1.006640,   0.599461,   0.542498]
    Electron size [Ang]:            2.902310
      Cartesian components [Ang]: [  2.147945,   1.390060,   1.370208]
  
  Alpha spin:
    <r_h> [Ang]:                  [  0.000000,   0.000000,  -0.000000]
    <r_e> [Ang]:                  [  0.000000,  -0.000000,   0.000000]
    |<r_e - r_h>| [Ang]:            0.000000
    Hole size [Ang]:                1.291914
      Cartesian components [Ang]: [  1.008824,   0.600266,   0.539440]
    Electron size [Ang]:            3.093322
      Cartesian components [Ang]: [  2.344579,   1.459358,   1.393508]
  
  Beta spin:
    <r_h> [Ang]:                  [  0.000000,   0.000000,  -0.000000]
    <r_e> [Ang]:                  [  0.000000,  -0.000000,   0.000000]
    |<r_e - r_h>| [Ang]:            0.000000
    Hole size [Ang]:                1.278410
      Cartesian components [Ang]: [  0.971334,   0.586538,   0.588909]
    Electron size [Ang]:            2.733708
      Cartesian components [Ang]: [  1.969948,   1.329822,   1.350571]
  ----------------------------------------------------------------------------


--------------------------------------------------------------------------------
  Time of ADC calculation:  CPU 215.45 s  wall 50.23 s
================================================================================
 
 --------------------------------------------------------------
             Orbital Energies (a.u.) and Symmetries
 --------------------------------------------------------------
 
 Alpha MOs, Restricted
 -- Occupied --                  
-11.237 -11.235  -1.042  -0.782  -0.660  -0.567  -0.515  -0.377
  1 Ag    1 B3u   2 Ag    2 B3u   1 B2u   3 Ag    1 B1g   1 B1u                
 -- Virtual --                   
  0.089   0.094   0.097   0.105   0.110   0.134   0.151   0.202
  3 B3u   4 Ag    2 B2u   1 B2g   2 B1u   2 B1g   5 Ag    2 B2g                
  0.214   0.262   0.326   0.343   0.360   0.389   0.390   0.408
  4 B3u   6 Ag    3 B2u   5 B3u   6 B3u   4 B2u   7 Ag    3 B1u                
  0.427   0.495   0.546   0.619   0.840   0.848   0.926   0.995
  3 B1g   3 B2g   4 B1g   7 B3u   8 Ag    5 B2u   8 B3u   9 Ag                 
  1.035   1.105   1.114   1.132   1.150   1.196   1.249   1.285
  5 B1g  10 Ag    1 B3g   6 B2u   9 B3u   4 B1u   4 B2g   1 Au                 
  1.301   1.349   1.488   1.627   1.741   1.763   1.881   1.946
  5 B1u  10 B3u   6 B1g  11 Ag    7 B2u   7 B1g   5 B2g   6 B1u                
  1.973   2.017   2.092   2.105   2.185   2.333   2.412   2.481
 11 B3u   2 B3g  12 Ag    8 B2u   6 B2g  12 B3u   2 Au   13 Ag                 
  2.556   2.582   2.870   2.873   3.291   3.353
  8 B1g  13 B3u  14 Ag    9 B2u  14 B3u   9 B1g                                
 
 Beta MOs, Restricted
 -- Occupied --                  
-11.237 -11.235  -1.042  -0.782  -0.660  -0.567  -0.515  -0.377
  1 Ag    1 B3u   2 Ag    2 B3u   1 B2u   3 Ag    1 B1g   1 B1u                
 -- Virtual --                   
  0.089   0.094   0.097   0.105   0.110   0.134   0.151   0.202
  3 B3u   4 Ag    2 B2u   1 B2g   2 B1u   2 B1g   5 Ag    2 B2g                
  0.214   0.262   0.326   0.343   0.360   0.389   0.390   0.408
  4 B3u   6 Ag    3 B2u   5 B3u   6 B3u   4 B2u   7 Ag    3 B1u                
  0.427   0.495   0.546   0.619   0.840   0.848   0.926   0.995
  3 B1g   3 B2g   4 B1g   7 B3u   8 Ag    5 B2u   8 B3u   9 Ag                 
  1.035   1.105   1.114   1.132   1.150   1.196   1.249   1.285
  5 B1g  10 Ag    1 B3g   6 B2u   9 B3u   4 B1u   4 B2g   1 Au                 
  1.301   1.349   1.488   1.627   1.741   1.763   1.881   1.946
  5 B1u  10 B3u   6 B1g  11 Ag    7 B2u   7 B1g   5 B2g   6 B1u                
  1.973   2.017   2.092   2.105   2.185   2.333   2.412   2.481
 11 B3u   2 B3g  12 Ag    8 B2u   6 B2g  12 B3u   2 Au   13 Ag                 
  2.556   2.582   2.870   2.873   3.291   3.353
  8 B1g  13 B3u  14 Ag    9 B2u  14 B3u   9 B1g                                
 --------------------------------------------------------------
 
          Ground-State Mulliken Net Atomic Charges

     Atom                 Charge (a.u.)
  ----------------------------------------
      1 C                    -0.221971
      2 C                    -0.221971
      3 H                     0.110979
      4 H                     0.110999
      5 H                     0.110992
      6 H                     0.110973
  ----------------------------------------
  Sum of atomic charges =     0.000000

 -----------------------------------------------------------------
                    Cartesian Multipole Moments
 -----------------------------------------------------------------
    Charge (ESU x 10^10)
                 0.0000
    Dipole Moment (Debye)
         X      -0.0000      Y      -0.0000      Z      -0.0000
       Tot       0.0000
    Quadrupole Moments (Debye-Ang)
        XX     -12.9015     XY       0.0000     YY     -11.9545
        XZ      -0.0000     YZ      -0.0000     ZZ     -16.1538
    Octopole Moments (Debye-Ang^2)
       XXX       0.0000    XXY      -0.0000    XYY       0.0000
       YYY      -0.0000    XXZ      -0.0000    XYZ      -0.0000
       YYZ      -0.0000    XZZ       0.0000    YZZ      -0.0000
       ZZZ      -0.0000
    Hexadecapole Moments (Debye-Ang^3)
      XXXX     -67.8841   XXXY       0.0000   XXYY     -13.1205
      XYYY       0.0000   YYYY     -26.7876   XXXZ      -0.0000
      XXYZ       0.0000   XYYZ      -0.0000   YYYZ      -0.0000
      XXZZ     -15.6254   XYZZ       0.0000   YYZZ      -9.0167
      XZZZ      -0.0000   YZZZ      -0.0000   ZZZZ     -21.7179
 -----------------------------------------------------------------
 Total job time:  133.90s(wall), 257.58s(cpu) 
 Sun Mar 27 22:34:26 2022

        *************************************************************
        *                                                           *
        *  Thank you very much for using Q-Chem.  Have a nice day.  *
        *                                                           *
        *************************************************************


