This is a multi-thread run using 8 threads
/src/tsommerfeld/qchem/exe/qcprog.exe .input1.166667.11097.qcin.1 /src/jdavis/qchem.scratch/qchem11097/

                  Welcome to Q-Chem
     A Quantum Leap Into The Future Of Chemistry


 Q-Chem 5.4 (devel), Q-Chem, Inc., Pleasanton, CA (2021)

 E. Epifanovsky,  A. T. B. Gilbert,  Xintian Feng,  Joonho Lee,  Yuezhi Mao,  
 N. Mardirossian,  P. Pokhilko,  A. White,  M. Wormit,  M. P. Coons,  
 A. L. Dempwolff,  Zhengting Gan,  D. Hait,  P. R. Horn,  L. D. Jacobson,  
 I. Kaliman,  J. Kussmann,  A. W. Lange,  Ka Un Lao,  D. S. Levine,  Jie Liu,  
 S. C. McKenzie,  A. F. Morrison,  K. Nanda,  F. Plasser,  D. R. Rehn,  
 M. L. Vidal,  Zhi-Qiang You,  Ying Zhu,  B. Alam,  B. Albrecht,  
 A. Aldossary,  E. Alguire,  J. H. Andersen,  D. Barton,  K. Begam,  A. Behn,  
 Y. A. Bernard,  E. J. Berquist,  H. Burton,  A. Carreras,  K. Carter-Fenk,  
 R. Chakraborty,  A. D. Chien,  K. D. Closser,  V. Cofer-Shabica,  
 S. Dasgupta,  Jia Deng,  M. de Wergifosse,  M. Diedenhofen,  Hainam Do,  
 S. Ehlert,  Po-Tung Fang,  S. Fatehi,  Qingguo Feng,  T. Friedhoff,  
 J. Gayvert,  Qinghui Ge,  G. Gidofalvi,  M. Goldey,  J. Gomes,  
 C. Gonzalez-Espinoza,  S. Gulania,  A. Gunina,  M. W. D. Hanson-Heine,  
 P. H. P. Harbach,  A. W. Hauser,  M. F. Herbst,  M. Hernandez Vera,  
 M. Hodecker,  Z. C. Holden,  S. Houck,  Xunkun Huang,  Kerwin Hui,  
 B. C. Huynh,  M. Ivanov,  Hyunjun Ji,  Hanjie Jiang,  B. Kaduk,  S. Kaehler,  
 K. Khistyaev,  Jaehoon Kim,  P. Klunzinger,  Z. Koczor-Benda,  
 Joong Hoon Koh,  D. Kosenkov,  L. Koulias,  T. Kowalczyk,  C. M. Krauter,  
 K. Kue,  A. Kunitsa,  T. Kus,  A. Landau,  K. V. Lawler,  D. Lefrancois,  
 S. Lehtola,  Rain Li,  Yi-Pei Li,  Jiashu Liang,  M. Liebenthal,  
 Hung-Hsuan Lin,  You-Sheng Lin,  Fenglai Liu,  Kuan-Yu Liu,  
 M. Loipersberger,  A. Luenser,  A. Manjanath,  P. Manohar,  E. Mansoor,  
 S. F. Manzer,  Shan-Ping Mao,  A. V. Marenich,  T. Markovich,  S. Mason,  
 S. A. Maurer,  P. F. McLaughlin,  M. F. S. J. Menger,  J.-M. Mewes,  
 S. A. Mewes,  P. Morgante,  J. W. Mullinax,  K. J. Oosterbaan,  G. Paran,  
 Alexander C. Paul,  Suranjan K. Paul,  F. Pavosevic,  Zheng Pei,  S. Prager,  
 E. I. Proynov,  E. Ramos,  B. Rana,  A. E. Rask,  A. Rettig,  R. M. Richard,  
 F. Rob,  E. Rossomme,  T. Scheele,  M. Scheurer,  M. Schneider,  
 N. Sergueev,  S. M. Sharada,  W. Skomorowski,  D. W. Small,  C. J. Stein,  
 Yu-Chuan Su,  E. J. Sundstrom,  Zhen Tao,  J. Thirman,  T. Tsuchimochi,  
 N. M. Tubman,  S. P. Veccham,  O. Vydrov,  J. Wenzel,  J. Witte,  A. Yamada,  
 Kun Yao,  S. Yeganeh,  S. R. Yost,  A. Zech,  Igor Ying Zhang,  Xing Zhang,  
 Yu Zhang,  D. Zuev,  A. Aspuru-Guzik,  A. T. Bell,  N. A. Besley,  
 K. B. Bravaya,  B. R. Brooks,  D. Casanova,  Jeng-Da Chai,  S. Coriani,  
 C. J. Cramer,  A. E. DePrince, III,  R. A. DiStasio Jr.,  A. Dreuw,  
 B. D. Dunietz,  T. R. Furlani,  W. A. Goddard III,  S. Grimme,  
 S. Hammes-Schiffer,  T. Head-Gordon,  W. J. Hehre,  Chao-Ping Hsu,  
 T.-C. Jagau,  Yousung Jung,  A. Klamt,  Jing Kong,  D. S. Lambrecht,  
 WanZhen Liang,  N. J. Mayhall,  C. W. McCurdy,  J. B. Neaton,  
 C. Ochsenfeld,  J. A. Parkhill,  R. Peverati,  V. A. Rassolov,  Yihan Shao,  
 L. V. Slipchenko,  T. Stauch,  R. P. Steele,  J. E. Subotnik,  
 A. J. W. Thom,  A. Tkatchenko,  D. G. Truhlar,  T. Van Voorhis,  
 T. A. Wesolowski,  K. B. Whaley,  H. L. Woodcock III,  P. M. Zimmerman,  
 S. Faraji,  P. M. W. Gill,  M. Head-Gordon,  J. M. Herbert,  A. I. Krylov

 Additional authors for Version 5.4.1: 
 S. Kotaru,  Shaozhi Li,  Xiangyuan Li,  F. Matz,  A. Molle,  Haisheng Ren,  
 Yingli Su,  Hung-Yi Tsai,  C. Utku,  Fang Wang

 Contributors to earlier versions of Q-Chem not listed above: 
 R. D. Adamson,  B. Austin,  R. Baer,  J. Baker,  G. J. O. Beran,  
 K. Brandhorst,  S. T. Brown,  E. F. C. Byrd,  A. K. Chakraborty,  
 G. K. L. Chan,  Chun-Min Chang,  Yunqing Chen,  C.-L. Cheng,  
 Siu Hung Chien,  D. M. Chipman,  D. L. Crittenden,  H. Dachsel,  
 R. J. Doerksen,  A. D. Dutoi,  R. G. Edgar,  J. Fosso-Tande,  
 L. Fusti-Molnar,  D. Ghosh,  A. Ghysels,  A. Golubeva-Zadorozhnaya,  
 J. Gonthier,  M. S. Gordon,  S. R. Gwaltney,  G. Hawkins,  J. E. Herr,  
 A. Heyden,  S. Hirata,  E. G. Hohenstein,  G. Kedziora,  F. J. Keil,  
 C. Kelley,  Jihan Kim,  R. A. King,  R. Z. Khaliullin,  P. P. Korambath,  
 W. Kurlancheek,  A. Laurent,  A. M. Lee,  M. S. Lee,  S. V. Levchenko,  
 Ching Yeh Lin,  D. Liotard,  E. Livshits,  R. C. Lochan,  I. Lotan,  
 L. A. Martinez-Martinez,  P. E. Maslen,  N. Nair,  D. P. O'Neill,  
 D. Neuhauser,  E. Neuscamman,  C. M. Oana,  R. Olivares-Amaya,  R. Olson,  
 T. M. Perrine,  B. Peters,  P. A. Pieniazek,  A. Prociuk,  Y. M. Rhee,  
 J. Ritchie,  M. A. Rohrdanz,  E. Rosta,  N. J. Russ,  H. F. Schaefer III,  
 M. W. Schmidt,  N. E. Schultz,  S. Sharma,  N. Shenvi,  C. D. Sherrill,  
 A. C. Simmonett,  A. Sodt,  T. Stein,  D. Stuck,  K. S. Thanthiriwatte,  
 V. Vanovschi,  L. Vogt,  Tao Wang,  A. Warshel,  M. A. Watson,  
 C. F. Williams,  Q. Wu,  X. Xu,  Jun Yang,  W. Zhang,  Yan Zhao

 Please cite Q-Chem as follows:
 Y. Shao et al., Mol. Phys. 113, 184-215 (2015)
 DOI: 10.1080/00268976.2014.952696

 Q-Chem 5.4.1 for Intel X86 EM64T Linux

 Parts of Q-Chem use Armadillo 9.900.5 (Nocturnal Misbehaviour).
 http://arma.sourceforge.net/

 Q-Chem begins on Sun Mar 27 22:01:16 2022  

 Host: node01
0

     Scratch files written to /src/jdavis/qchem.scratch/qchem11097//
 Processing $rem in /src/tsommerfeld/qchem/config/preferences:
 Processing $rem in /home/jdavis/.qchemrc:

 Checking the input file for inconsistencies... 	...done.

--------------------------------------------------------------
User input:
--------------------------------------------------------------
$molecule
0 1
C        -0.6645000000    0.0000000000   -0.2082049804
C         0.6645000000    0.0000000000   -0.2082049804
H        -1.1590800000    0.0000000000    0.7541440196
H         1.1590800000    0.0000000000    0.7541440196
H        -1.1590800000    0.0000000000   -1.1705529804
H         1.1590800000    0.0000000000   -1.1705529804
$end

$rem
   METHOD adc(3)
   BASIS gen
   PURECART 11
   EA_STATES [0,0,10,0,0,0,0,0]
   scf_convergence 8
   ADC_DAVIDSON_MAXITER 120
   ADC_DAVIDSON_MAXSUBSPACE 200
   adc_nguess_singles 100
   THRESH 14
   S2THRESH 14
   adc_davidson_conv 5
   adc_davidson_thresh 14
   THREADS 10
   MEM_TOTAL 95000
   STATE_ANALYSIS TRUE
$end
$basis
C 1
S   9   1.00
      6.665000D+03           6.920000D-04
      1.000000D+03           5.329000D-03
      2.280000D+02           2.707700D-02
      6.471000D+01           1.017180D-01
      2.106000D+01           2.747400D-01
      7.495000D+00           4.485640D-01
      2.797000D+00           2.850740D-01
      5.215000D-01           1.520400D-02
      1.596000D-01          -3.191000D-03
S   9   1.00
      6.665000D+03          -1.460000D-04
      1.000000D+03          -1.154000D-03
      2.280000D+02          -5.725000D-03
      6.471000D+01          -2.331200D-02
      2.106000D+01          -6.395500D-02
      7.495000D+00          -1.499810D-01
      2.797000D+00          -1.272620D-01
      5.215000D-01           5.445290D-01
      1.596000D-01           5.804960D-01
S   1   1.00
      1.596000D-01           1.000000D+00
S   1   1.00
      0.0469000              1.0000000
P   4   1.00
      9.439000D+00           3.810900D-02
      2.002000D+00           2.094800D-01
      5.456000D-01           5.085570D-01
      1.517000D-01           4.688420D-01
P   1   1.00
      1.517000D-01           1.000000D+00
P   1   1.00
      0.0707933      1.0000000
P   1   1.00
      0.0353967      1.0000000
D   1   1.00
      5.500000D-01           1.0000000
****
C 2
S   9   1.00
      6.665000D+03           6.920000D-04
      1.000000D+03           5.329000D-03
      2.280000D+02           2.707700D-02
      6.471000D+01           1.017180D-01
      2.106000D+01           2.747400D-01
      7.495000D+00           4.485640D-01
      2.797000D+00           2.850740D-01
      5.215000D-01           1.520400D-02
      1.596000D-01          -3.191000D-03
S   9   1.00
      6.665000D+03          -1.460000D-04
      1.000000D+03          -1.154000D-03
      2.280000D+02          -5.725000D-03
      6.471000D+01          -2.331200D-02
      2.106000D+01          -6.395500D-02
      7.495000D+00          -1.499810D-01
      2.797000D+00          -1.272620D-01
      5.215000D-01           5.445290D-01
      1.596000D-01           5.804960D-01
S   1   1.00
      1.596000D-01           1.000000D+00
S   1   1.00
      0.0469000              1.0000000
P   4   1.00
      9.439000D+00           3.810900D-02
      2.002000D+00           2.094800D-01
      5.456000D-01           5.085570D-01
      1.517000D-01           4.688420D-01
P   1   1.00
      1.517000D-01           1.000000D+00
P   1   1.00
      0.0707933      1.0000000
P   1   1.00
      0.0353967      1.0000000
D   1   1.00
      5.500000D-01           1.0000000
****
H 3
cc-pVDZ
****
H 4
cc-pVDZ
****
H 5
cc-pVDZ
****
H 6
cc-pVDZ
****
H 7
aug-cc-pVDZ
****
$end
--------------------------------------------------------------
 Atom   2: ( -0.6645000000, -0.0000001250,  0.0000000000)
         ->( -0.6645000000,  0.0000001250, -0.0000000000)
 Atom   1: (  0.6645000000, -0.0000001250, -0.0000000000)
         ->(  0.6645000000,  0.0000000000,  0.0000000000)
 Atom   6: ( -1.1590800000, -0.9623481250, -0.0000000000)
         ->( -1.1590800000, -0.9623488750,  0.0000000000)
 Atom   5: (  1.1590800000, -0.9623481250, -0.0000000000)
         ->(  1.1590800000, -0.9623488750, -0.0000000000)
 ----------------------------------------------------------------
             Standard Nuclear Orientation (Angstroms)
    I     Atom           X                Y                Z
 ----------------------------------------------------------------
    1      C       0.6645000000     0.0000000000     0.0000000000
    2      C      -0.6645000000     0.0000001250    -0.0000000000
    3      H       1.1590800000     0.9623488750     0.0000000000
    4      H      -1.1590800000     0.9623488750     0.0000000000
    5      H       1.1590800000    -0.9623488750    -0.0000000000
    6      H      -1.1590800000    -0.9623488750     0.0000000000
 ----------------------------------------------------------------
 Molecular Point Group                 D2h   NOp =  8
 Largest Abelian Subgroup              D2h   NOp =  8
 Nuclear Repulsion Energy =          33.58921667 hartrees
 There are        8 alpha and        8 beta electrons
 Requested basis set is non-standard
 There are 30 shells and 62 basis functions
 Total memory of 95000 MB is distributed as follows: 
   MEM_STATIC is set to 192 MB
   QALLOC/CCMAN JOB total memory use is  94808 MB
 Warning: actual memory use might exceed 95000 MB

 Total QAlloc Memory Limit  95000 MB
 Mega-Array Size       188 MB
 MEM_STATIC part       192 MB

                       Distance Matrix (Angstroms)
             C (  1)   C (  2)   H (  3)   H (  4)   H (  5)
   C (  2)  1.329000
   H (  3)  1.082000  2.061931
   H (  4)  2.061931  1.082000  2.318160
   H (  5)  1.082000  2.061931  1.924698  3.013026
   H (  6)  2.061931  1.082000  3.013026  1.924698  2.318160
 
 A cutoff of  1.0D-14 yielded    465 shell pairs
 There are      2009 function pairs (      2146 Cartesian)
 Smallest overlap matrix eigenvalue = 2.57E-04

 Scale SEOQF with 1.000000e-01/1.000000e-01/1.000000e-01

 Standard Electronic Orientation quadrupole field applied
 Nucleus-field energy     =     0.0000000006 hartrees
 ================ Generating on-the-fly SAD Guess ================
Attempting to make child job directory: /src/jdavis/qchem.scratch/qchem11097//Frg1/
Attempting to make child job directory: /src/jdavis/qchem.scratch/qchem11097//Frg2/
Creating input file /src/jdavis/qchem.scratch/qchem11097/Frg1.input
using default PutDataFrgm: nothing
calling putenv with: QCSCRATCH=/src/jdavis/qchem.scratch/qchem11097/ 
Spawning Job For Fragment 0
Done Job For Fragment 0
calling putenv with: QCSCRATCH=/src/jdavis/qchem.scratch 
calling putenv with: QCTHREADS=8 
Creating input file /src/jdavis/qchem.scratch/qchem11097/Frg2.input
using default PutDataFrgm: nothing
calling putenv with: QCSCRATCH=/src/jdavis/qchem.scratch/qchem11097/ 
Spawning Job For Fragment 1
Done Job For Fragment 1
calling putenv with: QCSCRATCH=/src/jdavis/qchem.scratch 
calling putenv with: QCTHREADS=8 
 Time for running child jobs:  CPU 1.77 s  wall 55.60 s
 ============= Method Specific SAD Guess Constructed =============
 Guess from on-the-fly superposition of atomic densities
 Warning: Energy on first SCF cycle will be non-variational
 A restricted Hartree-Fock SCF calculation will be
 performed using Pulay DIIS extrapolation
 SCF converges when DIIS error is below 1.0E-08
 using 10 threads for integral computing
 -------------------------------------------------------
 OpenMP Integral computing Module                
 Release: version 1.0, May 2013, Q-Chem Inc. Pittsburgh 
 -------------------------------------------------------
 ---------------------------------------
  Cycle       Energy         DIIS Error
 ---------------------------------------
    1     -78.4577598104      7.95E-02
    2     -78.0143651976      5.76E-03
    3     -78.0356696931      1.51E-03
    4     -78.0373047054      5.01E-04
    5     -78.0374749177      6.09E-05
    6     -78.0374797505      1.29E-05
    7     -78.0374801171      3.04E-06
    8     -78.0374801718      2.75E-07
    9     -78.0374801766      3.48E-08
   10     -78.0374801768      3.65E-09 Convergence criterion met
 ---------------------------------------
 SCF time:  CPU 8.45 s  wall 0.85 s
 SCF   energy in the final basis set = -78.03748018
 Total energy in the final basis set = -78.03748018
================================================================================
|                                                                              |
|                                 A D C  M A N                                 |
|                                                                              |
 ------------------------------------------------------------------------------ 
|                                                                              |
| Components:                                                                  |
|                                                                              |
| - libvmm - 1.3-trunk                                                         |
|   Authors:                                                                   |
|   Evgeny Epifanovsky, Ilya Kaliman                                           |
|                                                                              |
| - libtensor - 2.5-trunk                                                      |
|   Authors:                                                                   |
|   Evgeny Epifanovsky, Michael Wormit, Dmitry Zuev, Sam Manzer,               |
|   Ilya Kaliman                                                               |
|                                                                              |
| - libwfa - 1.1-trunk                                                         |
|   Authors:                                                                   |
|   Felix Plasser, Stefanie Mewes (Baeppler), Benjamin Thomitzni,              |
|   Michael Wormit, Feng Chen, Anna I. Krylov, Pavel Pokhilko                  |
|                                                                              |
| - libadc - 1.1-trunk                                                         |
|   Authors:                                                                   |
|   Michael Wormit, Adrian L. Dempwolff, Philipp H. P. Harbach,                |
|   Caroline Krauter, Dirk Rehn, Matthias Schneider, Jan Wenzel                |
|                                                                              |
| - adcman - 2.6-trunk                                                         |
|   Authors:                                                                   |
|   Michael Wormit, Adrian L. Dempwolff, Philipp H. P. Harbach,                |
|   Caroline Krauter, Daniel Lefrancois, Jan-Michael Mewes, Dirk Rehn,         |
|   Matthias Schneider, Jan Wenzel, Andreas Dreuw                              |
|                                                                              |
| Authors of earlier versions of ADCMAN:                                       |
| Andreas Dreuw, Jan Hendrik Starcke, Dirk Rehn, Michael Wormit                |
|                                                                              |
================================================================================

 
 Alpha MOs, Restricted
 -- Occupied --                  
-11.237 -11.235  -1.042  -0.782  -0.660  -0.567  -0.515  -0.377
  1 Ag    1 B3u   2 Ag    2 B3u   1 B2u   3 Ag    1 B1g   1 B1u                
 -- Virtual --                   
  0.063   0.073   0.083   0.084   0.090   0.100   0.128   0.171
  3 B3u   2 B2u   2 B1u   4 Ag    1 B2g   2 B1g   5 Ag    2 B2g                
  0.202   0.262   0.289   0.302   0.312   0.317   0.320   0.341
  4 B3u   6 Ag    3 B2u   5 B3u   7 Ag    3 B1g   3 B1u   4 B2u                
  0.369   0.401   0.553   0.608   0.825   0.856   0.914   0.933
  6 B3u   3 B2g   4 B1g   7 B3u   8 Ag    5 B2u   9 Ag    8 B3u                
  0.986   1.038   1.044   1.062   1.105   1.114   1.114   1.270
  6 B2u   5 B1g  10 Ag    4 B1u   4 B2g   9 B3u   1 B3g  10 B3u                
  1.285   1.288   1.411   1.619   1.642   1.724   1.870   1.943
  1 Au    5 B1u   6 B1g  11 Ag    7 B1g   7 B2u   5 B2g   6 B1u                
  1.953   2.017   2.056   2.088   2.179   2.326   2.412   2.466
 11 B3u   2 B3g  12 Ag    8 B2u   6 B2g  12 B3u   2 Au   13 Ag                 
  2.577   2.581   2.819   2.827   3.252   3.339
 13 B3u   8 B1g   9 B2u  14 Ag   14 B3u   9 B1g                                
 
 Beta MOs, Restricted
 -- Occupied --                  
-11.237 -11.235  -1.042  -0.782  -0.660  -0.567  -0.515  -0.377
  1 Ag    1 B3u   2 Ag    2 B3u   1 B2u   3 Ag    1 B1g   1 B1u                
 -- Virtual --                   
  0.063   0.073   0.083   0.084   0.090   0.100   0.128   0.171
  3 B3u   2 B2u   2 B1u   4 Ag    1 B2g   2 B1g   5 Ag    2 B2g                
  0.202   0.262   0.289   0.302   0.312   0.317   0.320   0.341
  4 B3u   6 Ag    3 B2u   5 B3u   7 Ag    3 B1g   3 B1u   4 B2u                
  0.369   0.401   0.553   0.608   0.825   0.856   0.914   0.933
  6 B3u   3 B2g   4 B1g   7 B3u   8 Ag    5 B2u   9 Ag    8 B3u                
  0.986   1.038   1.044   1.062   1.105   1.114   1.114   1.270
  6 B2u   5 B1g  10 Ag    4 B1u   4 B2g   9 B3u   1 B3g  10 B3u                
  1.285   1.288   1.411   1.619   1.642   1.724   1.870   1.943
  1 Au    5 B1u   6 B1g  11 Ag    7 B1g   7 B2u   5 B2g   6 B1u                
  1.953   2.017   2.056   2.088   2.179   2.326   2.412   2.466
 11 B3u   2 B3g  12 Ag    8 B2u   6 B2g  12 B3u   2 Au   13 Ag                 
  2.577   2.581   2.819   2.827   3.252   3.339
 13 B3u   8 B1g   9 B2u  14 Ag   14 B3u   9 B1g                                

--------------------------------------------------------------------------------
                                   HF Summary                                   
--------------------------------------------------------------------------------
  Energy:                                                  -78.0374801768 a.u.
  Dip. moment [a.u.]:                  [  -0.000000,   -0.000001,    0.000000]
  Total dipole [Debye]:                                               0.000001
  <r^2> [a.u.]:                        [  47.719164,   22.123375,   11.992046]
  Total <r^2> [a.u.]:                                                81.834585
--------------------------------------------------------------------------------

--------------------------------------------------------------------------------
                                 MP(2) Summary                                  
--------------------------------------------------------------------------------
  MP energy contribution:                                   -0.2828204939 a.u.
  Total energy:                                            -78.3203006708 a.u.
  Dip. moment [a.u.]:                  [   0.000000,   -0.000001,    0.000000]
  Total dipole [Debye]:                                               0.000001
  <r^2> [a.u.]:                        [  47.829183,   22.156457,   11.845016]
  Total <r^2> [a.u.]:                                                81.830656

  Density matrix analysis:
  ------------------------
  NOs (alpha)
    Occupation of frontier NOs:
       0.0224   0.9685
    Number of electrons:  8.000000
  NOs (beta)
    Occupation of frontier NOs:
       0.0224   0.9685
    Number of electrons:  8.000000
  NOs (spin-traced)
    Occupation of frontier NOs:
       0.0447   1.9371
    Number of electrons: 16.000000
    Number of unpaired electrons: n_u =  0.40940, n_u,nl =  0.04605
    NO participation ratio (PR_NO): 13.963355
  
  
  Mulliken Population Analysis
  Atom  Charge (e)    Spin (e)  h+ (alpha)   h+ (beta)  e- (alpha)   e- (beta)
  ----------------------------------------------------------------------------
   1 C   -0.192776   -0.000000    0.043833    0.043833   -0.051247   -0.051247
   2 C   -0.192776    0.000000    0.043833    0.043833   -0.051247   -0.051247
   3 H    0.096383    0.000000    0.008953    0.008953   -0.005246   -0.005246
   4 H    0.096398   -0.000000    0.008953    0.008953   -0.005246   -0.005246
   5 H    0.096393    0.000000    0.008953    0.008953   -0.005246   -0.005246
   6 H    0.096378   -0.000000    0.008953    0.008953   -0.005246   -0.005246
  ----------------------------------------------------------------------------
  Sum:    0.000000    0.000000    0.123477    0.123477   -0.123477   -0.123477
  
  Multipole moment analysis of the density matrix
    Molecular charge:                      0.000000
    Number of electrons:                   16.000000
      Center of electronic charge [Ang]: [ -0.000000,   0.000000,  -0.000000]
    Total nuclear charge:                  16.000000
      Center of nuclear charge [Ang]:    [  0.000000,   0.000000,   0.000000]
    Dipole moment [D]:                     0.000001
      Cartesian components [D]:          [  0.000000,  -0.000001,   0.000000]
    RMS size of the density [Ang]:         1.196738
      Cartesian components [Ang]:        [  0.914929,   0.622718,   0.455312]
  
  Exciton analysis of the difference density matrix
  Total:
    <r_h> [Ang]:                  [  0.000000,   0.000000,  -0.000000]
    <r_e> [Ang]:                  [ -0.000000,   0.000000,  -0.000000]
    |<r_e - r_h>| [Ang]:            0.000000
    Hole size [Ang]:                1.414297
      Cartesian components [Ang]: [  0.962179,   0.721838,   0.743907]
    Electron size [Ang]:            1.412722
      Cartesian components [Ang]: [  1.024960,   0.747370,   0.621834]
  
  Alpha spin:
    <r_h> [Ang]:                  [  0.000000,   0.000000,  -0.000000]
    <r_e> [Ang]:                  [ -0.000000,   0.000000,  -0.000000]
    |<r_e - r_h>| [Ang]:            0.000000
    Hole size [Ang]:                1.414297
      Cartesian components [Ang]: [  0.962179,   0.721838,   0.743907]
    Electron size [Ang]:            1.412722
      Cartesian components [Ang]: [  1.024960,   0.747370,   0.621834]
  
  Beta spin:
    <r_h> [Ang]:                  [  0.000000,   0.000000,  -0.000000]
    <r_e> [Ang]:                  [ -0.000000,   0.000000,  -0.000000]
    |<r_e - r_h>| [Ang]:            0.000000
    Hole size [Ang]:                1.414297
      Cartesian components [Ang]: [  0.962179,   0.721838,   0.743907]
    Electron size [Ang]:            1.412722
      Cartesian components [Ang]: [  1.024960,   0.747370,   0.621834]
--------------------------------------------------------------------------------

--------------------------------------------------------------------------------
                                 MP(3) Summary                                  
--------------------------------------------------------------------------------
  MP energy contribution:                                   -0.0245533996 a.u.
  Total energy:                                            -78.3448540703 a.u.
--------------------------------------------------------------------------------
Less particle guess vectors found than requested: 6 (found), 100 (requested).
Adjusting number of hole-2particle guess vectors to 94.
  Starting Davidson for electron-attached states of irrep B2g ... 
--------------------------------------------------------------------------------
   It NVec Conv  Avg. Norm  Max. Norm  Conv. states           Remark
--------------------------------------------------------------------------------
       100    0  4.202e-02  2.661e-01  0.0911 n n n n n n n n Guess.
    1  110    0  6.963e-03  3.378e-02  0.0788 n n n n n n n n 
    2  120    0  1.866e-03  8.078e-03  0.0784 n n n n n n n n 
    3  130    0  5.334e-04  2.785e-03  0.0784 n n n n n n n n 
    4  140    0  1.695e-04  9.335e-04  0.0784 n n n n n n n n 
    5  150    0  4.831e-05  2.650e-04  0.0784 n n n n n n n n 
    6  160    4  1.330e-05  7.681e-05  0.0784 y y n y y n n n 
    7  170    6  3.396e-06  2.036e-05  0.0784 y y y y y n y n 
    8  180   10  8.214e-07  4.971e-06  0.0784 y y y y y y y y Converged.
--------------------------------------------------------------------------------
  Davidson Summary: 
 ------------------------------------------------------------
  State  0: electron attachment energy =   0.0784 a.u.   (converged)
  State  1: electron attachment energy =   0.1377 a.u.   (converged)
  State  2: electron attachment energy =   0.2260 a.u.   (converged)
  State  3: electron attachment energy =   0.3022 a.u.   (converged)
  State  4: electron attachment energy =   0.3220 a.u.   (converged)
  State  5: electron attachment energy =   0.3432 a.u.   (converged)
  State  6: electron attachment energy =   0.3486 a.u.   (converged)
  State  7: electron attachment energy =   0.3643 a.u.   (converged)
  State  8: electron attachment energy =   0.3673 a.u.   (converged)
  State  9: electron attachment energy =   0.3904 a.u.   (converged)
 ------------------------------------------------------------


--------------------------------------------------------------------------------
                        Electron-Attached State Summary
--------------------------------------------------------------------------------

  Electron-attached state 1 (B2g)                                  [converged]
  ----------------------------------------------------------------------------
  Term symbol:  1 (2) B2g                                   R^2 =  1.08299e-07

  Total energy:                                            -78.2664791611 a.u.
  Electron attachment energy:                                      2.132690 eV

  Pole strength:                                                      0.958077

  Dip. moment [a.u.]:                  [   0.000000,   -0.000001,   -0.000000]
  Total dipole [Debye]:                                               0.000002
  <r^2> [a.u.]:                        [  65.940680,   28.580273,   29.179523]
  Total <r^2> [a.u.]:                                               123.700475

  V1^2 = 0.9650, V2^2 = 0.0350

  Important amplitudes:
       occ i       vir a        vir b           v   
    -------------------------------------------------
                               1 (B2g) B      0.9559
                               2 (B2g) B     -0.2213
    -------------------------------------------------

  Density matrix analysis:
  ------------------------
  NOs (alpha)
    Occupation of frontier NOs:
       0.0200   0.9624
    Number of electrons:  8.000000
  NOs (beta)
    Occupation of frontier NOs:
       0.0293   0.9697
    Number of electrons:  9.000000
  NOs (spin-traced)
    Occupation of frontier NOs:
       0.0428   0.9840
    Number of electrons: 17.000000
    Number of unpaired electrons: n_u =  1.43488, n_u,nl =  1.05169
    NO participation ratio (PR_NO):  2.096897
  
  
  Mulliken Population Analysis
  Atom  Charge (e)    Spin (e)  h+ (alpha)   h+ (beta)  e- (alpha)   e- (beta)
  ----------------------------------------------------------------------------
   1 C   -0.632265    0.536458    0.071709    0.056057   -0.023225   -0.544031
   2 C   -0.632265    0.536458    0.071709    0.056057   -0.023225   -0.544031
   3 H    0.066128   -0.018229    0.000087    0.005221   -0.024329   -0.011234
   4 H    0.066143   -0.018229    0.000087    0.005220   -0.024329   -0.011233
   5 H    0.066138   -0.018229    0.000087    0.005221   -0.024329   -0.011233
   6 H    0.066122   -0.018229    0.000087    0.005221   -0.024329   -0.011234
  ----------------------------------------------------------------------------
  Sum:   -1.000000    1.000000    0.143766    0.132996   -0.143766   -1.132996
  
  Multipole moment analysis of the density matrix
    Molecular charge:                      -1.000000
    Number of electrons:                   17.000000
      Center of electronic charge [Ang]: [ -0.000000,   0.000000,   0.000000]
    Total nuclear charge:                  16.000000
      Center of nuclear charge [Ang]:    [  0.000000,   0.000000,   0.000000]
    Dipole moment [D]:                     0.000002
      Cartesian components [D]:          [  0.000000,  -0.000002,  -0.000000]
    RMS size of the density [Ang]:         1.427455
      Cartesian components [Ang]:        [  1.042206,   0.686135,   0.693291]
  
  Exciton analysis of the difference density matrix
  Total:
    <r_h> [Ang]:                  [  0.000000,   0.000000,   0.000000]
    <r_e> [Ang]:                  [ -0.000000,   0.000000,   0.000000]
    |<r_e - r_h>| [Ang]:            0.000000
    Hole size [Ang]:                1.930118
      Cartesian components [Ang]: [  1.218414,   0.965675,   1.143807]
    Electron size [Ang]:            3.160812
      Cartesian components [Ang]: [  2.072232,   1.269275,   2.021268]
  
  Alpha spin:
    <r_h> [Ang]:                  [ -0.000000,   0.000000,   0.000000]
    <r_e> [Ang]:                  [ -0.000000,   0.000000,   0.000000]
    |<r_e - r_h>| [Ang]:            0.000000
    Hole size [Ang]:                1.848435
      Cartesian components [Ang]: [  1.173682,   0.924713,   1.088159]
    Electron size [Ang]:            2.551313
      Cartesian components [Ang]: [  1.509859,   1.382848,   1.522253]
  
  Beta spin:
    <r_h> [Ang]:                  [  0.000000,  -0.000000,   0.000000]
    <r_e> [Ang]:                  [ -0.000000,   0.000000,   0.000000]
    |<r_e - r_h>| [Ang]:            0.000000
    Hole size [Ang]:                2.014693
      Cartesian components [Ang]: [  1.264990,   1.008083,   1.201065]
    Electron size [Ang]:            3.229938
      Cartesian components [Ang]: [  2.133017,   1.254129,   2.076030]
  ----------------------------------------------------------------------------


  Electron-attached state 2 (B2g)                                  [converged]
  ----------------------------------------------------------------------------
  Term symbol:  2 (2) B2g                                   R^2 =  2.68602e-07

  Total energy:                                            -78.2071903171 a.u.
  Electron attachment energy:                                      3.746021 eV

  Pole strength:                                                      0.911992

  Dip. moment [a.u.]:                  [   0.000000,   -0.000001,   -0.000000]
  Total dipole [Debye]:                                               0.000002
  <r^2> [a.u.]:                        [  66.911836,   29.352146,   30.719734]
  Total <r^2> [a.u.]:                                               126.983716

  V1^2 = 0.9210, V2^2 = 0.0790

  Important amplitudes:
       occ i       vir a        vir b           v   
    -------------------------------------------------
                               2 (B2g) B      0.9167
                               1 (B2g) B      0.2650
    -------------------------------------------------

  Density matrix analysis:
  ------------------------
  NOs (alpha)
    Occupation of frontier NOs:
       0.0298   0.9376
    Number of electrons:  8.000000
  NOs (beta)
    Occupation of frontier NOs:
       0.0426   0.9488
    Number of electrons:  9.000000
  NOs (spin-traced)
    Occupation of frontier NOs:
       0.0581   0.9631
    Number of electrons: 17.000000
    Number of unpaired electrons: n_u =  1.49775, n_u,nl =  1.07916
    NO participation ratio (PR_NO):  2.362958
  
  
  Mulliken Population Analysis
  Atom  Charge (e)    Spin (e)  h+ (alpha)   h+ (beta)  e- (alpha)   e- (beta)
  ----------------------------------------------------------------------------
   1 C   -0.593199    0.528752    0.121666    0.055982   -0.057502   -0.520569
   2 C   -0.593199    0.528752    0.121666    0.055982   -0.057502   -0.520569
   3 H    0.046594   -0.014376    0.001393    0.004796   -0.033476   -0.022502
   4 H    0.046610   -0.014376    0.001393    0.004796   -0.033475   -0.022502
   5 H    0.046605   -0.014376    0.001394    0.004796   -0.033475   -0.022502
   6 H    0.046589   -0.014376    0.001393    0.004796   -0.033476   -0.022502
  ----------------------------------------------------------------------------
  Sum:   -1.000000    1.000000    0.248906    0.131145   -0.248906   -1.131145
  
  Multipole moment analysis of the density matrix
    Molecular charge:                      -1.000000
    Number of electrons:                   17.000000
      Center of electronic charge [Ang]: [ -0.000000,   0.000000,   0.000000]
    Total nuclear charge:                  16.000000
      Center of nuclear charge [Ang]:    [  0.000000,   0.000000,   0.000000]
    Dipole moment [D]:                     0.000002
      Cartesian components [D]:          [  0.000000,  -0.000002,  -0.000000]
    RMS size of the density [Ang]:         1.446274
      Cartesian components [Ang]:        [  1.049852,   0.695339,   0.711353]
  
  Exciton analysis of the difference density matrix
  Total:
    <r_h> [Ang]:                  [  0.000000,   0.000000,   0.000000]
    <r_e> [Ang]:                  [ -0.000000,   0.000000,   0.000000]
    |<r_e - r_h>| [Ang]:            0.000000
    Hole size [Ang]:                1.770955
      Cartesian components [Ang]: [  1.132306,   0.885418,   1.034505]
    Electron size [Ang]:            3.166351
      Cartesian components [Ang]: [  2.055523,   1.294598,   2.030917]
  
  Alpha spin:
    <r_h> [Ang]:                  [ -0.000000,   0.000000,   0.000000]
    <r_e> [Ang]:                  [ -0.000000,   0.000000,   0.000000]
    |<r_e - r_h>| [Ang]:            0.000000
    Hole size [Ang]:                1.774600
      Cartesian components [Ang]: [  1.114156,   0.864149,   1.077547]
    Electron size [Ang]:            2.654484
      Cartesian components [Ang]: [  1.530177,   1.373355,   1.678911]
  
  Beta spin:
    <r_h> [Ang]:                  [  0.000000,  -0.000000,   0.000000]
    <r_e> [Ang]:                  [ -0.000000,   0.000000,   0.000000]
    |<r_e - r_h>| [Ang]:            0.000000
    Hole size [Ang]:                1.764017
      Cartesian components [Ang]: [  1.165976,   0.924441,   0.947452]
    Electron size [Ang]:            3.268243
      Cartesian components [Ang]: [  2.153993,   1.276616,   2.100471]
  ----------------------------------------------------------------------------


  Electron-attached state 3 (B2g)                                  [converged]
  ----------------------------------------------------------------------------
  Term symbol:  3 (2) B2g                                   R^2 =  3.61194e-07

  Total energy:                                            -78.1188046127 a.u.
  Electron attachment energy:                                      6.151119 eV

  Pole strength:                                                      0.053534

  Dip. moment [a.u.]:                  [  -0.000000,   -0.000001,    0.000000]
  Total dipole [Debye]:                                               0.000002
  <r^2> [a.u.]:                        [  61.694919,   33.105317,   43.919047]
  Total <r^2> [a.u.]:                                               138.719283

  V1^2 = 0.0540, V2^2 = 0.9460

  Important amplitudes:
       occ i       vir a        vir b           v   
    -------------------------------------------------
     1 (B1u) A    2 (B1u) A    2 (B2g) B      0.4317
     1 (B1u) A    2 (B1u) A    1 (B2g) B     -0.3093
    -------------------------------------------------

  Density matrix analysis:
  ------------------------
  NOs (alpha)
    Occupation of frontier NOs:
       0.1839   0.6661
    Number of electrons:  8.000000
  NOs (beta)
    Occupation of frontier NOs:
       0.3027   0.8241
    Number of electrons:  9.000000
  NOs (spin-traced)
    Occupation of frontier NOs:
       0.7534   1.0078
    Number of electrons: 17.000000
    Number of unpaired electrons: n_u =  2.91690, n_u,nl =  2.84260
    NO participation ratio (PR_NO):  3.833481
  
  
  Mulliken Population Analysis
  Atom  Charge (e)    Spin (e)  h+ (alpha)   h+ (beta)  e- (alpha)   e- (beta)
  ----------------------------------------------------------------------------
   1 C   -0.663189    0.494219    0.410329    0.089089   -0.398426   -0.571406
   2 C   -0.663189    0.494219    0.410329    0.089089   -0.398426   -0.571406
   3 H    0.081590    0.002890    0.001666    0.000896   -0.007617   -0.009738
   4 H    0.081605    0.002890    0.001666    0.000896   -0.007617   -0.009738
   5 H    0.081599    0.002890    0.001666    0.000896   -0.007617   -0.009738
   6 H    0.081584    0.002890    0.001666    0.000896   -0.007617   -0.009738
  ----------------------------------------------------------------------------
  Sum:   -1.000000    1.000000    0.827320    0.181764   -0.827320   -1.181764
  
  Multipole moment analysis of the density matrix
    Molecular charge:                      -1.000000
    Number of electrons:                   17.000000
      Center of electronic charge [Ang]: [  0.000000,   0.000000,  -0.000000]
    Total nuclear charge:                  16.000000
      Center of nuclear charge [Ang]:    [  0.000000,   0.000000,   0.000000]
    Dipole moment [D]:                     0.000002
      Cartesian components [D]:          [ -0.000000,  -0.000002,   0.000000]
    RMS size of the density [Ang]:         1.511629
      Cartesian components [Ang]:        [  1.008095,   0.738458,   0.850556]
  
  Exciton analysis of the difference density matrix
  Total:
    <r_h> [Ang]:                  [ -0.000000,   0.000000,   0.000000]
    <r_e> [Ang]:                  [  0.000000,   0.000000,  -0.000000]
    |<r_e - r_h>| [Ang]:            0.000000
    Hole size [Ang]:                1.396454
      Cartesian components [Ang]: [  0.815336,   0.591753,   0.967027]
    Electron size [Ang]:            2.984737
      Cartesian components [Ang]: [  1.505494,   1.304585,   2.222656]
  
  Alpha spin:
    <r_h> [Ang]:                  [ -0.000000,   0.000000,   0.000000]
    <r_e> [Ang]:                  [  0.000000,   0.000000,   0.000000]
    |<r_e - r_h>| [Ang]:            0.000000
    Hole size [Ang]:                1.382725
      Cartesian components [Ang]: [  0.804278,   0.580508,   0.963366]
    Electron size [Ang]:            3.570194
      Cartesian components [Ang]: [  1.681993,   1.588321,   2.719269]
  
  Beta spin:
    <r_h> [Ang]:                  [  0.000000,   0.000000,   0.000000]
    <r_e> [Ang]:                  [  0.000000,   0.000000,  -0.000000]
    |<r_e - r_h>| [Ang]:            0.000000
    Hole size [Ang]:                1.457312
      Cartesian components [Ang]: [  0.863878,   0.640442,   0.983517]
    Electron size [Ang]:            2.494400
      Cartesian components [Ang]: [  1.368451,   1.061747,   1.795011]
  ----------------------------------------------------------------------------


  Electron-attached state 4 (B2g)                                  [converged]
  ----------------------------------------------------------------------------
  Term symbol:  4 (2) B2g                                   R^2 =  1.14992e-07

  Total energy:                                            -78.0426389616 a.u.
  Electron attachment energy:                                      8.223691 eV

  Pole strength:                                                      0.001176

  Dip. moment [a.u.]:                  [   0.000000,   -0.000001,    0.000000]
  Total dipole [Debye]:                                               0.000003
  <r^2> [a.u.]:                        [ 106.929261,   39.315958,   27.735059]
  Total <r^2> [a.u.]:                                               173.980278

  V1^2 = 0.0012, V2^2 = 0.9988

  Important amplitudes:
       occ i       vir a        vir b           v   
    -------------------------------------------------
     1 (B1u) B    4 (Ag ) B    3 (B3u) B      0.4774
     1 (B1u) A    3 (B3u) A    4 (Ag ) B     -0.2812
    -------------------------------------------------

  Density matrix analysis:
  ------------------------
  NOs (alpha)
    Occupation of frontier NOs:
       0.2736   0.5946
    Number of electrons:  8.000000
  NOs (beta)
    Occupation of frontier NOs:
       0.3463   0.6928
    Number of electrons:  9.000000
  NOs (spin-traced)
    Occupation of frontier NOs:
       0.9407   0.9424
    Number of electrons: 17.000000
    Number of unpaired electrons: n_u =  3.28644, n_u,nl =  3.02426
    NO participation ratio (PR_NO):  3.978286
  
  
  Mulliken Population Analysis
  Atom  Charge (e)    Spin (e)  h+ (alpha)   h+ (beta)  e- (alpha)   e- (beta)
  ----------------------------------------------------------------------------
   1 C   -0.714725    0.539977    0.185307    0.308333   -0.176293   -0.839296
   2 C   -0.714725    0.539977    0.185307    0.308333   -0.176293   -0.839296
   3 H    0.107357   -0.019988    0.001105    0.001809   -0.005612    0.013672
   4 H    0.107373   -0.019989    0.001105    0.001809   -0.005612    0.013673
   5 H    0.107368   -0.019989    0.001105    0.001809   -0.005612    0.013674
   6 H    0.107352   -0.019988    0.001105    0.001809   -0.005612    0.013672
  ----------------------------------------------------------------------------
  Sum:   -1.000000    1.000000    0.375033    0.623901   -0.375033   -1.623901
  
  Multipole moment analysis of the density matrix
    Molecular charge:                      -1.000000
    Number of electrons:                   17.000000
      Center of electronic charge [Ang]: [ -0.000000,   0.000000,  -0.000000]
    Total nuclear charge:                  16.000000
      Center of nuclear charge [Ang]:    [  0.000000,   0.000000,   0.000000]
    Dipole moment [D]:                     0.000003
      Cartesian components [D]:          [  0.000000,  -0.000003,   0.000000]
    RMS size of the density [Ang]:         1.692882
      Cartesian components [Ang]:        [  1.327165,   0.804750,   0.675914]
  
  Exciton analysis of the difference density matrix
  Total:
    <r_h> [Ang]:                  [ -0.000000,   0.000000,  -0.000000]
    <r_e> [Ang]:                  [ -0.000000,   0.000000,  -0.000000]
    |<r_e - r_h>| [Ang]:            0.000000
    Hole size [Ang]:                1.252920
      Cartesian components [Ang]: [  0.748640,   0.510935,   0.865039]
    Electron size [Ang]:            3.700491
      Cartesian components [Ang]: [  2.925637,   1.591953,   1.612441]
  
  Alpha spin:
    <r_h> [Ang]:                  [ -0.000000,   0.000000,  -0.000000]
    <r_e> [Ang]:                  [ -0.000000,   0.000000,  -0.000000]
    |<r_e - r_h>| [Ang]:            0.000000
    Hole size [Ang]:                1.252053
      Cartesian components [Ang]: [  0.748513,   0.510583,   0.864101]
    Electron size [Ang]:            4.070959
      Cartesian components [Ang]: [  3.334532,   1.668394,   1.634034]
  
  Beta spin:
    <r_h> [Ang]:                  [ -0.000000,   0.000000,  -0.000000]
    <r_e> [Ang]:                  [ -0.000000,   0.000000,  -0.000000]
    |<r_e - r_h>| [Ang]:            0.000000
    Hole size [Ang]:                1.253441
      Cartesian components [Ang]: [  0.748716,   0.511147,   0.865603]
    Electron size [Ang]:            3.609532
      Cartesian components [Ang]: [  2.822798,   1.573772,   1.607413]
  ----------------------------------------------------------------------------


  Electron-attached state 5 (B2g)                                  [converged]
  ----------------------------------------------------------------------------
  Term symbol:  5 (2) B2g                                   R^2 =  4.64206e-07

  Total energy:                                            -78.0228426870 a.u.
  Electron attachment energy:                                      8.762375 eV

  Pole strength:                                                      0.000086

  Dip. moment [a.u.]:                  [   0.000000,   -0.000001,    0.000000]
  Total dipole [Debye]:                                               0.000002
  <r^2> [a.u.]:                        [  95.170439,   42.195697,   30.702324]
  Total <r^2> [a.u.]:                                               168.068459

  V1^2 = 0.0001, V2^2 = 0.9999

  Important amplitudes:
       occ i       vir a        vir b           v   
    -------------------------------------------------
     1 (B1u) A    3 (B3u) A    5 (Ag ) B      0.4128
     1 (B1u) A    5 (Ag ) A    3 (B3u) B      0.3887
    -------------------------------------------------

  Density matrix analysis:
  ------------------------
  NOs (alpha)
    Occupation of frontier NOs:
       0.3792   0.4568
    Number of electrons:  8.000000
  NOs (beta)
    Occupation of frontier NOs:
       0.3805   0.5196
    Number of electrons:  9.000000
  NOs (spin-traced)
    Occupation of frontier NOs:
       0.8116   0.8987
    Number of electrons: 17.000000
    Number of unpaired electrons: n_u =  3.28758, n_u,nl =  3.00654
    NO participation ratio (PR_NO):  4.545314
  
  
  Mulliken Population Analysis
  Atom  Charge (e)    Spin (e)  h+ (alpha)   h+ (beta)  e- (alpha)   e- (beta)
  ----------------------------------------------------------------------------
   1 C   -0.709322    0.481055    0.457435    0.036587   -0.475180   -0.535387
   2 C   -0.709322    0.481055    0.457435    0.036587   -0.475180   -0.535387
   3 H    0.104655    0.009473    0.002736    0.000236    0.006136   -0.000836
   4 H    0.104672    0.009472    0.002736    0.000235    0.006137   -0.000835
   5 H    0.104667    0.009472    0.002736    0.000235    0.006137   -0.000835
   6 H    0.104650    0.009473    0.002736    0.000236    0.006136   -0.000836
  ----------------------------------------------------------------------------
  Sum:   -1.000000    1.000000    0.925813    0.074116   -0.925813   -1.074116
  
  Multipole moment analysis of the density matrix
    Molecular charge:                      -1.000000
    Number of electrons:                   17.000000
      Center of electronic charge [Ang]: [ -0.000000,   0.000000,  -0.000000]
    Total nuclear charge:                  16.000000
      Center of nuclear charge [Ang]:    [  0.000000,   0.000000,   0.000000]
    Dipole moment [D]:                     0.000002
      Cartesian components [D]:          [  0.000000,  -0.000002,   0.000000]
    RMS size of the density [Ang]:         1.663871
      Cartesian components [Ang]:        [  1.252067,   0.833702,   0.711152]
  
  Exciton analysis of the difference density matrix
  Total:
    <r_h> [Ang]:                  [ -0.000000,   0.000000,   0.000000]
    <r_e> [Ang]:                  [ -0.000000,   0.000000,  -0.000000]
    |<r_e - r_h>| [Ang]:            0.000000
    Hole size [Ang]:                1.252180
      Cartesian components [Ang]: [  0.748303,   0.510680,   0.864409]
    Electron size [Ang]:            3.585931
      Cartesian components [Ang]: [  2.628432,   1.713555,   1.736080]
  
  Alpha spin:
    <r_h> [Ang]:                  [ -0.000000,   0.000000,   0.000000]
    <r_e> [Ang]:                  [ -0.000000,   0.000000,  -0.000000]
    |<r_e - r_h>| [Ang]:            0.000000
    Hole size [Ang]:                1.252410
      Cartesian components [Ang]: [  0.748323,   0.510751,   0.864683]
    Electron size [Ang]:            3.500000
      Cartesian components [Ang]: [  2.517143,   1.709224,   1.729896]
  
  Beta spin:
    <r_h> [Ang]:                  [  0.000000,   0.000000,   0.000000]
    <r_e> [Ang]:                  [ -0.000000,   0.000000,  -0.000000]
    |<r_e - r_h>| [Ang]:            0.000000
    Hole size [Ang]:                1.249308
      Cartesian components [Ang]: [  0.748058,   0.509786,   0.860986]
    Electron size [Ang]:            3.658379
      Cartesian components [Ang]: [  2.720705,   1.717280,   1.741393]
  ----------------------------------------------------------------------------


  Electron-attached state 6 (B2g)                                  [converged]
  ----------------------------------------------------------------------------
  Term symbol:  6 (2) B2g                                   R^2 =  2.51141e-06

  Total energy:                                            -78.0017022034 a.u.
  Electron attachment energy:                                      9.337637 eV

  Pole strength:                                                      0.181685

  Dip. moment [a.u.]:                  [   0.000000,   -0.000001,   -0.000000]
  Total dipole [Debye]:                                               0.000002
  <r^2> [a.u.]:                        [  79.782765,   36.688304,   40.576031]
  Total <r^2> [a.u.]:                                               157.047100

  V1^2 = 0.1823, V2^2 = 0.8177

  Important amplitudes:
       occ i       vir a        vir b           v   
    -------------------------------------------------
                               3 (B2g) B     -0.4186
     1 (B1u) B    1 (B2g) B    2 (B1u) B     -0.3613
    -------------------------------------------------

  Density matrix analysis:
  ------------------------
  NOs (alpha)
    Occupation of frontier NOs:
       0.2210   0.6209
    Number of electrons:  8.000000
  NOs (beta)
    Occupation of frontier NOs:
       0.3162   0.5055
    Number of electrons:  9.000000
  NOs (spin-traced)
    Occupation of frontier NOs:
       0.5212   0.5331
    Number of electrons: 17.000000
    Number of unpaired electrons: n_u =  3.04135, n_u,nl =  2.64010
    NO participation ratio (PR_NO):  6.491432
  
  
  Mulliken Population Analysis
  Atom  Charge (e)    Spin (e)  h+ (alpha)   h+ (beta)  e- (alpha)   e- (beta)
  ----------------------------------------------------------------------------
   1 C   -0.666421    0.491923    0.186169    0.225121   -0.177030   -0.707905
   2 C   -0.666421    0.491923    0.186169    0.225121   -0.177030   -0.707905
   3 H    0.083206    0.004039    0.001110    0.000852   -0.005679   -0.009460
   4 H    0.083221    0.004039    0.001110    0.000852   -0.005679   -0.009460
   5 H    0.083215    0.004039    0.001110    0.000852   -0.005679   -0.009460
   6 H    0.083200    0.004039    0.001110    0.000852   -0.005679   -0.009460
  ----------------------------------------------------------------------------
  Sum:   -1.000000    1.000000    0.376778    0.453648   -0.376778   -1.453648
  
  Multipole moment analysis of the density matrix
    Molecular charge:                      -1.000000
    Number of electrons:                   17.000000
      Center of electronic charge [Ang]: [ -0.000000,   0.000000,   0.000000]
    Total nuclear charge:                  16.000000
      Center of nuclear charge [Ang]:    [  0.000000,   0.000000,   0.000000]
    Dipole moment [D]:                     0.000002
      Cartesian components [D]:          [  0.000000,  -0.000002,  -0.000000]
    RMS size of the density [Ang]:         1.608391
      Cartesian components [Ang]:        [  1.146387,   0.777393,   0.817545]
  
  Exciton analysis of the difference density matrix
  Total:
    <r_h> [Ang]:                  [  0.000000,   0.000000,   0.000000]
    <r_e> [Ang]:                  [ -0.000000,   0.000000,   0.000000]
    |<r_e - r_h>| [Ang]:            0.000000
    Hole size [Ang]:                1.243948
      Cartesian components [Ang]: [  0.763973,   0.516827,   0.834651]
    Electron size [Ang]:            3.494145
      Cartesian components [Ang]: [  2.270072,   1.531125,   2.170594]
  
  Alpha spin:
    <r_h> [Ang]:                  [  0.000000,   0.000000,   0.000000]
    <r_e> [Ang]:                  [ -0.000000,   0.000000,   0.000000]
    |<r_e - r_h>| [Ang]:            0.000000
    Hole size [Ang]:                1.237307
      Cartesian components [Ang]: [  0.772760,   0.515820,   0.817129]
    Electron size [Ang]:            3.109442
      Cartesian components [Ang]: [  2.110918,   1.418742,   1.788806]
  
  Beta spin:
    <r_h> [Ang]:                  [ -0.000000,   0.000000,   0.000000]
    <r_e> [Ang]:                  [ -0.000000,   0.000000,   0.000000]
    |<r_e - r_h>| [Ang]:            0.000000
    Hole size [Ang]:                1.249437
      Cartesian components [Ang]: [  0.756598,   0.517661,   0.848928]
    Electron size [Ang]:            3.587131
      Cartesian components [Ang]: [  2.309535,   1.558932,   2.259046]
  ----------------------------------------------------------------------------


  Electron-attached state 7 (B2g)                                  [converged]
  ----------------------------------------------------------------------------
  Term symbol:  7 (2) B2g                                   R^2 =  1.74977e-06

  Total energy:                                            -77.9962312960 a.u.
  Electron attachment energy:                                      9.486508 eV

  Pole strength:                                                      0.052611

  Dip. moment [a.u.]:                  [   0.000000,   -0.000001,    0.000000]
  Total dipole [Debye]:                                               0.000001
  <r^2> [a.u.]:                        [  92.075879,   53.033610,   30.283159]
  Total <r^2> [a.u.]:                                               175.392648

  V1^2 = 0.0528, V2^2 = 0.9472

  Important amplitudes:
       occ i       vir a        vir b           v   
    -------------------------------------------------
     1 (B1u) B    2 (B1g) B    2 (B2u) B     -0.3506
     1 (B1u) B    5 (Ag ) B    3 (B3u) B      0.2966
    -------------------------------------------------

  Density matrix analysis:
  ------------------------
  NOs (alpha)
    Occupation of frontier NOs:
       0.0787   0.6338
    Number of electrons:  8.000000
  NOs (beta)
    Occupation of frontier NOs:
       0.3371   0.3393
    Number of electrons:  9.000000
  NOs (spin-traced)
    Occupation of frontier NOs:
       0.4071   0.4079
    Number of electrons: 17.000000
    Number of unpaired electrons: n_u =  3.30158, n_u,nl =  2.82932
    NO participation ratio (PR_NO):  6.460501
  
  
  Mulliken Population Analysis
  Atom  Charge (e)    Spin (e)  h+ (alpha)   h+ (beta)  e- (alpha)   e- (beta)
  ----------------------------------------------------------------------------
   1 C   -0.568259    0.414470    0.169796    0.299214   -0.150303   -0.694190
   2 C   -0.568259    0.414470    0.169796    0.299214   -0.150303   -0.694190
   3 H    0.034125    0.042765    0.001223    0.001698   -0.010970   -0.054210
   4 H    0.034140    0.042765    0.001223    0.001698   -0.010970   -0.054210
   5 H    0.034135    0.042765    0.001223    0.001698   -0.010970   -0.054210
   6 H    0.034120    0.042765    0.001223    0.001698   -0.010970   -0.054210
  ----------------------------------------------------------------------------
  Sum:   -1.000000    1.000000    0.344484    0.605221   -0.344484   -1.605221
  
  Multipole moment analysis of the density matrix
    Molecular charge:                      -1.000000
    Number of electrons:                   17.000000
      Center of electronic charge [Ang]: [ -0.000000,   0.000000,  -0.000000]
    Total nuclear charge:                  16.000000
      Center of nuclear charge [Ang]:    [  0.000000,   0.000000,   0.000000]
    Dipole moment [D]:                     0.000001
      Cartesian components [D]:          [  0.000000,  -0.000001,   0.000000]
    RMS size of the density [Ang]:         1.699739
      Cartesian components [Ang]:        [  1.231543,   0.934657,   0.706281]
  
  Exciton analysis of the difference density matrix
  Total:
    <r_h> [Ang]:                  [ -0.000000,   0.000000,   0.000000]
    <r_e> [Ang]:                  [ -0.000000,   0.000000,   0.000000]
    |<r_e - r_h>| [Ang]:            0.000000
    Hole size [Ang]:                1.249162
      Cartesian components [Ang]: [  0.751629,   0.512251,   0.856188]
    Electron size [Ang]:            3.768026
      Cartesian components [Ang]: [  2.574911,   2.136020,   1.733572]
  
  Alpha spin:
    <r_h> [Ang]:                  [ -0.000000,   0.000000,   0.000000]
    <r_e> [Ang]:                  [ -0.000000,   0.000000,   0.000000]
    |<r_e - r_h>| [Ang]:            0.000000
    Hole size [Ang]:                1.249409
      Cartesian components [Ang]: [  0.756690,   0.514347,   0.850818]
    Electron size [Ang]:            3.646771
      Cartesian components [Ang]: [  2.502352,   2.087376,   1.637082]
  
  Beta spin:
    <r_h> [Ang]:                  [ -0.000000,   0.000000,   0.000000]
    <r_e> [Ang]:                  [ -0.000000,   0.000000,   0.000000]
    |<r_e - r_h>| [Ang]:            0.000000
    Hole size [Ang]:                1.249021
      Cartesian components [Ang]: [  0.748733,   0.511053,   0.859230]
    Electron size [Ang]:            3.793543
      Cartesian components [Ang]: [  2.590218,   2.146315,   1.753587]
  ----------------------------------------------------------------------------


  Electron-attached state 8 (B2g)                                  [converged]
  ----------------------------------------------------------------------------
  Term symbol:  8 (2) B2g                                   R^2 =  4.97094e-06

  Total energy:                                            -77.9805199799 a.u.
  Electron attachment energy:                                      9.914035 eV

  Pole strength:                                                      0.335632

  Dip. moment [a.u.]:                  [   0.000000,   -0.000001,   -0.000000]
  Total dipole [Debye]:                                               0.000001
  <r^2> [a.u.]:                        [  81.953997,   47.152869,   29.798016]
  Total <r^2> [a.u.]:                                               158.904882

  V1^2 = 0.3367, V2^2 = 0.6633

  Important amplitudes:
       occ i       vir a        vir b           v   
    -------------------------------------------------
                               3 (B2g) B      0.5724
     1 (B1u) B    2 (B1g) B    2 (B2u) B      0.3129
    -------------------------------------------------

  Density matrix analysis:
  ------------------------
  NOs (alpha)
    Occupation of frontier NOs:
       0.0807   0.7229
    Number of electrons:  8.000000
  NOs (beta)
    Occupation of frontier NOs:
       0.2902   0.3419
    Number of electrons:  9.000000
  NOs (spin-traced)
    Occupation of frontier NOs:
       0.3266   0.3465
    Number of electrons: 17.000000
    Number of unpaired electrons: n_u =  2.72962, n_u,nl =  2.15475
    NO participation ratio (PR_NO):  7.900778
  
  
  Mulliken Population Analysis
  Atom  Charge (e)    Spin (e)  h+ (alpha)   h+ (beta)  e- (alpha)   e- (beta)
  ----------------------------------------------------------------------------
   1 C   -0.575449    0.451047    0.142959    0.203539   -0.108772   -0.620399
   2 C   -0.575449    0.451047    0.142959    0.203539   -0.108772   -0.620399
   3 H    0.037720    0.024477    0.000376    0.000868   -0.017470   -0.042438
   4 H    0.037735    0.024477    0.000376    0.000868   -0.017470   -0.042438
   5 H    0.037729    0.024477    0.000376    0.000868   -0.017470   -0.042438
   6 H    0.037714    0.024477    0.000376    0.000868   -0.017470   -0.042438
  ----------------------------------------------------------------------------
  Sum:   -1.000000    1.000000    0.287423    0.410549   -0.287423   -1.410549
  
  Multipole moment analysis of the density matrix
    Molecular charge:                      -1.000000
    Number of electrons:                   17.000000
      Center of electronic charge [Ang]: [ -0.000000,   0.000000,   0.000000]
    Total nuclear charge:                  16.000000
      Center of nuclear charge [Ang]:    [  0.000000,   0.000000,   0.000000]
    Dipole moment [D]:                     0.000001
      Cartesian components [D]:          [  0.000000,  -0.000001,  -0.000000]
    RMS size of the density [Ang]:         1.617876
      Cartesian components [Ang]:        [  1.161881,   0.881314,   0.700600]
  
  Exciton analysis of the difference density matrix
  Total:
    <r_h> [Ang]:                  [  0.000000,   0.000000,   0.000000]
    <r_e> [Ang]:                  [ -0.000000,   0.000000,   0.000000]
    |<r_e - r_h>| [Ang]:            0.000000
    Hole size [Ang]:                1.278018
      Cartesian components [Ang]: [  0.794680,   0.547060,   0.838177]
    Electron size [Ang]:            3.658201
      Cartesian components [Ang]: [  2.426404,   2.060440,   1.802661]
  
  Alpha spin:
    <r_h> [Ang]:                  [  0.000000,   0.000000,   0.000000]
    <r_e> [Ang]:                  [ -0.000000,  -0.000000,   0.000000]
    |<r_e - r_h>| [Ang]:            0.000000
    Hole size [Ang]:                1.262433
      Cartesian components [Ang]: [  0.811368,   0.540186,   0.802258]
    Electron size [Ang]:            3.618739
      Cartesian components [Ang]: [  2.384760,   2.128280,   1.696648]
  
  Beta spin:
    <r_h> [Ang]:                  [  0.000000,   0.000000,   0.000000]
    <r_e> [Ang]:                  [ -0.000000,   0.000000,   0.000000]
    |<r_e - r_h>| [Ang]:            0.000000
    Hole size [Ang]:                1.288818
      Cartesian components [Ang]: [  0.782785,   0.551822,   0.862433]
    Electron size [Ang]:            3.666190
      Cartesian components [Ang]: [  2.434802,   2.046341,   1.823507]
  ----------------------------------------------------------------------------


  Electron-attached state 9 (B2g)                                  [converged]
  ----------------------------------------------------------------------------
  Term symbol:  9 (2) B2g                                   R^2 =  4.45399e-06

  Total energy:                                            -77.9775707082 a.u.
  Electron attachment energy:                                      9.994289 eV

  Pole strength:                                                      0.285566

  Dip. moment [a.u.]:                  [   0.000000,   -0.000001,   -0.000000]
  Total dipole [Debye]:                                               0.000002
  <r^2> [a.u.]:                        [  79.578059,   43.808246,   33.805495]
  Total <r^2> [a.u.]:                                               157.191801

  V1^2 = 0.2864, V2^2 = 0.7136

  Important amplitudes:
       occ i       vir a        vir b           v   
    -------------------------------------------------
                               3 (B2g) B      0.5273
     1 (B1u) B    2 (B1g) B    2 (B2u) B     -0.2666
    -------------------------------------------------

  Density matrix analysis:
  ------------------------
  NOs (alpha)
    Occupation of frontier NOs:
       0.1391   0.6693
    Number of electrons:  8.000000
  NOs (beta)
    Occupation of frontier NOs:
       0.2382   0.2917
    Number of electrons:  9.000000
  NOs (spin-traced)
    Occupation of frontier NOs:
       0.2610   0.2973
    Number of electrons: 17.000000
    Number of unpaired electrons: n_u =  2.83130, n_u,nl =  2.15776
    NO participation ratio (PR_NO):  8.256092
  
  
  Mulliken Population Analysis
  Atom  Charge (e)    Spin (e)  h+ (alpha)   h+ (beta)  e- (alpha)   e- (beta)
  ----------------------------------------------------------------------------
   1 C   -0.597424    0.447345    0.167573    0.200334   -0.146224   -0.626330
   2 C   -0.597424    0.447345    0.167573    0.200334   -0.146224   -0.626330
   3 H    0.048707    0.026328    0.000256    0.000816   -0.010931   -0.037818
   4 H    0.048722    0.026328    0.000256    0.000816   -0.010930   -0.037817
   5 H    0.048717    0.026327    0.000256    0.000816   -0.010930   -0.037817
   6 H    0.048702    0.026328    0.000256    0.000816   -0.010931   -0.037818
  ----------------------------------------------------------------------------
  Sum:   -1.000000    1.000000    0.336170    0.403930   -0.336170   -1.403930
  
  Multipole moment analysis of the density matrix
    Molecular charge:                      -1.000000
    Number of electrons:                   17.000000
      Center of electronic charge [Ang]: [ -0.000000,   0.000000,   0.000000]
    Total nuclear charge:                  16.000000
      Center of nuclear charge [Ang]:    [  0.000000,   0.000000,   0.000000]
    Dipole moment [D]:                     0.000002
      Cartesian components [D]:          [  0.000000,  -0.000002,  -0.000000]
    RMS size of the density [Ang]:         1.609132
      Cartesian components [Ang]:        [  1.144915,   0.849483,   0.746226]
  
  Exciton analysis of the difference density matrix
  Total:
    <r_h> [Ang]:                  [  0.000000,   0.000000,   0.000000]
    <r_e> [Ang]:                  [ -0.000000,   0.000000,   0.000000]
    |<r_e - r_h>| [Ang]:            0.000000
    Hole size [Ang]:                1.261583
      Cartesian components [Ang]: [  0.778408,   0.535156,   0.836229]
    Electron size [Ang]:            3.578345
      Cartesian components [Ang]: [  2.316668,   1.898989,   1.957408]
  
  Alpha spin:
    <r_h> [Ang]:                  [  0.000000,   0.000000,   0.000000]
    <r_e> [Ang]:                  [ -0.000000,   0.000000,   0.000000]
    |<r_e - r_h>| [Ang]:            0.000000
    Hole size [Ang]:                1.226862
      Cartesian components [Ang]: [  0.775237,   0.518297,   0.797225]
    Electron size [Ang]:            3.496208
      Cartesian components [Ang]: [  2.427110,   1.807097,   1.751289]
  
  Beta spin:
    <r_h> [Ang]:                  [  0.000000,   0.000000,   0.000000]
    <r_e> [Ang]:                  [ -0.000000,   0.000000,   0.000000]
    |<r_e - r_h>| [Ang]:            0.000000
    Hole size [Ang]:                1.289766
      Cartesian components [Ang]: [  0.781038,   0.548793,   0.867354]
    Electron size [Ang]:            3.597735
      Cartesian components [Ang]: [  2.289432,   1.920340,   2.003619]
  ----------------------------------------------------------------------------


  Electron-attached state 10 (B2g)                                  [converged]
  ----------------------------------------------------------------------------
  Term symbol:  10 (2) B2g                                  R^2 =  3.62180e-06

  Total energy:                                            -77.9545027091 a.u.
  Electron attachment energy:                                     10.622001 eV

  Pole strength:                                                      0.001367

  Dip. moment [a.u.]:                  [   0.000000,   -0.000000,    0.000000]
  Total dipole [Debye]:                                               0.000001
  <r^2> [a.u.]:                        [  91.848470,   62.568576,   26.016119]
  Total <r^2> [a.u.]:                                               180.433165

  V1^2 = 0.0014, V2^2 = 0.9986

  Important amplitudes:
       occ i       vir a        vir b           v   
    -------------------------------------------------
     1 (B1u) A    2 (B2u) A    2 (B1g) B      0.3971
     1 (B1u) A    2 (B1g) A    2 (B2u) B      0.3681
    -------------------------------------------------

  Density matrix analysis:
  ------------------------
  NOs (alpha)
    Occupation of frontier NOs:
       0.3095   0.3533
    Number of electrons:  8.000000
  NOs (beta)
    Occupation of frontier NOs:
       0.3113   0.3544
    Number of electrons:  9.000000
  NOs (spin-traced)
    Occupation of frontier NOs:
       0.6639   0.6644
    Number of electrons: 17.000000
    Number of unpaired electrons: n_u =  3.29173, n_u,nl =  3.02616
    NO participation ratio (PR_NO):  5.657331
  
  
  Mulliken Population Analysis
  Atom  Charge (e)    Spin (e)  h+ (alpha)   h+ (beta)  e- (alpha)   e- (beta)
  ----------------------------------------------------------------------------
   1 C   -0.499818    0.491585    0.490684    0.002208   -0.398412   -0.401521
   2 C   -0.499818    0.491585    0.490684    0.002208   -0.398412   -0.401521
   3 H   -0.000096    0.004207    0.003098    0.000120   -0.049234   -0.050463
   4 H   -0.000081    0.004207    0.003098    0.000120   -0.049235   -0.050463
   5 H   -0.000086    0.004207    0.003098    0.000120   -0.049234   -0.050463
   6 H   -0.000101    0.004207    0.003098    0.000120   -0.049234   -0.050463
  ----------------------------------------------------------------------------
  Sum:   -1.000000    1.000000    0.993763    0.004894   -0.993763   -1.004894
  
  Multipole moment analysis of the density matrix
    Molecular charge:                      -1.000000
    Number of electrons:                   17.000000
      Center of electronic charge [Ang]: [ -0.000000,   0.000000,  -0.000000]
    Total nuclear charge:                  16.000000
      Center of nuclear charge [Ang]:    [  0.000000,   0.000000,   0.000000]
    Dipole moment [D]:                     0.000001
      Cartesian components [D]:          [  0.000000,  -0.000001,   0.000000]
    RMS size of the density [Ang]:         1.723990
      Cartesian components [Ang]:        [  1.230021,   1.015207,   0.654633]
  
  Exciton analysis of the difference density matrix
  Total:
    <r_h> [Ang]:                  [ -0.000000,   0.000000,  -0.000000]
    <r_e> [Ang]:                  [ -0.000000,  -0.000000,  -0.000000]
    |<r_e - r_h>| [Ang]:            0.000000
    Hole size [Ang]:                1.252408
      Cartesian components [Ang]: [  0.749166,   0.511548,   0.863477]
    Electron size [Ang]:            3.820834
      Cartesian components [Ang]: [  2.539273,   2.406830,   1.535590]
  
  Alpha spin:
    <r_h> [Ang]:                  [ -0.000000,   0.000000,  -0.000000]
    <r_e> [Ang]:                  [ -0.000000,  -0.000000,  -0.000000]
    |<r_e - r_h>| [Ang]:            0.000000
    Hole size [Ang]:                1.252290
      Cartesian components [Ang]: [  0.748850,   0.511165,   0.863809]
    Electron size [Ang]:            3.813973
      Cartesian components [Ang]: [  2.517085,   2.416572,   1.539758]
  
  Beta spin:
    <r_h> [Ang]:                  [  0.000000,   0.000000,   0.000000]
    <r_e> [Ang]:                  [ -0.000000,  -0.000000,  -0.000000]
    |<r_e - r_h>| [Ang]:            0.000000
    Hole size [Ang]:                1.275988
      Cartesian components [Ang]: [  0.810888,   0.584172,   0.793316]
    Electron size [Ang]:            3.827607
      Cartesian components [Ang]: [  2.561026,   2.397156,   1.531457]
  ----------------------------------------------------------------------------


--------------------------------------------------------------------------------
  Time of ADC calculation:  CPU 187.24 s  wall 44.21 s
================================================================================
 
 --------------------------------------------------------------
             Orbital Energies (a.u.) and Symmetries
 --------------------------------------------------------------
 
 Alpha MOs, Restricted
 -- Occupied --                  
-11.237 -11.235  -1.042  -0.782  -0.660  -0.567  -0.515  -0.377
  1 Ag    1 B3u   2 Ag    2 B3u   1 B2u   3 Ag    1 B1g   1 B1u                
 -- Virtual --                   
  0.063   0.073   0.083   0.084   0.090   0.100   0.128   0.171
  3 B3u   2 B2u   2 B1u   4 Ag    1 B2g   2 B1g   5 Ag    2 B2g                
  0.202   0.262   0.289   0.302   0.312   0.317   0.320   0.341
  4 B3u   6 Ag    3 B2u   5 B3u   7 Ag    3 B1g   3 B1u   4 B2u                
  0.369   0.401   0.553   0.608   0.825   0.856   0.914   0.933
  6 B3u   3 B2g   4 B1g   7 B3u   8 Ag    5 B2u   9 Ag    8 B3u                
  0.986   1.038   1.044   1.062   1.105   1.114   1.114   1.270
  6 B2u   5 B1g  10 Ag    4 B1u   4 B2g   9 B3u   1 B3g  10 B3u                
  1.285   1.288   1.411   1.619   1.642   1.724   1.870   1.943
  1 Au    5 B1u   6 B1g  11 Ag    7 B1g   7 B2u   5 B2g   6 B1u                
  1.953   2.017   2.056   2.088   2.179   2.326   2.412   2.466
 11 B3u   2 B3g  12 Ag    8 B2u   6 B2g  12 B3u   2 Au   13 Ag                 
  2.577   2.581   2.819   2.827   3.252   3.339
 13 B3u   8 B1g   9 B2u  14 Ag   14 B3u   9 B1g                                
 
 Beta MOs, Restricted
 -- Occupied --                  
-11.237 -11.235  -1.042  -0.782  -0.660  -0.567  -0.515  -0.377
  1 Ag    1 B3u   2 Ag    2 B3u   1 B2u   3 Ag    1 B1g   1 B1u                
 -- Virtual --                   
  0.063   0.073   0.083   0.084   0.090   0.100   0.128   0.171
  3 B3u   2 B2u   2 B1u   4 Ag    1 B2g   2 B1g   5 Ag    2 B2g                
  0.202   0.262   0.289   0.302   0.312   0.317   0.320   0.341
  4 B3u   6 Ag    3 B2u   5 B3u   7 Ag    3 B1g   3 B1u   4 B2u                
  0.369   0.401   0.553   0.608   0.825   0.856   0.914   0.933
  6 B3u   3 B2g   4 B1g   7 B3u   8 Ag    5 B2u   9 Ag    8 B3u                
  0.986   1.038   1.044   1.062   1.105   1.114   1.114   1.270
  6 B2u   5 B1g  10 Ag    4 B1u   4 B2g   9 B3u   1 B3g  10 B3u                
  1.285   1.288   1.411   1.619   1.642   1.724   1.870   1.943
  1 Au    5 B1u   6 B1g  11 Ag    7 B1g   7 B2u   5 B2g   6 B1u                
  1.953   2.017   2.056   2.088   2.179   2.326   2.412   2.466
 11 B3u   2 B3g  12 Ag    8 B2u   6 B2g  12 B3u   2 Au   13 Ag                 
  2.577   2.581   2.819   2.827   3.252   3.339
 13 B3u   8 B1g   9 B2u  14 Ag   14 B3u   9 B1g                                
 --------------------------------------------------------------
 
          Ground-State Mulliken Net Atomic Charges

     Atom                 Charge (a.u.)
  ----------------------------------------
      1 C                    -0.177948
      2 C                    -0.177948
      3 H                     0.088969
      4 H                     0.088984
      5 H                     0.088979
      6 H                     0.088964
  ----------------------------------------
  Sum of atomic charges =     0.000000

 -----------------------------------------------------------------
                    Cartesian Multipole Moments
 -----------------------------------------------------------------
    Charge (ESU x 10^10)
                 0.0000
    Dipole Moment (Debye)
         X      -0.0000      Y      -0.0000      Z       0.0000
       Tot       0.0000
    Quadrupole Moments (Debye-Ang)
        XX     -12.9213     XY       0.0000     YY     -11.9634
        XZ      -0.0000     YZ      -0.0000     ZZ     -16.1297
    Octopole Moments (Debye-Ang^2)
       XXX       0.0000    XXY      -0.0000    XYY       0.0000
       YYY      -0.0000    XXZ      -0.0000    XYZ       0.0000
       YYZ       0.0000    XZZ       0.0000    YZZ      -0.0000
       ZZZ       0.0000
    Hexadecapole Moments (Debye-Ang^3)
      XXXX     -68.1110   XXXY       0.0000   XXYY     -13.2182
      XYYY       0.0000   YYYY     -26.8806   XXXZ       0.0000
      XXYZ       0.0000   XYYZ      -0.0000   YYYZ       0.0000
      XXZZ     -15.5893   XYZZ       0.0000   YYZZ      -8.9810
      XZZZ      -0.0000   YZZZ       0.0000   ZZZZ     -21.6181
 -----------------------------------------------------------------
 Total job time:  127.89s(wall), 229.81s(cpu) 
 Sun Mar 27 22:03:24 2022

        *************************************************************
        *                                                           *
        *  Thank you very much for using Q-Chem.  Have a nice day.  *
        *                                                           *
        *************************************************************


