/src/tsommerfeld/qchem/exe/qcprog.exe .input0.805556.25925.qcin.1 /src/jdavis/qchem.scratch/qchem25925/

                  Welcome to Q-Chem
     A Quantum Leap Into The Future Of Chemistry


 Q-Chem 5.4 (devel), Q-Chem, Inc., Pleasanton, CA (2021)

 E. Epifanovsky,  A. T. B. Gilbert,  Xintian Feng,  Joonho Lee,  Yuezhi Mao,  
 N. Mardirossian,  P. Pokhilko,  A. White,  M. Wormit,  M. P. Coons,  
 A. L. Dempwolff,  Zhengting Gan,  D. Hait,  P. R. Horn,  L. D. Jacobson,  
 I. Kaliman,  J. Kussmann,  A. W. Lange,  Ka Un Lao,  D. S. Levine,  Jie Liu,  
 S. C. McKenzie,  A. F. Morrison,  K. Nanda,  F. Plasser,  D. R. Rehn,  
 M. L. Vidal,  Zhi-Qiang You,  Ying Zhu,  B. Alam,  B. Albrecht,  
 A. Aldossary,  E. Alguire,  J. H. Andersen,  D. Barton,  K. Begam,  A. Behn,  
 Y. A. Bernard,  E. J. Berquist,  H. Burton,  A. Carreras,  K. Carter-Fenk,  
 R. Chakraborty,  A. D. Chien,  K. D. Closser,  V. Cofer-Shabica,  
 S. Dasgupta,  Jia Deng,  M. de Wergifosse,  M. Diedenhofen,  Hainam Do,  
 S. Ehlert,  Po-Tung Fang,  S. Fatehi,  Qingguo Feng,  T. Friedhoff,  
 J. Gayvert,  Qinghui Ge,  G. Gidofalvi,  M. Goldey,  J. Gomes,  
 C. Gonzalez-Espinoza,  S. Gulania,  A. Gunina,  M. W. D. Hanson-Heine,  
 P. H. P. Harbach,  A. W. Hauser,  M. F. Herbst,  M. Hernandez Vera,  
 M. Hodecker,  Z. C. Holden,  S. Houck,  Xunkun Huang,  Kerwin Hui,  
 B. C. Huynh,  M. Ivanov,  Hyunjun Ji,  Hanjie Jiang,  B. Kaduk,  S. Kaehler,  
 K. Khistyaev,  Jaehoon Kim,  P. Klunzinger,  Z. Koczor-Benda,  
 Joong Hoon Koh,  D. Kosenkov,  L. Koulias,  T. Kowalczyk,  C. M. Krauter,  
 K. Kue,  A. Kunitsa,  T. Kus,  A. Landau,  K. V. Lawler,  D. Lefrancois,  
 S. Lehtola,  Rain Li,  Yi-Pei Li,  Jiashu Liang,  M. Liebenthal,  
 Hung-Hsuan Lin,  You-Sheng Lin,  Fenglai Liu,  Kuan-Yu Liu,  
 M. Loipersberger,  A. Luenser,  A. Manjanath,  P. Manohar,  E. Mansoor,  
 S. F. Manzer,  Shan-Ping Mao,  A. V. Marenich,  T. Markovich,  S. Mason,  
 S. A. Maurer,  P. F. McLaughlin,  M. F. S. J. Menger,  J.-M. Mewes,  
 S. A. Mewes,  P. Morgante,  J. W. Mullinax,  K. J. Oosterbaan,  G. Paran,  
 Alexander C. Paul,  Suranjan K. Paul,  F. Pavosevic,  Zheng Pei,  S. Prager,  
 E. I. Proynov,  E. Ramos,  B. Rana,  A. E. Rask,  A. Rettig,  R. M. Richard,  
 F. Rob,  E. Rossomme,  T. Scheele,  M. Scheurer,  M. Schneider,  
 N. Sergueev,  S. M. Sharada,  W. Skomorowski,  D. W. Small,  C. J. Stein,  
 Yu-Chuan Su,  E. J. Sundstrom,  Zhen Tao,  J. Thirman,  T. Tsuchimochi,  
 N. M. Tubman,  S. P. Veccham,  O. Vydrov,  J. Wenzel,  J. Witte,  A. Yamada,  
 Kun Yao,  S. Yeganeh,  S. R. Yost,  A. Zech,  Igor Ying Zhang,  Xing Zhang,  
 Yu Zhang,  D. Zuev,  A. Aspuru-Guzik,  A. T. Bell,  N. A. Besley,  
 K. B. Bravaya,  B. R. Brooks,  D. Casanova,  Jeng-Da Chai,  S. Coriani,  
 C. J. Cramer,  A. E. DePrince, III,  R. A. DiStasio Jr.,  A. Dreuw,  
 B. D. Dunietz,  T. R. Furlani,  W. A. Goddard III,  S. Grimme,  
 S. Hammes-Schiffer,  T. Head-Gordon,  W. J. Hehre,  Chao-Ping Hsu,  
 T.-C. Jagau,  Yousung Jung,  A. Klamt,  Jing Kong,  D. S. Lambrecht,  
 WanZhen Liang,  N. J. Mayhall,  C. W. McCurdy,  J. B. Neaton,  
 C. Ochsenfeld,  J. A. Parkhill,  R. Peverati,  V. A. Rassolov,  Yihan Shao,  
 L. V. Slipchenko,  T. Stauch,  R. P. Steele,  J. E. Subotnik,  
 A. J. W. Thom,  A. Tkatchenko,  D. G. Truhlar,  T. Van Voorhis,  
 T. A. Wesolowski,  K. B. Whaley,  H. L. Woodcock III,  P. M. Zimmerman,  
 S. Faraji,  P. M. W. Gill,  M. Head-Gordon,  J. M. Herbert,  A. I. Krylov

 Additional authors for Version 5.4.1: 
 S. Kotaru,  Shaozhi Li,  Xiangyuan Li,  F. Matz,  A. Molle,  Haisheng Ren,  
 Yingli Su,  Hung-Yi Tsai,  C. Utku,  Fang Wang

 Contributors to earlier versions of Q-Chem not listed above: 
 R. D. Adamson,  B. Austin,  R. Baer,  J. Baker,  G. J. O. Beran,  
 K. Brandhorst,  S. T. Brown,  E. F. C. Byrd,  A. K. Chakraborty,  
 G. K. L. Chan,  Chun-Min Chang,  Yunqing Chen,  C.-L. Cheng,  
 Siu Hung Chien,  D. M. Chipman,  D. L. Crittenden,  H. Dachsel,  
 R. J. Doerksen,  A. D. Dutoi,  R. G. Edgar,  J. Fosso-Tande,  
 L. Fusti-Molnar,  D. Ghosh,  A. Ghysels,  A. Golubeva-Zadorozhnaya,  
 J. Gonthier,  M. S. Gordon,  S. R. Gwaltney,  G. Hawkins,  J. E. Herr,  
 A. Heyden,  S. Hirata,  E. G. Hohenstein,  G. Kedziora,  F. J. Keil,  
 C. Kelley,  Jihan Kim,  R. A. King,  R. Z. Khaliullin,  P. P. Korambath,  
 W. Kurlancheek,  A. Laurent,  A. M. Lee,  M. S. Lee,  S. V. Levchenko,  
 Ching Yeh Lin,  D. Liotard,  E. Livshits,  R. C. Lochan,  I. Lotan,  
 L. A. Martinez-Martinez,  P. E. Maslen,  N. Nair,  D. P. O'Neill,  
 D. Neuhauser,  E. Neuscamman,  C. M. Oana,  R. Olivares-Amaya,  R. Olson,  
 T. M. Perrine,  B. Peters,  P. A. Pieniazek,  A. Prociuk,  Y. M. Rhee,  
 J. Ritchie,  M. A. Rohrdanz,  E. Rosta,  N. J. Russ,  H. F. Schaefer III,  
 M. W. Schmidt,  N. E. Schultz,  S. Sharma,  N. Shenvi,  C. D. Sherrill,  
 A. C. Simmonett,  A. Sodt,  T. Stein,  D. Stuck,  K. S. Thanthiriwatte,  
 V. Vanovschi,  L. Vogt,  Tao Wang,  A. Warshel,  M. A. Watson,  
 C. F. Williams,  Q. Wu,  X. Xu,  Jun Yang,  W. Zhang,  Yan Zhao

 Please cite Q-Chem as follows:
 Y. Shao et al., Mol. Phys. 113, 184-215 (2015)
 DOI: 10.1080/00268976.2014.952696

 Q-Chem 5.4.1 for Intel X86 EM64T Linux

 Parts of Q-Chem use Armadillo 9.900.5 (Nocturnal Misbehaviour).
 http://arma.sourceforge.net/

 Q-Chem begins on Sat Mar 26 22:35:27 2022  

 Host: node01
0

     Scratch files written to /src/jdavis/qchem.scratch/qchem25925//
 Processing $rem in /src/tsommerfeld/qchem/config/preferences:
 Processing $rem in /home/jdavis/.qchemrc:

 Checking the input file for inconsistencies... 	...done.

--------------------------------------------------------------
User input:
--------------------------------------------------------------
$molecule
-1 1
C        -0.6645000000    0.0000000000   -0.1764707059
C         0.6645000000    0.0000000000   -0.1764707059
H        -1.1590800000    0.0000000000    0.7858782941
H         1.1590800000    0.0000000000    0.7858782941
H        -1.1590800000    0.0000000000   -1.1388187059
H         1.1590800000    0.0000000000   -1.1388187059
H         0.0000000000    0.0000000000  -10.1764707059
$end

$rem
   METHOD adc(3)
   BASIS gen
   PURECART 11
   EE_STATES [0,10,0,0]
   scf_convergence 8
   ADC_DAVIDSON_MAXITER 120
   ADC_DAVIDSON_MAXSUBSPACE 200
   adc_nguess_singles 100
   THRESH 14
   S2THRESH 14
   adc_davidson_conv 5
   adc_davidson_thresh 14
   THREADS 10
   MEM_TOTAL 95000
   STATE_ANALYSIS TRUE
$end
$basis
C 1
S   9   1.00
      6.665000D+03           6.920000D-04
      1.000000D+03           5.329000D-03
      2.280000D+02           2.707700D-02
      6.471000D+01           1.017180D-01
      2.106000D+01           2.747400D-01
      7.495000D+00           4.485640D-01
      2.797000D+00           2.850740D-01
      5.215000D-01           1.520400D-02
      1.596000D-01          -3.191000D-03
S   9   1.00
      6.665000D+03          -1.460000D-04
      1.000000D+03          -1.154000D-03
      2.280000D+02          -5.725000D-03
      6.471000D+01          -2.331200D-02
      2.106000D+01          -6.395500D-02
      7.495000D+00          -1.499810D-01
      2.797000D+00          -1.272620D-01
      5.215000D-01           5.445290D-01
      1.596000D-01           5.804960D-01
S   1   1.00
      1.596000D-01           1.000000D+00
S   1   1.00
      0.0469000              1.0000000
P   4   1.00
      9.439000D+00           3.810900D-02
      2.002000D+00           2.094800D-01
      5.456000D-01           5.085570D-01
      1.517000D-01           4.688420D-01
P   1   1.00
      1.517000D-01           1.000000D+00
P   1   1.00
      0.0488811      1.0000000
P   1   1.00
      0.0244406      1.0000000
D   1   1.00
      5.500000D-01           1.0000000
****
C 2
S   9   1.00
      6.665000D+03           6.920000D-04
      1.000000D+03           5.329000D-03
      2.280000D+02           2.707700D-02
      6.471000D+01           1.017180D-01
      2.106000D+01           2.747400D-01
      7.495000D+00           4.485640D-01
      2.797000D+00           2.850740D-01
      5.215000D-01           1.520400D-02
      1.596000D-01          -3.191000D-03
S   9   1.00
      6.665000D+03          -1.460000D-04
      1.000000D+03          -1.154000D-03
      2.280000D+02          -5.725000D-03
      6.471000D+01          -2.331200D-02
      2.106000D+01          -6.395500D-02
      7.495000D+00          -1.499810D-01
      2.797000D+00          -1.272620D-01
      5.215000D-01           5.445290D-01
      1.596000D-01           5.804960D-01
S   1   1.00
      1.596000D-01           1.000000D+00
S   1   1.00
      0.0469000              1.0000000
P   4   1.00
      9.439000D+00           3.810900D-02
      2.002000D+00           2.094800D-01
      5.456000D-01           5.085570D-01
      1.517000D-01           4.688420D-01
P   1   1.00
      1.517000D-01           1.000000D+00
P   1   1.00
      0.0488811      1.0000000
P   1   1.00
      0.0244406      1.0000000
D   1   1.00
      5.500000D-01           1.0000000
****
H 3
cc-pVDZ
****
H 4
cc-pVDZ
****
H 5
cc-pVDZ
****
H 6
cc-pVDZ
****
H 7
aug-cc-pVDZ
****
$end
--------------------------------------------------------------
 ----------------------------------------------------------------
             Standard Nuclear Orientation (Angstroms)
    I     Atom           X                Y                Z
 ----------------------------------------------------------------
    1      C      -0.6645000000     0.0000000000    -0.5882351765
    2      C       0.6645000000    -0.0000000000    -0.5882351765
    3      H      -1.1590800000     0.0000000000    -1.5505841765
    4      H       1.1590800000    -0.0000000000    -1.5505841765
    5      H      -1.1590800000     0.0000000000     0.3741128235
    6      H       1.1590800000    -0.0000000000     0.3741128235
    7      H       0.0000000000     0.0000000000     9.4117648235
 ----------------------------------------------------------------
 Molecular Point Group                 C2v   NOp =  4
 Largest Abelian Subgroup              C2v   NOp =  4
 Nuclear Repulsion Energy =          34.43499495 hartrees
 There are        9 alpha and        9 beta electrons
 Requested basis set is non-standard
 There are 33 shells and 67 basis functions
 Total memory of 95000 MB is distributed as follows: 
   MEM_STATIC is set to 192 MB
   QALLOC/CCMAN JOB total memory use is  94808 MB
 Warning: actual memory use might exceed 95000 MB

 Total QAlloc Memory Limit  95000 MB
 Mega-Array Size       188 MB
 MEM_STATIC part       192 MB

                       Distance Matrix (Angstroms)
             C (  1)   C (  2)   H (  3)   H (  4)   H (  5)   H (  6)
   C (  2)  1.329000
   H (  3)  1.082000  2.061931
   H (  4)  2.061931  1.082000  2.318160
   H (  5)  1.082000  2.061931  1.924697  3.013026
   H (  6)  2.061931  1.082000  3.013026  1.924697  2.318160
   H (  7) 10.022054 10.022054 11.023455 11.023455  9.111675  9.111675

 
 A cutoff of  1.0D-14 yielded    505 shell pairs
 There are      2121 function pairs (      2258 Cartesian)
 Smallest overlap matrix eigenvalue = 1.71E-04

 Scale SEOQF with 1.000000e-01/1.000000e-01/1.000000e-02

 Standard Electronic Orientation quadrupole field applied
 Nucleus-field energy     =    -0.0000000007 hartrees
 ================ Generating on-the-fly SAD Guess ================
Attempting to make child job directory: /src/jdavis/qchem.scratch/qchem25925//Frg1/
Attempting to make child job directory: /src/jdavis/qchem.scratch/qchem25925//Frg2/
Creating input file /src/jdavis/qchem.scratch/qchem25925/Frg1.input
using default PutDataFrgm: nothing
calling putenv with: QCSCRATCH=/src/jdavis/qchem.scratch/qchem25925/ 
Spawning Job For Fragment 0
Done Job For Fragment 0
calling putenv with: QCSCRATCH=/src/jdavis/qchem.scratch 
calling putenv with: QCTHREADS=1 
Creating input file /src/jdavis/qchem.scratch/qchem25925/Frg2.input
using default PutDataFrgm: nothing
calling putenv with: QCSCRATCH=/src/jdavis/qchem.scratch/qchem25925/ 
Spawning Job For Fragment 1
Done Job For Fragment 1
calling putenv with: QCSCRATCH=/src/jdavis/qchem.scratch 
calling putenv with: QCTHREADS=1 
 Time for running child jobs:  CPU 1.81 s  wall 54.61 s
 ============= Method Specific SAD Guess Constructed =============
 Guess from on-the-fly superposition of atomic densities
 Warning: Energy on first SCF cycle will be non-variational
 A restricted Hartree-Fock SCF calculation will be
 performed using Pulay DIIS extrapolation
 SCF converges when DIIS error is below 1.0E-08
 using 10 threads for integral computing
 -------------------------------------------------------
 OpenMP Integral computing Module                
 Release: version 1.0, May 2013, Q-Chem Inc. Pittsburgh 
 -------------------------------------------------------
 ---------------------------------------
  Cycle       Energy         DIIS Error
 ---------------------------------------
    1     -78.7999201931      7.36E-02
    2     -78.4466841423      6.48E-03
    3     -78.4847260890      1.48E-03
    4     -78.4866613585      4.77E-04
    5     -78.4868358485      7.31E-05
    6     -78.4868444317      1.26E-05
    7     -78.4868450101      3.82E-06
    8     -78.4868451384      1.00E-06
    9     -78.4868451644      4.86E-07
   10     -78.4868451724      1.17E-07
   11     -78.4868451728      1.26E-08
   12     -78.4868451728      1.40E-09 Convergence criterion met
 ---------------------------------------
 SCF time:  CPU 10.92 s  wall 1.10 s
 SCF   energy in the final basis set = -78.48684517
 Total energy in the final basis set = -78.48684517
================================================================================
|                                                                              |
|                                 A D C  M A N                                 |
|                                                                              |
 ------------------------------------------------------------------------------ 
|                                                                              |
| Components:                                                                  |
|                                                                              |
| - libvmm - 1.3-trunk                                                         |
|   Authors:                                                                   |
|   Evgeny Epifanovsky, Ilya Kaliman                                           |
|                                                                              |
| - libtensor - 2.5-trunk                                                      |
|   Authors:                                                                   |
|   Evgeny Epifanovsky, Michael Wormit, Dmitry Zuev, Sam Manzer,               |
|   Ilya Kaliman                                                               |
|                                                                              |
| - libwfa - 1.1-trunk                                                         |
|   Authors:                                                                   |
|   Felix Plasser, Stefanie Mewes (Baeppler), Benjamin Thomitzni,              |
|   Michael Wormit, Feng Chen, Anna I. Krylov, Pavel Pokhilko                  |
|                                                                              |
| - libadc - 1.1-trunk                                                         |
|   Authors:                                                                   |
|   Michael Wormit, Adrian L. Dempwolff, Philipp H. P. Harbach,                |
|   Caroline Krauter, Dirk Rehn, Matthias Schneider, Jan Wenzel                |
|                                                                              |
| - adcman - 2.6-trunk                                                         |
|   Authors:                                                                   |
|   Michael Wormit, Adrian L. Dempwolff, Philipp H. P. Harbach,                |
|   Caroline Krauter, Daniel Lefrancois, Jan-Michael Mewes, Dirk Rehn,         |
|   Matthias Schneider, Jan Wenzel, Andreas Dreuw                              |
|                                                                              |
| Authors of earlier versions of ADCMAN:                                       |
| Andreas Dreuw, Jan Hendrik Starcke, Dirk Rehn, Michael Wormit                |
|                                                                              |
================================================================================

 
 Alpha MOs, Restricted
 -- Occupied --                  
-11.184 -11.182  -0.989  -0.729  -0.607  -0.514  -0.462  -0.324
  1 A1    1 B1    2 A1    2 B1    3 A1    4 A1    3 B1    1 B2                 
  0.021
  5 A1                                                                         
 -- Virtual --                   
  0.096   0.106   0.107   0.119   0.120   0.126   0.161   0.193
  4 B1    6 A1    2 B2    1 A2    7 A1    5 B1    8 A1    2 A2                 
  0.243   0.257   0.267   0.278   0.281   0.284   0.320   0.357
  6 B1    9 A1    7 B1    8 B1    3 B2   10 A1   11 A1    3 A2                 
  0.396   0.404   0.557   0.600   0.790   0.879   0.917   0.945
 12 A1    9 B1   10 B1   11 B1   13 A1   14 A1   15 A1   16 A1                 
  0.978   0.982   1.028   1.040   1.057   1.084   1.120   1.167
  4 B2   12 B1    4 A2   13 B1   17 A1   18 A1   14 B1    5 B2                 
  1.337   1.337   1.370   1.401   1.663   1.668   1.758   1.909
  6 B2    5 A2   15 B1   16 B1   19 A1   17 B1   20 A1    6 A2                 
  1.966   1.966   1.966   1.969   1.993   2.059   2.070   2.110
 21 A1   18 B1    7 B2   19 B1    8 B2   22 A1    9 B2   23 A1                 
  2.226   2.368   2.465   2.501   2.619   2.623   2.851   2.858
  7 A2   20 B1    8 A2   24 A1   21 B1   22 B1   25 A1   26 A1                 
  3.297   3.393
 23 B1   24 B1                                                                 
 
 Beta MOs, Restricted
 -- Occupied --                  
-11.184 -11.182  -0.989  -0.729  -0.607  -0.514  -0.462  -0.324
  1 A1    1 B1    2 A1    2 B1    3 A1    4 A1    3 B1    1 B2                 
  0.021
  5 A1                                                                         
 -- Virtual --                   
  0.096   0.106   0.107   0.119   0.120   0.126   0.161   0.193
  4 B1    6 A1    2 B2    1 A2    7 A1    5 B1    8 A1    2 A2                 
  0.243   0.257   0.267   0.278   0.281   0.284   0.320   0.357
  6 B1    9 A1    7 B1    8 B1    3 B2   10 A1   11 A1    3 A2                 
  0.396   0.404   0.557   0.600   0.790   0.879   0.917   0.945
 12 A1    9 B1   10 B1   11 B1   13 A1   14 A1   15 A1   16 A1                 
  0.978   0.982   1.028   1.040   1.057   1.084   1.120   1.167
  4 B2   12 B1    4 A2   13 B1   17 A1   18 A1   14 B1    5 B2                 
  1.337   1.337   1.370   1.401   1.663   1.668   1.758   1.909
  6 B2    5 A2   15 B1   16 B1   19 A1   17 B1   20 A1    6 A2                 
  1.966   1.966   1.966   1.969   1.993   2.059   2.070   2.110
 21 A1   18 B1    7 B2   19 B1    8 B2   22 A1    9 B2   23 A1                 
  2.226   2.368   2.465   2.501   2.619   2.623   2.851   2.858
  7 A2   20 B1    8 A2   24 A1   21 B1   22 B1   25 A1   26 A1                 
  3.297   3.393
 23 B1   24 B1                                                                 

--------------------------------------------------------------------------------
                                   HF Summary                                   
--------------------------------------------------------------------------------
  Energy:                                                  -78.4868451728 a.u.
  Dip. moment [a.u.]:                  [  -0.000000,   -0.000000,  -17.696927]
  Total dipole [Debye]:                                              44.981109
  <r^2> [a.u.]:                        [  50.698794,   14.953402,  677.156423]
  Total <r^2> [a.u.]:                                               742.808619
--------------------------------------------------------------------------------

--------------------------------------------------------------------------------
                                 MP(2) Summary                                  
--------------------------------------------------------------------------------
  MP energy contribution:                                   -0.2979581262 a.u.
  Total energy:                                            -78.7848032989 a.u.
  Dip. moment [a.u.]:                  [   0.000000,   -0.000000,  -17.693217]
  Total dipole [Debye]:                                              44.971679
  <r^2> [a.u.]:                        [  50.766189,   14.764733,  677.101024]
  Total <r^2> [a.u.]:                                               742.631947

  Density matrix analysis:
  ------------------------
  NOs
    Occupation of frontier NOs:
       0.0447   1.9372
    Number of electrons: 18.000000
    Number of unpaired electrons: n_u =  0.43179, n_u,nl =  0.04669
    NO participation ratio (PR_NO): 15.329034
  
  
  Mulliken Population Analysis
  Atom      Charge (e)              h+              e-           Del q
  --------------------------------------------------------------------
   1 C       -0.173753        0.088071       -0.102524       -0.014453
   2 C       -0.173753        0.088071       -0.102524       -0.014453
   3 H        0.075989        0.017770       -0.010554        0.007216
   4 H        0.075989        0.017770       -0.010554        0.007216
   5 H        0.096804        0.017441       -0.010288        0.007153
   6 H        0.096804        0.017441       -0.010288        0.007153
   7 H       -0.998081        0.022123       -0.021956        0.000167
  --------------------------------------------------------------------
  Sum:       -1.000000        0.268686       -0.268686       -0.000000
  
  Multipole moment analysis of the density matrix
    Molecular charge:                      -1.000000
    Number of electrons:                   18.000000
      Center of electronic charge [Ang]: [ -0.000000,   0.000000,   0.520158]
    Total nuclear charge:                  17.000000
      Center of nuclear charge [Ang]:    [ -0.000000,   0.000000,  -0.000000]
    Dipole moment [D]:                     44.971666
      Cartesian components [D]:          [  0.000000,  -0.000000, -44.971666]
    RMS size of the density [Ang]:         3.358968
      Cartesian components [Ang]:        [  0.888694,   0.479267,   3.203622]
  
  Exciton analysis of the difference density matrix
    <r_h> [Ang]:                  [ -0.000000,  -0.000000,   0.232311]
    <r_e> [Ang]:                  [ -0.000000,   0.000000,   0.225004]
    |<r_e - r_h>| [Ang]:            0.007307
    Hole size [Ang]:                3.098904
      Cartesian components [Ang]: [  0.959419,   0.756802,   2.847802]
    Electron size [Ang]:            3.069596
      Cartesian components [Ang]: [  0.995352,   0.613283,   2.838235]
--------------------------------------------------------------------------------

--------------------------------------------------------------------------------
                                 MP(3) Summary                                  
--------------------------------------------------------------------------------
  MP energy contribution:                                   -0.0281631169 a.u.
  Total energy:                                            -78.8129664159 a.u.
--------------------------------------------------------------------------------
Less singles guess vectors found than requested: 85 (found), 100 (requested).
Adjusting number of doubles guess vectors to 15.
  Starting Davidson for singlet states of irrep A2 ... 
--------------------------------------------------------------------------------
   It NVec Conv  Avg. Norm  Max. Norm  Conv. states           Remark
--------------------------------------------------------------------------------
       100    0  9.593e-02  4.255e-01  0.0664 n n n n n n n n Guess.
    1  110    0  3.316e-02  2.073e-01  0.0360 n n n n n n n n 
    2  120    0  2.564e-02  2.233e-01  0.0355 n n n n n n n n 
    3  130    0  2.319e-02  1.387e-01  0.0354 n n n n n n n n 
    4  140    0  1.564e-02  8.146e-02  0.0354 n n n n n n n n 
    5  150    0  9.079e-03  4.957e-02  0.0354 n n n n n n n n 
    6  160    0  3.472e-03  2.142e-02  0.0354 n n n n n n n n 
    7  170    1  1.498e-03  1.143e-02  0.0354 y n n n n n n n 
    8  180    2  5.930e-04  5.173e-03  0.0354 y y n n n n n n 
    9  190    2  2.021e-04  1.803e-03  0.0354 y y n n n n n n 
   10  200    2  6.920e-05  6.069e-04  0.0354 y y n n n n n n 
   11   20    4  2.715e-05  2.437e-04  0.0354 y y y y n n n n Subspace collapsed.
   12   30    5  1.259e-05  1.130e-04  0.0354 y y y y n n n y 
   13   40    7  6.204e-06  5.686e-05  0.0354 y y y y y n n y 
   14   50    9  3.059e-06  2.801e-05  0.0354 y y y y y y y y 
   15   60    9  1.485e-06  1.394e-05  0.0354 y y y y y y y y 
   16   70   10  8.315e-07  8.047e-06  0.0354 y y y y y y y y Converged.
--------------------------------------------------------------------------------
  Davidson Summary: 
 ------------------------------------------------------------
  State  0: excitation energy =   0.0354 a.u.   (converged)
  State  1: excitation energy =   0.0825 a.u.   (converged)
  State  2: excitation energy =   0.1738 a.u.   (converged)
  State  3: excitation energy =   0.2416 a.u.   (converged)
  State  4: excitation energy =   0.2752 a.u.   (converged)
  State  5: excitation energy =   0.2767 a.u.   (converged)
  State  6: excitation energy =   0.2791 a.u.   (converged)
  State  7: excitation energy =   0.2874 a.u.   (converged)
  State  8: excitation energy =   0.2880 a.u.   (converged)
  State  9: excitation energy =   0.3011 a.u.   (converged)
 ------------------------------------------------------------


--------------------------------------------------------------------------------
                   State-averaged natural transition orbitals
--------------------------------------------------------------------------------
--------------------------------------------------------------------------------

--------------------------------------------------------------------------------
                             Excited State Summary
--------------------------------------------------------------------------------
--------------------------------------------------------------------------------

  Excited state 1 (singlet, A2)                                    [converged]
  ----------------------------------------------------------------------------
  Term symbol:  1 (1) A2                                    R^2 =  9.50482e-12

  Total energy:                                            -78.7775437618 a.u.
  Excitation energy:                                               0.963899 eV

  Osc. strength:                                                      0.000000
  Trans. dip. moment [a.u.]:           [  -0.000000,   -0.000000,   -0.000000]
  <i|r^2|0> [a.u.]:                    [  -0.000000,   -0.000000,    0.000000]

  Dip. moment [a.u.]:                  [   0.000000,    0.000000,    1.115380]
  Total dipole [Debye]:                                               2.835013
  <r^2> [a.u.]:                        [  81.289978,   44.571426,  371.348282]
  Total <r^2> [a.u.]:                                               497.209685

  V1^2 = 0.9491, V2^2 = 0.0509

  Important amplitudes:
      occ i      occ j       vir a       vir b          v   
    ---------------------------------------------------------
     5 (A1) A               1 (A2) A                  0.6795
     5 (A1) A               2 (A2) A                 -0.1108
    ---------------------------------------------------------

  Density matrix analysis:
  ------------------------
  NOs
    Occupation of frontier NOs:
       0.9920   1.0024
    Number of electrons: 18.000000
    Number of unpaired electrons: n_u =  2.41756, n_u,nl =  2.04926
    NO participation ratio (PR_NO):  2.933911
  
  
  Mulliken Population Analysis
  Atom      Charge (e)              h+              e-           Del q
  --------------------------------------------------------------------
   1 C       -0.647094        0.049335       -0.522677       -0.473341
   2 C       -0.647094        0.049335       -0.522677       -0.473341
   3 H        0.073092        0.002417       -0.005314       -0.002897
   4 H        0.073092        0.002417       -0.005314       -0.002897
   5 H        0.073958        0.001511       -0.024357       -0.022846
   6 H        0.073958        0.001511       -0.024357       -0.022846
   7 H        0.000086        1.059045       -0.060878        0.998168
  --------------------------------------------------------------------
  Sum:       -1.000000        1.165573       -1.165573        0.000000
  
  Multipole moment analysis of the density matrix
    Molecular charge:                      -1.000000
    Number of electrons:                   18.000000
      Center of electronic charge [Ang]: [ -0.000000,  -0.000000,  -0.032791]
    Total nuclear charge:                  17.000000
      Center of nuclear charge [Ang]:    [ -0.000000,   0.000000,  -0.000000]
    Dipole moment [D]:                     2.835013
      Cartesian components [D]:          [  0.000000,   0.000000,   2.835013]
    RMS size of the density [Ang]:         2.781022
      Cartesian components [Ang]:        [  1.124562,   0.832709,   2.403340]
  
  Exciton analysis of the difference density matrix
    <r_h> [Ang]:                  [ -0.000000,   0.000000,   8.505761]
    <r_e> [Ang]:                  [ -0.000000,  -0.000000,  -0.033457]
    |<r_e - r_h>| [Ang]:            8.539219
    Hole size [Ang]:                3.165749
      Cartesian components [Ang]: [  0.794024,   0.791326,   2.960624]
    Electron size [Ang]:            4.837995
      Cartesian components [Ang]: [  2.822021,   2.790564,   2.766793]

  Transition density matrix analysis:
  -----------------------------------
  
  CT numbers (Mulliken)
    omega =     0.9413
    <Phe> =     0.0001
  
  Exciton analysis of the transition density matrix
    Trans. dipole moment [D]:             0.000000
      Cartesian components [D]:         [ -0.000000,  -0.000000,  -0.000000]
    <r_h> [Ang]:                        [ -0.000000,   0.000000,   9.402564]
    <r_e> [Ang]:                        [ -0.000000,  -0.000000,  -0.588208]
    |<r_e - r_h>| [Ang]:                  9.990772
    Hole size [Ang]:                      1.161712
      Cartesian components [Ang]:       [  0.646545,   0.646147,   0.716971]
    Electron size [Ang]:                  4.577133
      Cartesian components [Ang]:       [  3.018225,   2.979608,   1.721164]
    RMS electron-hole separation [Ang]:  11.050572
      Cartesian components [Ang]:       [  3.086684,   3.048858,  10.163266]
    Covariance(r_h, r_e) [Ang^2]:         0.000057
    Correlation coefficient:              0.000011
    Center-of-mass size [Ang]:            2.361135
      Cartesian components [Ang]:       [  1.543355,   1.524435,   0.932262]

  Decomposition into state-averaged NTOs
    H- 0 -> L+ 0: -0.5956 ( 70.9%)
    H- 0 -> L+ 1:  0.3141 ( 19.7%)
    H- 0 -> L+ 3: -0.1314 (  3.5%)
                   omega =  94.1%
  ----------------------------------------------------------------------------


  Excited state 2 (singlet, A2)                                    [converged]
  ----------------------------------------------------------------------------
  Term symbol:  2 (1) A2                                    R^2 =  1.11350e-10

  Total energy:                                            -78.7304402636 a.u.
  Excitation energy:                                               2.245651 eV

  Osc. strength:                                                      0.000000
  Trans. dip. moment [a.u.]:           [  -0.000000,   -0.000000,   -0.000000]
  <i|r^2|0> [a.u.]:                    [  -0.000000,   -0.000000,    0.000000]

  Dip. moment [a.u.]:                  [   0.000000,    0.000000,    1.117860]
  Total dipole [Debye]:                                               2.841318
  <r^2> [a.u.]:                        [  66.392703,   29.794820,  367.262396]
  Total <r^2> [a.u.]:                                               463.449919

  V1^2 = 0.8978, V2^2 = 0.1022

  Important amplitudes:
      occ i      occ j       vir a       vir b          v   
    ---------------------------------------------------------
     5 (A1) A               2 (A2) A                  0.6507
     5 (A1) A               1 (A2) A                  0.1262
    ---------------------------------------------------------

  Density matrix analysis:
  ------------------------
  NOs
    Occupation of frontier NOs:
       0.9811   0.9999
    Number of electrons: 18.000000
    Number of unpaired electrons: n_u =  2.45524, n_u,nl =  2.05689
    NO participation ratio (PR_NO):  3.048727
  
  
  Mulliken Population Analysis
  Atom      Charge (e)              h+              e-           Del q
  --------------------------------------------------------------------
   1 C       -0.559012        0.199263       -0.584523       -0.385260
   2 C       -0.559012        0.199263       -0.584523       -0.385260
   3 H        0.028813        0.008894       -0.056071       -0.047177
   4 H        0.028813        0.008894       -0.056071       -0.047177
   5 H        0.030127        0.008421       -0.075098       -0.066677
   6 H        0.030127        0.008421       -0.075098       -0.066677
   7 H        0.000145        1.050147       -0.051920        0.998226
  --------------------------------------------------------------------
  Sum:       -1.000000        1.483303       -1.483303       -0.000000
  
  Multipole moment analysis of the density matrix
    Molecular charge:                      -1.000000
    Number of electrons:                   18.000000
      Center of electronic charge [Ang]: [ -0.000000,  -0.000000,  -0.032864]
    Total nuclear charge:                  17.000000
      Center of nuclear charge [Ang]:    [ -0.000000,   0.000000,  -0.000000]
    Dipole moment [D]:                     2.841318
      Cartesian components [D]:          [  0.000000,   0.000000,   2.841318]
    RMS size of the density [Ang]:         2.684935
      Cartesian components [Ang]:        [  1.016307,   0.680825,   2.390078]
  
  Exciton analysis of the difference density matrix
    <r_h> [Ang]:                  [ -0.000000,   0.000000,   6.499026]
    <r_e> [Ang]:                  [ -0.000000,  -0.000000,  -0.211939]
    |<r_e - r_h>| [Ang]:            6.710965
    Hole size [Ang]:                4.766281
      Cartesian components [Ang]: [  0.885184,   0.849015,   4.605763]
    Electron size [Ang]:            3.493404
      Cartesian components [Ang]: [  1.932262,   1.886349,   2.216285]

  Transition density matrix analysis:
  -----------------------------------
  
  CT numbers (Mulliken)
    omega =     0.8812
    <Phe> =     0.0000
  
  Exciton analysis of the transition density matrix
    Trans. dipole moment [D]:             0.000000
      Cartesian components [D]:         [ -0.000000,  -0.000000,  -0.000000]
    <r_h> [Ang]:                        [ -0.000000,   0.000000,   9.402563]
    <r_e> [Ang]:                        [ -0.000000,  -0.000000,  -0.588090]
    |<r_e - r_h>| [Ang]:                  9.990653
    Hole size [Ang]:                      1.161330
      Cartesian components [Ang]:       [  0.646319,   0.645922,   0.716759]
    Electron size [Ang]:                  3.267357
      Cartesian components [Ang]:       [  2.173641,   2.109272,   1.225514]
    RMS electron-hole separation [Ang]:  10.575316
      Cartesian components [Ang]:       [  2.267669,   2.205950,  10.091024]
    Covariance(r_h, r_e) [Ang^2]:         0.000073
    Correlation coefficient:              0.000019
    Center-of-mass size [Ang]:            1.733815
      Cartesian components [Ang]:       [  1.133861,   1.102981,   0.709864]

  Decomposition into state-averaged NTOs
    H- 0 -> L+ 1: -0.4313 ( 37.2%)
    H- 0 -> L+ 3:  0.3779 ( 28.6%)
    H- 0 -> L+ 0: -0.3343 ( 22.3%)
                   omega =  88.1%
  ----------------------------------------------------------------------------


  Excited state 3 (singlet, A2)                                    [converged]
  ----------------------------------------------------------------------------
  Term symbol:  3 (1) A2                                    R^2 =  1.56839e-08

  Total energy:                                            -78.6391757219 a.u.
  Excitation energy:                                               4.729085 eV

  Osc. strength:                                                      0.000000
  Trans. dip. moment [a.u.]:           [   0.000000,    0.000000,   -0.000000]
  <i|r^2|0> [a.u.]:                    [  -0.000000,    0.000000,    0.000000]

  Dip. moment [a.u.]:                  [   0.000000,   -0.000000,    1.183316]
  Total dipole [Debye]:                                               3.007691
  <r^2> [a.u.]:                        [  67.223267,   57.828486,  375.712459]
  Total <r^2> [a.u.]:                                               500.764212

  V1^2 = 0.0396, V2^2 = 0.9604

  Important amplitudes:
      occ i      occ j       vir a       vir b          v   
    ---------------------------------------------------------
     5 (A1) A   1 (B2) B    2 (A2) A    2 (B2) B      0.2366
     5 (A1) A   1 (B2) B    2 (B2) A    2 (A2) B      0.1222
    ---------------------------------------------------------

  Density matrix analysis:
  ------------------------
  NOs
    Occupation of frontier NOs:
       0.9877   1.0017
    Number of electrons: 18.000000
    Number of unpaired electrons: n_u =  4.10716, n_u,nl =  3.96731
    NO participation ratio (PR_NO):  4.791429
  
  
  Mulliken Population Analysis
  Atom      Charge (e)              h+              e-           Del q
  --------------------------------------------------------------------
   1 C       -0.660693        0.484339       -0.971278       -0.486940
   2 C       -0.660693        0.484339       -0.971278       -0.486940
   3 H        0.070198        0.002736       -0.008528       -0.005792
   4 H        0.070198        0.002736       -0.008528       -0.005792
   5 H        0.089993        0.002630       -0.009441       -0.006811
   6 H        0.089993        0.002630       -0.009441       -0.006811
   7 H        0.001003        1.000599       -0.001515        0.999085
  --------------------------------------------------------------------
  Sum:       -1.000000        1.980009       -1.980009       -0.000000
  
  Multipole moment analysis of the density matrix
    Molecular charge:                      -1.000000
    Number of electrons:                   18.000000
      Center of electronic charge [Ang]: [ -0.000000,   0.000000,  -0.034788]
    Total nuclear charge:                  17.000000
      Center of nuclear charge [Ang]:    [ -0.000000,   0.000000,  -0.000000]
    Dipole moment [D]:                     3.007690
      Cartesian components [D]:          [  0.000000,  -0.000000,   3.007690]
    RMS size of the density [Ang]:         2.790923
      Cartesian components [Ang]:        [  1.022644,   0.948497,   2.417396]
  
  Exciton analysis of the difference density matrix
    <r_h> [Ang]:                  [ -0.000000,  -0.000000,   4.465441]
    <r_e> [Ang]:                  [ -0.000000,   0.000000,  -0.579502]
    |<r_e - r_h>| [Ang]:            5.044943
    Hole size [Ang]:                5.147846
      Cartesian components [Ang]: [  0.715283,   0.791513,   5.036089]
    Electron size [Ang]:            3.449320
      Cartesian components [Ang]: [  1.684969,   2.591700,   1.530287]

  Transition density matrix analysis:
  -----------------------------------
  
  CT numbers (Mulliken)
    omega =     0.0393
    <Phe> =     0.0000
  
  Exciton analysis of the transition density matrix
    Trans. dipole moment [D]:             0.000000
      Cartesian components [D]:         [  0.000000,   0.000000,  -0.000000]
    <r_h> [Ang]:                        [ -0.000000,   0.000000,   9.402601]
    <r_e> [Ang]:                        [ -0.000000,   0.000000,  -0.588209]
    |<r_e - r_h>| [Ang]:                  9.990810
    Hole size [Ang]:                      1.162026
      Cartesian components [Ang]:       [  0.646817,   0.646426,   0.716984]
    Electron size [Ang]:                  3.695658
      Cartesian components [Ang]:       [  2.437038,   2.404360,   1.392045]
    RMS electron-hole separation [Ang]:  10.715613
      Cartesian components [Ang]:       [  2.521395,   2.489737,  10.112771]
    Covariance(r_h, r_e) [Ang^2]:         0.000059
    Correlation coefficient:              0.000014
    Center-of-mass size [Ang]:            1.937028
      Cartesian components [Ang]:       [  1.260716,   1.244873,   0.782920]

  Decomposition into state-averaged NTOs
    H- 0 -> L+ 1: -0.1346 (  3.6%)
                   omega =   3.9%
  ----------------------------------------------------------------------------


  Excited state 4 (singlet, A2)                                    [converged]
  ----------------------------------------------------------------------------
  Term symbol:  4 (1) A2                                    R^2 =  2.30478e-08

  Total energy:                                            -78.5713999807 a.u.
  Excitation energy:                                               6.573357 eV

  Osc. strength:                                                      0.000000
  Trans. dip. moment [a.u.]:           [  -0.000000,   -0.000000,    0.000000]
  <i|r^2|0> [a.u.]:                    [   0.000000,   -0.000000,   -0.000000]

  Dip. moment [a.u.]:                  [   0.000000,    0.000000,    1.121767]
  Total dipole [Debye]:                                               2.851249
  <r^2> [a.u.]:                        [  67.552974,   32.447748,  367.859075]
  Total <r^2> [a.u.]:                                               467.859797

  V1^2 = 0.8557, V2^2 = 0.1443

  Important amplitudes:
      occ i      occ j       vir a       vir b          v   
    ---------------------------------------------------------
     5 (A1) A               3 (A2) A                 -0.6432
     5 (A1) A               2 (A2) A                 -0.1141
    ---------------------------------------------------------

  Density matrix analysis:
  ------------------------
  NOs
    Occupation of frontier NOs:
       0.9058   0.9980
    Number of electrons: 18.000000
    Number of unpaired electrons: n_u =  2.60485, n_u,nl =  2.14377
    NO participation ratio (PR_NO):  3.645172
  
  
  Mulliken Population Analysis
  Atom      Charge (e)              h+              e-           Del q
  --------------------------------------------------------------------
   1 C       -0.591228        0.137901       -0.555376       -0.417475
   2 C       -0.591228        0.137901       -0.555376       -0.417475
   3 H        0.044171        0.001700       -0.033518       -0.031819
   4 H        0.044171        0.001700       -0.033518       -0.031819
   5 H        0.046963        0.000668       -0.050509       -0.049841
   6 H        0.046963        0.000668       -0.050509       -0.049841
   7 H        0.000189        1.046914       -0.048644        0.998270
  --------------------------------------------------------------------
  Sum:       -1.000000        1.327452       -1.327452       -0.000000
  
  Multipole moment analysis of the density matrix
    Molecular charge:                      -1.000000
    Number of electrons:                   18.000000
      Center of electronic charge [Ang]: [ -0.000000,  -0.000000,  -0.032979]
    Total nuclear charge:                  17.000000
      Center of nuclear charge [Ang]:    [ -0.000000,   0.000000,  -0.000000]
    Dipole moment [D]:                     2.851248
      Cartesian components [D]:          [  0.000000,   0.000000,   2.851248]
    RMS size of the density [Ang]:         2.697679
      Cartesian components [Ang]:        [  1.025149,   0.710489,   2.392017]
  
  Exciton analysis of the difference density matrix
    <r_h> [Ang]:                  [ -0.000000,   0.000000,   7.305443]
    <r_e> [Ang]:                  [ -0.000000,  -0.000000,  -0.194988]
    |<r_e - r_h>| [Ang]:            7.500430
    Hole size [Ang]:                4.287436
      Cartesian components [Ang]: [  0.816317,   0.763264,   4.139223]
    Electron size [Ang]:            3.708082
      Cartesian components [Ang]: [  2.051238,   2.076737,   2.286801]

  Transition density matrix analysis:
  -----------------------------------
  
  CT numbers (Mulliken)
    omega =     0.8466
    <Phe> =     0.0000
  
  Exciton analysis of the transition density matrix
    Trans. dipole moment [D]:             0.000000
      Cartesian components [D]:         [ -0.000000,  -0.000000,   0.000000]
    <r_h> [Ang]:                        [ -0.000000,   0.000000,   9.402576]
    <r_e> [Ang]:                        [  0.000000,  -0.000000,  -0.588190]
    |<r_e - r_h>| [Ang]:                  9.990765
    Hole size [Ang]:                      1.161274
      Cartesian components [Ang]:       [  0.646318,   0.645922,   0.716669]
    Electron size [Ang]:                  3.438834
      Cartesian components [Ang]:       [  2.266197,   2.239924,   1.293318]
    RMS electron-hole separation [Ang]:  10.629650
      Cartesian components [Ang]:       [  2.356550,   2.331191,  10.099588]
    Covariance(r_h, r_e) [Ang^2]:         0.000037
    Correlation coefficient:              0.000009
    Center-of-mass size [Ang]:            1.814815
      Cartesian components [Ang]:       [  1.178285,   1.165601,   0.739305]

  Decomposition into state-averaged NTOs
    H- 0 -> L+ 3:  0.5034 ( 50.7%)
    H- 0 -> L+ 1:  0.4012 ( 32.2%)
    H- 0 -> L+ 0:  0.0948 (  1.8%)
                   omega =  84.7%
  ----------------------------------------------------------------------------


  Excited state 5 (singlet, A2)                                    [converged]
  ----------------------------------------------------------------------------
  Term symbol:  5 (1) A2                                    R^2 =  7.21166e-07

  Total energy:                                            -78.5377505511 a.u.
  Excitation energy:                                               7.489005 eV

  Osc. strength:                                                      0.000000
  Trans. dip. moment [a.u.]:           [  -0.000000,    0.000000,   -0.000000]
  <i|r^2|0> [a.u.]:                    [   0.000000,    0.000000,    0.000000]

  Dip. moment [a.u.]:                  [   0.000000,   -0.000000,    0.855437]
  Total dipole [Debye]:                                               2.174305
  <r^2> [a.u.]:                        [ 108.132985,   33.904629,  381.932175]
  Total <r^2> [a.u.]:                                               523.969789

  V1^2 = 0.0039, V2^2 = 0.9961

  Important amplitudes:
      occ i      occ j       vir a       vir b          v   
    ---------------------------------------------------------
     5 (A1) A   1 (B2) A    8 (A1) A    4 (B1) A      0.1917
     5 (A1) A   1 (B2) B    8 (A1) A    4 (B1) B      0.1888
    ---------------------------------------------------------

  Density matrix analysis:
  ------------------------
  NOs
    Occupation of frontier NOs:
       0.9201   0.9439
    Number of electrons: 18.000000
    Number of unpaired electrons: n_u =  4.28643, n_u,nl =  4.01512
    NO participation ratio (PR_NO):  5.263921
  
  
  Mulliken Population Analysis
  Atom      Charge (e)              h+              e-           Del q
  --------------------------------------------------------------------
   1 C       -0.724498        0.492852       -1.043598       -0.550745
   2 C       -0.724498        0.492852       -1.043598       -0.550745
   3 H        0.103429        0.002929        0.024511        0.027440
   4 H        0.103429        0.002929        0.024511        0.027440
   5 H        0.120550        0.002815        0.020930        0.023746
   6 H        0.120550        0.002815        0.020930        0.023746
   7 H        0.001038        0.999280       -0.000161        0.999120
  --------------------------------------------------------------------
  Sum:       -1.000000        1.996474       -1.996474       -0.000000
  
  Multipole moment analysis of the density matrix
    Molecular charge:                      -1.000000
    Number of electrons:                   18.000000
      Center of electronic charge [Ang]: [ -0.000000,   0.000000,  -0.025149]
    Total nuclear charge:                  17.000000
      Center of nuclear charge [Ang]:    [ -0.000000,   0.000000,  -0.000000]
    Dipole moment [D]:                     2.174304
      Cartesian components [D]:          [  0.000000,  -0.000000,   2.174304]
    RMS size of the density [Ang]:         2.854967
      Cartesian components [Ang]:        [  1.297012,   0.726264,   2.437445]
  
  Exciton analysis of the difference density matrix
    <r_h> [Ang]:                  [ -0.000000,   0.000000,   4.416839]
    <r_e> [Ang]:                  [ -0.000000,   0.000000,  -0.499592]
    |<r_e - r_h>| [Ang]:            4.916431
    Hole size [Ang]:                5.139596
      Cartesian components [Ang]: [  0.698753,   0.762809,   5.034413]
    Electron size [Ang]:            3.873555
      Cartesian components [Ang]: [  2.921406,   1.807338,   1.789789]

  Transition density matrix analysis:
  -----------------------------------
  
  CT numbers (Mulliken)
    omega =     0.0039
    <Phe> =    -0.0000
  
  Exciton analysis of the transition density matrix
    Trans. dipole moment [D]:             0.000000
      Cartesian components [D]:         [ -0.000000,   0.000000,  -0.000000]
    <r_h> [Ang]:                        [ -0.000000,   0.000000,   9.162363]
    <r_e> [Ang]:                        [  0.000000,  -0.000000,  -0.633082]
    |<r_e - r_h>| [Ang]:                  9.795444
    Hole size [Ang]:                      1.923452
      Cartesian components [Ang]:       [  0.649649,   0.652501,   1.688747]
    Electron size [Ang]:                  3.257335
      Cartesian components [Ang]:       [  2.159990,   2.089327,   1.256740]
    RMS electron-hole separation [Ang]:  10.458873
      Cartesian components [Ang]:       [  2.255343,   2.188790,   9.975503]
    Covariance(r_h, r_e) [Ang^2]:         0.436304
    Correlation coefficient:              0.069638
    Center-of-mass size [Ang]:            1.948237
      Cartesian components [Ang]:       [  1.127899,   1.094450,   1.151369]

  Decomposition into state-averaged NTOs
                   omega =   0.4%
  ----------------------------------------------------------------------------


  Excited state 6 (singlet, A2)                                    [converged]
  ----------------------------------------------------------------------------
  Term symbol:  6 (1) A2                                    R^2 =  1.43128e-06

  Total energy:                                            -78.5362927654 a.u.
  Excitation energy:                                               7.528673 eV

  Osc. strength:                                                      0.000000
  Trans. dip. moment [a.u.]:           [  -0.000000,   -0.000000,    0.000000]
  <i|r^2|0> [a.u.]:                    [  -0.000000,    0.000000,    0.000000]

  Dip. moment [a.u.]:                  [  -0.000000,   -0.000000,    1.112399]
  Total dipole [Debye]:                                               2.827436
  <r^2> [a.u.]:                        [ 100.778723,   32.947105,  405.019078]
  Total <r^2> [a.u.]:                                               538.744906

  V1^2 = 0.0008, V2^2 = 0.9992

  Important amplitudes:
      occ i      occ j       vir a       vir b          v   
    ---------------------------------------------------------
     5 (A1) A   1 (B2) B    4 (B1) A    6 (A1) B     -0.1924
     5 (A1) A   1 (B2) B    6 (A1) A    4 (B1) B     -0.1670
    ---------------------------------------------------------

  Density matrix analysis:
  ------------------------
  NOs
    Occupation of frontier NOs:
       0.7354   0.9396
    Number of electrons: 18.000000
    Number of unpaired electrons: n_u =  4.28604, n_u,nl =  4.17696
    NO participation ratio (PR_NO):  5.946525
  
  
  Mulliken Population Analysis
  Atom      Charge (e)              h+              e-           Del q
  --------------------------------------------------------------------
   1 C       -0.607826        0.494175       -0.928248       -0.434073
   2 C       -0.607826        0.494175       -0.928248       -0.434073
   3 H        0.044689        0.003113       -0.034414       -0.031301
   4 H        0.044689        0.003113       -0.034414       -0.031301
   5 H        0.062963        0.003000       -0.036841       -0.033841
   6 H        0.062963        0.003000       -0.036841       -0.033841
   7 H        0.000349        0.998725       -0.000294        0.998430
  --------------------------------------------------------------------
  Sum:       -1.000000        1.999302       -1.999302        0.000000
  
  Multipole moment analysis of the density matrix
    Molecular charge:                      -1.000000
    Number of electrons:                   18.000000
      Center of electronic charge [Ang]: [  0.000000,   0.000000,  -0.032703]
    Total nuclear charge:                  17.000000
      Center of nuclear charge [Ang]:    [ -0.000000,   0.000000,  -0.000000]
    Dipole moment [D]:                     2.827435
      Cartesian components [D]:          [ -0.000000,  -0.000000,   2.827435]
    RMS size of the density [Ang]:         2.894868
      Cartesian components [Ang]:        [  1.252130,   0.715935,   2.509954]
  
  Exciton analysis of the difference density matrix
    <r_h> [Ang]:                  [ -0.000000,  -0.000000,   4.407016]
    <r_e> [Ang]:                  [  0.000000,   0.000000,  -0.570471]
    |<r_e - r_h>| [Ang]:            4.977488
    Hole size [Ang]:                5.139127
      Cartesian components [Ang]: [  0.697966,   0.762119,   5.034148]
    Electron size [Ang]:            4.117029
      Cartesian components [Ang]: [  2.737164,   1.768476,   2.516020]

  Transition density matrix analysis:
  -----------------------------------
  
  CT numbers (Mulliken)
    omega =     0.0008
    <Phe> =    -0.0026
  
  Exciton analysis of the transition density matrix
    Trans. dipole moment [D]:             0.000000
      Cartesian components [D]:         [ -0.000000,  -0.000000,   0.000000]
    <r_h> [Ang]:                        [ -0.000000,  -0.000000,  -0.324083]
    <r_e> [Ang]:                        [ -0.000000,   0.000000,  -0.812594]
    |<r_e - r_h>| [Ang]:                  0.488512
    Hole size [Ang]:                      2.036361
      Cartesian components [Ang]:       [  0.754147,   0.858221,   1.685671]
    Electron size [Ang]:                  4.120605
      Cartesian components [Ang]:       [  3.246079,   1.784751,   1.804721]
    RMS electron-hole separation [Ang]:   4.594543
      Cartesian components [Ang]:       [  3.319638,   1.973007,   2.489392]
    Covariance(r_h, r_e) [Ang^2]:         0.127483
    Correlation coefficient:              0.015193
    Center-of-mass size [Ang]:            2.311986
      Cartesian components [Ang]:       [  1.672688,   0.993856,   1.248857]

  Decomposition into state-averaged NTOs
                   omega =   0.1%
  ----------------------------------------------------------------------------


  Excited state 7 (singlet, A2)                                    [converged]
  ----------------------------------------------------------------------------
  Term symbol:  7 (1) A2                                    R^2 =  1.02171e-06

  Total energy:                                            -78.5338643878 a.u.
  Excitation energy:                                               7.594752 eV

  Osc. strength:                                                      0.000000
  Trans. dip. moment [a.u.]:           [   0.000000,    0.000000,    0.000000]
  <i|r^2|0> [a.u.]:                    [   0.000000,   -0.000000,   -0.000000]

  Dip. moment [a.u.]:                  [  -0.000000,   -0.000000,    1.278793]
  Total dipole [Debye]:                                               3.250367
  <r^2> [a.u.]:                        [ 104.488195,   34.731317,  409.467813]
  Total <r^2> [a.u.]:                                               548.687325

  V1^2 = 0.0104, V2^2 = 0.9896

  Important amplitudes:
      occ i      occ j       vir a       vir b          v   
    ---------------------------------------------------------
     5 (A1) A   1 (B2) A    6 (A1) A    4 (B1) A      0.2405
     5 (A1) A   1 (B2) B    6 (A1) A    4 (B1) B      0.1359
    ---------------------------------------------------------

  Density matrix analysis:
  ------------------------
  NOs
    Occupation of frontier NOs:
       0.9394   0.9396
    Number of electrons: 18.000000
    Number of unpaired electrons: n_u =  4.09780, n_u,nl =  3.97066
    NO participation ratio (PR_NO):  5.093856
  
  
  Mulliken Population Analysis
  Atom      Charge (e)              h+              e-           Del q
  --------------------------------------------------------------------
   1 C       -0.577363        0.494244       -0.897854       -0.403610
   2 C       -0.577363        0.494244       -0.897854       -0.403610
   3 H        0.028858        0.004116       -0.051248       -0.047132
   4 H        0.028858        0.004116       -0.051248       -0.047132
   5 H        0.050590        0.003797       -0.050011       -0.046214
   6 H        0.050590        0.003797       -0.050011       -0.046214
   7 H       -0.004170        0.995224       -0.001313        0.993911
  --------------------------------------------------------------------
  Sum:       -1.000000        1.999538       -1.999538        0.000000
  
  Multipole moment analysis of the density matrix
    Molecular charge:                      -1.000000
    Number of electrons:                   18.000000
      Center of electronic charge [Ang]: [  0.000000,   0.000000,  -0.037595]
    Total nuclear charge:                  17.000000
      Center of nuclear charge [Ang]:    [ -0.000000,   0.000000,  -0.000000]
    Dipole moment [D]:                     3.250366
      Cartesian components [D]:          [ -0.000000,  -0.000000,   3.250366]
    RMS size of the density [Ang]:         2.921402
      Cartesian components [Ang]:        [  1.274966,   0.735065,   2.523635]
  
  Exciton analysis of the difference density matrix
    <r_h> [Ang]:                  [ -0.000000,  -0.000000,   4.387831]
    <r_e> [Ang]:                  [  0.000000,   0.000000,  -0.633106]
    |<r_e - r_h>| [Ang]:            5.020937
    Hole size [Ang]:                5.140708
      Cartesian components [Ang]: [  0.700927,   0.762868,   5.035237]
    Electron size [Ang]:            4.256504
      Cartesian components [Ang]: [  2.831057,   1.837993,   2.593208]

  Transition density matrix analysis:
  -----------------------------------
  
  CT numbers (Mulliken)
    omega =     0.0101
    <Phe> =    -0.0028
  
  Exciton analysis of the transition density matrix
    Trans. dipole moment [D]:             0.000000
      Cartesian components [D]:         [  0.000000,   0.000000,   0.000000]
    <r_h> [Ang]:                        [ -0.000000,  -0.000000,  -0.558571]
    <r_e> [Ang]:                        [ -0.000000,   0.000000,  -0.984551]
    |<r_e - r_h>| [Ang]:                  0.425981
    Hole size [Ang]:                      1.371425
      Cartesian components [Ang]:       [  0.756657,   0.862890,   0.750798]
    Electron size [Ang]:                  4.129441
      Cartesian components [Ang]:       [  3.249204,   1.787579,   1.816457]
    RMS electron-hole separation [Ang]:   4.357123
      Cartesian components [Ang]:       [  3.325165,   1.977421,   2.004396]
    Covariance(r_h, r_e) [Ang^2]:         0.065016
    Correlation coefficient:              0.011480
    Center-of-mass size [Ang]:            2.183067
      Cartesian components [Ang]:       [  1.673544,   0.996223,   0.986190]

  Decomposition into state-averaged NTOs
                   omega =   1.0%
  ----------------------------------------------------------------------------


  Excited state 8 (singlet, A2)                                    [converged]
  ----------------------------------------------------------------------------
  Term symbol:  8 (1) A2                                    R^2 =  3.17284e-07

  Total energy:                                            -78.5256082479 a.u.
  Excitation energy:                                               7.819413 eV

  Osc. strength:                                                      0.000000
  Trans. dip. moment [a.u.]:           [   0.000000,   -0.000000,   -0.000000]
  <i|r^2|0> [a.u.]:                    [  -0.000000,    0.000000,    0.000000]

  Dip. moment [a.u.]:                  [   0.000000,   -0.000000,  -16.322277]
  Total dipole [Debye]:                                              41.487097
  <r^2> [a.u.]:                        [  82.898299,   22.589623,  684.485984]
  Total <r^2> [a.u.]:                                               789.973906

  V1^2 = 0.9176, V2^2 = 0.0824

  Important amplitudes:
      occ i      occ j       vir a       vir b          v   
    ---------------------------------------------------------
     1 (B2) A               4 (B1) A                  0.6253
     1 (B2) A               6 (B1) A                  0.1912
    ---------------------------------------------------------

  Density matrix analysis:
  ------------------------
  NOs
    Occupation of frontier NOs:
       0.9770   0.9788
    Number of electrons: 18.000000
    Number of unpaired electrons: n_u =  2.35801, n_u,nl =  2.03249
    NO participation ratio (PR_NO):  2.893731
  
  
  Mulliken Population Analysis
  Atom      Charge (e)              h+              e-           Del q
  --------------------------------------------------------------------
   1 C       -0.325553        0.527517       -0.679317       -0.151800
   2 C       -0.325553        0.527517       -0.679317       -0.151800
   3 H        0.148400        0.108619       -0.036208        0.072411
   4 H        0.148400        0.108619       -0.036208        0.072411
   5 H        0.168282        0.091750       -0.020272        0.071477
   6 H        0.168282        0.091750       -0.020272        0.071477
   7 H       -0.982258        0.079803       -0.063980        0.015824
  --------------------------------------------------------------------
  Sum:       -1.000000        1.535575       -1.535575        0.000000
  
  Multipole moment analysis of the density matrix
    Molecular charge:                      -1.000000
    Number of electrons:                   18.000000
      Center of electronic charge [Ang]: [ -0.000000,   0.000000,   0.479854]
    Total nuclear charge:                  17.000000
      Center of nuclear charge [Ang]:    [ -0.000000,   0.000000,  -0.000000]
    Dipole moment [D]:                     41.487085
      Cartesian components [D]:          [  0.000000,  -0.000000, -41.487085]
    RMS size of the density [Ang]:         3.472675
      Cartesian components [Ang]:        [  1.135632,   0.592815,   3.227752]
  
  Exciton analysis of the difference density matrix
    <r_h> [Ang]:                  [ -0.000000,  -0.000000,  -0.106240]
    <r_e> [Ang]:                  [ -0.000000,   0.000000,  -0.578682]
    |<r_e - r_h>| [Ang]:            0.472442
    Hole size [Ang]:                2.841428
      Cartesian components [Ang]: [  1.120992,   0.913870,   2.445799]
    Electron size [Ang]:            4.047647
      Cartesian components [Ang]: [  2.667632,   1.504032,   2.646710]

  Transition density matrix analysis:
  -----------------------------------
  
  CT numbers (Mulliken)
    omega =     0.8881
    <Phe> =    -0.0030
  
  Exciton analysis of the transition density matrix
    Trans. dipole moment [D]:             0.000000
      Cartesian components [D]:         [  0.000000,  -0.000000,  -0.000000]
    <r_h> [Ang]:                        [ -0.000000,  -0.000000,  -0.589335]
    <r_e> [Ang]:                        [ -0.000000,   0.000000,  -1.209706]
    |<r_e - r_h>| [Ang]:                  0.620371
    Hole size [Ang]:                      1.255248
      Cartesian components [Ang]:       [  0.756713,   0.862103,   0.509717]
    Electron size [Ang]:                  4.025740
      Cartesian components [Ang]:       [  3.176775,   1.747840,   1.749212]
    RMS electron-hole separation [Ang]:   4.250656
      Cartesian components [Ang]:       [  3.255425,   1.941110,   1.924155]
    Covariance(r_h, r_e) [Ang^2]:         0.049510
    Correlation coefficient:              0.009798
    Center-of-mass size [Ang]:            2.114311
      Cartesian components [Ang]:       [  1.637928,   0.978317,   0.911263]

  Decomposition into state-averaged NTOs
    H- 1 -> L+ 2: -0.6657 ( 88.6%)
                   omega =  88.8%
  ----------------------------------------------------------------------------


  Excited state 9 (singlet, A2)                                    [converged]
  ----------------------------------------------------------------------------
  Term symbol:  9 (1) A2                                    R^2 =  8.22532e-07

  Total energy:                                            -78.5249609409 a.u.
  Excitation energy:                                               7.837028 eV

  Osc. strength:                                                      0.000000
  Trans. dip. moment [a.u.]:           [   0.000000,   -0.000000,   -0.000000]
  <i|r^2|0> [a.u.]:                    [  -0.000000,    0.000000,    0.000000]

  Dip. moment [a.u.]:                  [   0.000000,   -0.000000,    0.985589]
  Total dipole [Debye]:                                               2.505117
  <r^2> [a.u.]:                        [ 106.038013,   36.244751,  388.659561]
  Total <r^2> [a.u.]:                                               530.942326

  V1^2 = 0.0100, V2^2 = 0.9900

  Important amplitudes:
      occ i      occ j       vir a       vir b          v   
    ---------------------------------------------------------
     5 (A1) A   1 (B2) B    4 (B1) A    8 (A1) B      0.2079
     5 (A1) A   1 (B2) B    8 (A1) A    4 (B1) B      0.1433
    ---------------------------------------------------------

  Density matrix analysis:
  ------------------------
  NOs
    Occupation of frontier NOs:
       0.8679   0.9406
    Number of electrons: 18.000000
    Number of unpaired electrons: n_u =  4.27883, n_u,nl =  3.97144
    NO participation ratio (PR_NO):  5.786710
  
  
  Mulliken Population Analysis
  Atom      Charge (e)              h+              e-           Del q
  --------------------------------------------------------------------
   1 C       -0.691972        0.495289       -1.013507       -0.518219
   2 C       -0.691972        0.495289       -1.013507       -0.518219
   3 H        0.087732        0.004030        0.007713        0.011743
   4 H        0.087732        0.004030        0.007713        0.011743
   5 H        0.109306        0.003802        0.008700        0.012502
   6 H        0.109306        0.003802        0.008700        0.012502
   7 H       -0.010133        0.988610       -0.000662        0.987949
  --------------------------------------------------------------------
  Sum:       -1.000000        1.994850       -1.994850        0.000000
  
  Multipole moment analysis of the density matrix
    Molecular charge:                      -1.000000
    Number of electrons:                   18.000000
      Center of electronic charge [Ang]: [ -0.000000,   0.000000,  -0.028975]
    Total nuclear charge:                  17.000000
      Center of nuclear charge [Ang]:    [ -0.000000,   0.000000,  -0.000000]
    Dipole moment [D]:                     2.505116
      Cartesian components [D]:          [  0.000000,  -0.000000,   2.505116]
    RMS size of the density [Ang]:         2.873866
      Cartesian components [Ang]:        [  1.284386,   0.750909,   2.458778]
  
  Exciton analysis of the difference density matrix
    <r_h> [Ang]:                  [ -0.000000,  -0.000000,   4.367766]
    <r_e> [Ang]:                  [ -0.000000,   0.000000,  -0.587191]
    |<r_e - r_h>| [Ang]:            4.954958
    Hole size [Ang]:                5.142367
      Cartesian components [Ang]: [  0.714086,   0.765937,   5.034616]
    Electron size [Ang]:            3.931977
      Cartesian components [Ang]: [  2.875542,   1.897876,   1.894668]

  Transition density matrix analysis:
  -----------------------------------
  
  CT numbers (Mulliken)
    omega =     0.0097
    <Phe> =    -0.0030
  
  Exciton analysis of the transition density matrix
    Trans. dipole moment [D]:             0.000000
      Cartesian components [D]:         [  0.000000,  -0.000000,  -0.000000]
    <r_h> [Ang]:                        [ -0.000000,  -0.000000,  -0.496396]
    <r_e> [Ang]:                        [ -0.000000,   0.000000,  -1.148764]
    |<r_e - r_h>| [Ang]:                  0.652368
    Hole size [Ang]:                      1.578761
      Cartesian components [Ang]:       [  0.755836,   0.860382,   1.086711]
    Electron size [Ang]:                  4.022079
      Cartesian components [Ang]:       [  3.167346,   1.750520,   1.755198]
    RMS electron-hole separation [Ang]:   4.346771
      Cartesian components [Ang]:       [  3.246360,   1.942823,   2.140327]
    Covariance(r_h, r_e) [Ang^2]:         0.100386
    Correlation coefficient:              0.015809
    Center-of-mass size [Ang]:            2.172002
      Cartesian components [Ang]:       [  1.633086,   0.979105,   1.044977]

  Decomposition into state-averaged NTOs
                   omega =   1.0%
  ----------------------------------------------------------------------------


  Excited state 10 (singlet, A2)                                    [converged]
  ----------------------------------------------------------------------------
  Term symbol:  10 (1) A2                                   R^2 =  8.04668e-06

  Total energy:                                            -78.5119062129 a.u.
  Excitation energy:                                               8.192265 eV

  Osc. strength:                                                      0.000000
  Trans. dip. moment [a.u.]:           [  -0.000000,   -0.000000,   -0.000000]
  <i|r^2|0> [a.u.]:                    [   0.000000,    0.000000,    0.000000]

  Dip. moment [a.u.]:                  [   0.000000,   -0.000000,    1.157355]
  Total dipole [Debye]:                                               2.941703
  <r^2> [a.u.]:                        [ 115.591672,   37.569696,  402.423981]
  Total <r^2> [a.u.]:                                               555.585350

  V1^2 = 0.0024, V2^2 = 0.9976

  Important amplitudes:
      occ i      occ j       vir a       vir b          v   
    ---------------------------------------------------------
     5 (A1) A   1 (B2) A    7 (A1) A    4 (B1) A      0.1630
     5 (A1) A   1 (B2) A    6 (A1) A    5 (B1) A     -0.1614
    ---------------------------------------------------------

  Density matrix analysis:
  ------------------------
  NOs
    Occupation of frontier NOs:
       0.5283   0.9423
    Number of electrons: 18.000000
    Number of unpaired electrons: n_u =  4.28731, n_u,nl =  4.03542
    NO participation ratio (PR_NO):  6.736395
  
  
  Mulliken Population Analysis
  Atom      Charge (e)              h+              e-           Del q
  --------------------------------------------------------------------
   1 C       -0.598853        0.493647       -0.918748       -0.425101
   2 C       -0.598853        0.493647       -0.918748       -0.425101
   3 H        0.039462        0.002943       -0.039470       -0.036527
   4 H        0.039462        0.002943       -0.039470       -0.036527
   5 H        0.058924        0.002842       -0.040723       -0.037880
   6 H        0.058924        0.002842       -0.040723       -0.037880
   7 H        0.000935        0.999223       -0.000207        0.999016
  --------------------------------------------------------------------
  Sum:       -1.000000        1.998089       -1.998089        0.000000
  
  Multipole moment analysis of the density matrix
    Molecular charge:                      -1.000000
    Number of electrons:                   18.000000
      Center of electronic charge [Ang]: [ -0.000000,   0.000000,  -0.034025]
    Total nuclear charge:                  17.000000
      Center of nuclear charge [Ang]:    [ -0.000000,   0.000000,  -0.000000]
    Dipole moment [D]:                     2.941702
      Cartesian components [D]:          [  0.000000,  -0.000000,   2.941702]
    RMS size of the density [Ang]:         2.939755
      Cartesian components [Ang]:        [  1.340998,   0.764511,   2.501881]
  
  Exciton analysis of the difference density matrix
    <r_h> [Ang]:                  [ -0.000000,  -0.000000,   4.412523]
    <r_e> [Ang]:                  [ -0.000000,   0.000000,  -0.579895]
    |<r_e - r_h>| [Ang]:            4.992417
    Hole size [Ang]:                5.139637
      Cartesian components [Ang]: [  0.699035,   0.764137,   5.034214]
    Electron size [Ang]:            4.397238
      Cartesian components [Ang]: [  3.094160,   1.944217,   2.445792]

  Transition density matrix analysis:
  -----------------------------------
  
  CT numbers (Mulliken)
    omega =     0.0024
    <Phe> =    -0.0002
  
  Exciton analysis of the transition density matrix
    Trans. dipole moment [D]:             0.000000
      Cartesian components [D]:         [ -0.000000,  -0.000000,  -0.000000]
    <r_h> [Ang]:                        [ -0.000000,   0.000000,   7.105267]
    <r_e> [Ang]:                        [ -0.000000,  -0.000000,  -0.320237]
    |<r_e - r_h>| [Ang]:                  7.425504
    Hole size [Ang]:                      4.368042
      Cartesian components [Ang]:       [  0.674327,   0.703334,   4.257980]
    Electron size [Ang]:                  3.596716
      Cartesian components [Ang]:       [  2.401487,   2.018741,   1.758951]
    RMS electron-hole separation [Ang]:   9.552831
      Cartesian components [Ang]:       [  2.490505,   2.137545,   8.971336]
    Covariance(r_h, r_e) [Ang^2]:        -2.051164
    Correlation coefficient:             -0.130559
    Center-of-mass size [Ang]:            2.641677
      Cartesian components [Ang]:       [  1.249109,   1.068982,   2.067718]

  Decomposition into state-averaged NTOs
                   omega =   0.2%
  ----------------------------------------------------------------------------


--------------------------------------------------------------------------------
  Time of ADC calculation:  CPU 447.43 s  wall 107.20 s
================================================================================
 
 --------------------------------------------------------------
             Orbital Energies (a.u.) and Symmetries
 --------------------------------------------------------------
 
 Alpha MOs, Restricted
 -- Occupied --                  
-11.184 -11.182  -0.989  -0.729  -0.607  -0.514  -0.462  -0.324
  1 A1    1 B1    2 A1    2 B1    3 A1    4 A1    3 B1    1 B2                 
  0.021
  5 A1                                                                         
 -- Virtual --                   
  0.096   0.106   0.107   0.119   0.120   0.126   0.161   0.193
  4 B1    6 A1    2 B2    1 A2    7 A1    5 B1    8 A1    2 A2                 
  0.243   0.257   0.267   0.278   0.281   0.284   0.320   0.357
  6 B1    9 A1    7 B1    8 B1    3 B2   10 A1   11 A1    3 A2                 
  0.396   0.404   0.557   0.600   0.790   0.879   0.917   0.945
 12 A1    9 B1   10 B1   11 B1   13 A1   14 A1   15 A1   16 A1                 
  0.978   0.982   1.028   1.040   1.057   1.084   1.120   1.167
  4 B2   12 B1    4 A2   13 B1   17 A1   18 A1   14 B1    5 B2                 
  1.337   1.337   1.370   1.401   1.663   1.668   1.758   1.909
  6 B2    5 A2   15 B1   16 B1   19 A1   17 B1   20 A1    6 A2                 
  1.966   1.966   1.966   1.969   1.993   2.059   2.070   2.110
 21 A1   18 B1    7 B2   19 B1    8 B2   22 A1    9 B2   23 A1                 
  2.226   2.368   2.465   2.501   2.619   2.623   2.851   2.858
  7 A2   20 B1    8 A2   24 A1   21 B1   22 B1   25 A1   26 A1                 
  3.297   3.393
 23 B1   24 B1                                                                 
 
 Beta MOs, Restricted
 -- Occupied --                  
-11.184 -11.182  -0.989  -0.729  -0.607  -0.514  -0.462  -0.324
  1 A1    1 B1    2 A1    2 B1    3 A1    4 A1    3 B1    1 B2                 
  0.021
  5 A1                                                                         
 -- Virtual --                   
  0.096   0.106   0.107   0.119   0.120   0.126   0.161   0.193
  4 B1    6 A1    2 B2    1 A2    7 A1    5 B1    8 A1    2 A2                 
  0.243   0.257   0.267   0.278   0.281   0.284   0.320   0.357
  6 B1    9 A1    7 B1    8 B1    3 B2   10 A1   11 A1    3 A2                 
  0.396   0.404   0.557   0.600   0.790   0.879   0.917   0.945
 12 A1    9 B1   10 B1   11 B1   13 A1   14 A1   15 A1   16 A1                 
  0.978   0.982   1.028   1.040   1.057   1.084   1.120   1.167
  4 B2   12 B1    4 A2   13 B1   17 A1   18 A1   14 B1    5 B2                 
  1.337   1.337   1.370   1.401   1.663   1.668   1.758   1.909
  6 B2    5 A2   15 B1   16 B1   19 A1   17 B1   20 A1    6 A2                 
  1.966   1.966   1.966   1.969   1.993   2.059   2.070   2.110
 21 A1   18 B1    7 B2   19 B1    8 B2   22 A1    9 B2   23 A1                 
  2.226   2.368   2.465   2.501   2.619   2.623   2.851   2.858
  7 A2   20 B1    8 A2   24 A1   21 B1   22 B1   25 A1   26 A1                 
  3.297   3.393
 23 B1   24 B1                                                                 
 --------------------------------------------------------------
 
          Ground-State Mulliken Net Atomic Charges

     Atom                 Charge (a.u.)
  ----------------------------------------
      1 C                    -0.159300
      2 C                    -0.159300
      3 H                     0.068773
      4 H                     0.068773
      5 H                     0.089651
      6 H                     0.089651
      7 H                    -0.998248
  ----------------------------------------
  Sum of atomic charges =    -1.000000

 -----------------------------------------------------------------
                    Cartesian Multipole Moments
 -----------------------------------------------------------------
    Charge (ESU x 10^10)
                -4.8032
    Dipole Moment (Debye)
         X      -0.0000      Y      -0.0000      Z     -44.9811
       Tot      44.9811
    Quadrupole Moments (Debye-Ang)
        XX     -16.9290     XY      -0.0000     YY     -20.1128
        XZ       0.0000     YZ      -0.0000     ZZ    -440.9390
    Octopole Moments (Debye-Ang^2)
       XXX      -0.0000    XXY       0.0000    XYY      -0.0000
       YYY       0.0000    XXZ     -29.2782    XYZ       0.0000
       YYZ     -27.6249    XZZ      -0.0000    YZZ      -0.0000
       ZZZ   -4087.3511
    Hexadecapole Moments (Debye-Ang^3)
      XXXX     -74.5834   XXXY       0.0000   XXYY     -17.6494
      XYYY      -0.0000   YYYY     -27.6532   XXXZ       0.0000
      XXYZ      -0.0000   XYYZ       0.0000   YYYZ      -0.0000
      XXZZ    -370.3606   XYZZ      -0.0000   YYZZ    -366.8739
      XZZZ       0.0000   YZZZ      -0.0000   ZZZZ  -39783.0602
 -----------------------------------------------------------------
 Total job time:  190.12s(wall), 492.50s(cpu) 
 Sat Mar 26 22:38:37 2022

        *************************************************************
        *                                                           *
        *  Thank you very much for using Q-Chem.  Have a nice day.  *
        *                                                           *
        *************************************************************


