/src/tsommerfeld/qchem/exe/qcprog.exe .input1.083333.26680.qcin.1 /src/jdavis/qchem.scratch/qchem26680/

                  Welcome to Q-Chem
     A Quantum Leap Into The Future Of Chemistry


 Q-Chem 5.4 (devel), Q-Chem, Inc., Pleasanton, CA (2021)

 E. Epifanovsky,  A. T. B. Gilbert,  Xintian Feng,  Joonho Lee,  Yuezhi Mao,  
 N. Mardirossian,  P. Pokhilko,  A. White,  M. Wormit,  M. P. Coons,  
 A. L. Dempwolff,  Zhengting Gan,  D. Hait,  P. R. Horn,  L. D. Jacobson,  
 I. Kaliman,  J. Kussmann,  A. W. Lange,  Ka Un Lao,  D. S. Levine,  Jie Liu,  
 S. C. McKenzie,  A. F. Morrison,  K. Nanda,  F. Plasser,  D. R. Rehn,  
 M. L. Vidal,  Zhi-Qiang You,  Ying Zhu,  B. Alam,  B. Albrecht,  
 A. Aldossary,  E. Alguire,  J. H. Andersen,  D. Barton,  K. Begam,  A. Behn,  
 Y. A. Bernard,  E. J. Berquist,  H. Burton,  A. Carreras,  K. Carter-Fenk,  
 R. Chakraborty,  A. D. Chien,  K. D. Closser,  V. Cofer-Shabica,  
 S. Dasgupta,  Jia Deng,  M. de Wergifosse,  M. Diedenhofen,  Hainam Do,  
 S. Ehlert,  Po-Tung Fang,  S. Fatehi,  Qingguo Feng,  T. Friedhoff,  
 J. Gayvert,  Qinghui Ge,  G. Gidofalvi,  M. Goldey,  J. Gomes,  
 C. Gonzalez-Espinoza,  S. Gulania,  A. Gunina,  M. W. D. Hanson-Heine,  
 P. H. P. Harbach,  A. W. Hauser,  M. F. Herbst,  M. Hernandez Vera,  
 M. Hodecker,  Z. C. Holden,  S. Houck,  Xunkun Huang,  Kerwin Hui,  
 B. C. Huynh,  M. Ivanov,  Hyunjun Ji,  Hanjie Jiang,  B. Kaduk,  S. Kaehler,  
 K. Khistyaev,  Jaehoon Kim,  P. Klunzinger,  Z. Koczor-Benda,  
 Joong Hoon Koh,  D. Kosenkov,  L. Koulias,  T. Kowalczyk,  C. M. Krauter,  
 K. Kue,  A. Kunitsa,  T. Kus,  A. Landau,  K. V. Lawler,  D. Lefrancois,  
 S. Lehtola,  Rain Li,  Yi-Pei Li,  Jiashu Liang,  M. Liebenthal,  
 Hung-Hsuan Lin,  You-Sheng Lin,  Fenglai Liu,  Kuan-Yu Liu,  
 M. Loipersberger,  A. Luenser,  A. Manjanath,  P. Manohar,  E. Mansoor,  
 S. F. Manzer,  Shan-Ping Mao,  A. V. Marenich,  T. Markovich,  S. Mason,  
 S. A. Maurer,  P. F. McLaughlin,  M. F. S. J. Menger,  J.-M. Mewes,  
 S. A. Mewes,  P. Morgante,  J. W. Mullinax,  K. J. Oosterbaan,  G. Paran,  
 Alexander C. Paul,  Suranjan K. Paul,  F. Pavosevic,  Zheng Pei,  S. Prager,  
 E. I. Proynov,  E. Ramos,  B. Rana,  A. E. Rask,  A. Rettig,  R. M. Richard,  
 F. Rob,  E. Rossomme,  T. Scheele,  M. Scheurer,  M. Schneider,  
 N. Sergueev,  S. M. Sharada,  W. Skomorowski,  D. W. Small,  C. J. Stein,  
 Yu-Chuan Su,  E. J. Sundstrom,  Zhen Tao,  J. Thirman,  T. Tsuchimochi,  
 N. M. Tubman,  S. P. Veccham,  O. Vydrov,  J. Wenzel,  J. Witte,  A. Yamada,  
 Kun Yao,  S. Yeganeh,  S. R. Yost,  A. Zech,  Igor Ying Zhang,  Xing Zhang,  
 Yu Zhang,  D. Zuev,  A. Aspuru-Guzik,  A. T. Bell,  N. A. Besley,  
 K. B. Bravaya,  B. R. Brooks,  D. Casanova,  Jeng-Da Chai,  S. Coriani,  
 C. J. Cramer,  A. E. DePrince, III,  R. A. DiStasio Jr.,  A. Dreuw,  
 B. D. Dunietz,  T. R. Furlani,  W. A. Goddard III,  S. Grimme,  
 S. Hammes-Schiffer,  T. Head-Gordon,  W. J. Hehre,  Chao-Ping Hsu,  
 T.-C. Jagau,  Yousung Jung,  A. Klamt,  Jing Kong,  D. S. Lambrecht,  
 WanZhen Liang,  N. J. Mayhall,  C. W. McCurdy,  J. B. Neaton,  
 C. Ochsenfeld,  J. A. Parkhill,  R. Peverati,  V. A. Rassolov,  Yihan Shao,  
 L. V. Slipchenko,  T. Stauch,  R. P. Steele,  J. E. Subotnik,  
 A. J. W. Thom,  A. Tkatchenko,  D. G. Truhlar,  T. Van Voorhis,  
 T. A. Wesolowski,  K. B. Whaley,  H. L. Woodcock III,  P. M. Zimmerman,  
 S. Faraji,  P. M. W. Gill,  M. Head-Gordon,  J. M. Herbert,  A. I. Krylov

 Additional authors for Version 5.4.1: 
 S. Kotaru,  Shaozhi Li,  Xiangyuan Li,  F. Matz,  A. Molle,  Haisheng Ren,  
 Yingli Su,  Hung-Yi Tsai,  C. Utku,  Fang Wang

 Contributors to earlier versions of Q-Chem not listed above: 
 R. D. Adamson,  B. Austin,  R. Baer,  J. Baker,  G. J. O. Beran,  
 K. Brandhorst,  S. T. Brown,  E. F. C. Byrd,  A. K. Chakraborty,  
 G. K. L. Chan,  Chun-Min Chang,  Yunqing Chen,  C.-L. Cheng,  
 Siu Hung Chien,  D. M. Chipman,  D. L. Crittenden,  H. Dachsel,  
 R. J. Doerksen,  A. D. Dutoi,  R. G. Edgar,  J. Fosso-Tande,  
 L. Fusti-Molnar,  D. Ghosh,  A. Ghysels,  A. Golubeva-Zadorozhnaya,  
 J. Gonthier,  M. S. Gordon,  S. R. Gwaltney,  G. Hawkins,  J. E. Herr,  
 A. Heyden,  S. Hirata,  E. G. Hohenstein,  G. Kedziora,  F. J. Keil,  
 C. Kelley,  Jihan Kim,  R. A. King,  R. Z. Khaliullin,  P. P. Korambath,  
 W. Kurlancheek,  A. Laurent,  A. M. Lee,  M. S. Lee,  S. V. Levchenko,  
 Ching Yeh Lin,  D. Liotard,  E. Livshits,  R. C. Lochan,  I. Lotan,  
 L. A. Martinez-Martinez,  P. E. Maslen,  N. Nair,  D. P. O'Neill,  
 D. Neuhauser,  E. Neuscamman,  C. M. Oana,  R. Olivares-Amaya,  R. Olson,  
 T. M. Perrine,  B. Peters,  P. A. Pieniazek,  A. Prociuk,  Y. M. Rhee,  
 J. Ritchie,  M. A. Rohrdanz,  E. Rosta,  N. J. Russ,  H. F. Schaefer III,  
 M. W. Schmidt,  N. E. Schultz,  S. Sharma,  N. Shenvi,  C. D. Sherrill,  
 A. C. Simmonett,  A. Sodt,  T. Stein,  D. Stuck,  K. S. Thanthiriwatte,  
 V. Vanovschi,  L. Vogt,  Tao Wang,  A. Warshel,  M. A. Watson,  
 C. F. Williams,  Q. Wu,  X. Xu,  Jun Yang,  W. Zhang,  Yan Zhao

 Please cite Q-Chem as follows:
 Y. Shao et al., Mol. Phys. 113, 184-215 (2015)
 DOI: 10.1080/00268976.2014.952696

 Q-Chem 5.4.1 for Intel X86 EM64T Linux

 Parts of Q-Chem use Armadillo 9.900.5 (Nocturnal Misbehaviour).
 http://arma.sourceforge.net/

 Q-Chem begins on Sat Mar 26 23:07:51 2022  

 Host: node01
0

     Scratch files written to /src/jdavis/qchem.scratch/qchem26680//
 Processing $rem in /src/tsommerfeld/qchem/config/preferences:
 Processing $rem in /home/jdavis/.qchemrc:

 Checking the input file for inconsistencies... 	...done.

--------------------------------------------------------------
User input:
--------------------------------------------------------------
$molecule
-1 1
C        -0.6645000000    0.0000000000   -0.1764707059
C         0.6645000000    0.0000000000   -0.1764707059
H        -1.1590800000    0.0000000000    0.7858782941
H         1.1590800000    0.0000000000    0.7858782941
H        -1.1590800000    0.0000000000   -1.1388187059
H         1.1590800000    0.0000000000   -1.1388187059
H         0.0000000000    0.0000000000  -10.1764707059
$end

$rem
   METHOD adc(3)
   BASIS gen
   PURECART 11
   EE_STATES [0,10,0,0]
   scf_convergence 8
   ADC_DAVIDSON_MAXITER 120
   ADC_DAVIDSON_MAXSUBSPACE 200
   adc_nguess_singles 100
   THRESH 14
   S2THRESH 14
   adc_davidson_conv 5
   adc_davidson_thresh 14
   THREADS 10
   MEM_TOTAL 95000
   STATE_ANALYSIS TRUE
$end
$basis
C 1
S   9   1.00
      6.665000D+03           6.920000D-04
      1.000000D+03           5.329000D-03
      2.280000D+02           2.707700D-02
      6.471000D+01           1.017180D-01
      2.106000D+01           2.747400D-01
      7.495000D+00           4.485640D-01
      2.797000D+00           2.850740D-01
      5.215000D-01           1.520400D-02
      1.596000D-01          -3.191000D-03
S   9   1.00
      6.665000D+03          -1.460000D-04
      1.000000D+03          -1.154000D-03
      2.280000D+02          -5.725000D-03
      6.471000D+01          -2.331200D-02
      2.106000D+01          -6.395500D-02
      7.495000D+00          -1.499810D-01
      2.797000D+00          -1.272620D-01
      5.215000D-01           5.445290D-01
      1.596000D-01           5.804960D-01
S   1   1.00
      1.596000D-01           1.000000D+00
S   1   1.00
      0.0469000              1.0000000
P   4   1.00
      9.439000D+00           3.810900D-02
      2.002000D+00           2.094800D-01
      5.456000D-01           5.085570D-01
      1.517000D-01           4.688420D-01
P   1   1.00
      1.517000D-01           1.000000D+00
P   1   1.00
      0.0657367      1.0000000
P   1   1.00
      0.0328683      1.0000000
D   1   1.00
      5.500000D-01           1.0000000
****
C 2
S   9   1.00
      6.665000D+03           6.920000D-04
      1.000000D+03           5.329000D-03
      2.280000D+02           2.707700D-02
      6.471000D+01           1.017180D-01
      2.106000D+01           2.747400D-01
      7.495000D+00           4.485640D-01
      2.797000D+00           2.850740D-01
      5.215000D-01           1.520400D-02
      1.596000D-01          -3.191000D-03
S   9   1.00
      6.665000D+03          -1.460000D-04
      1.000000D+03          -1.154000D-03
      2.280000D+02          -5.725000D-03
      6.471000D+01          -2.331200D-02
      2.106000D+01          -6.395500D-02
      7.495000D+00          -1.499810D-01
      2.797000D+00          -1.272620D-01
      5.215000D-01           5.445290D-01
      1.596000D-01           5.804960D-01
S   1   1.00
      1.596000D-01           1.000000D+00
S   1   1.00
      0.0469000              1.0000000
P   4   1.00
      9.439000D+00           3.810900D-02
      2.002000D+00           2.094800D-01
      5.456000D-01           5.085570D-01
      1.517000D-01           4.688420D-01
P   1   1.00
      1.517000D-01           1.000000D+00
P   1   1.00
      0.0657367      1.0000000
P   1   1.00
      0.0328683      1.0000000
D   1   1.00
      5.500000D-01           1.0000000
****
H 3
cc-pVDZ
****
H 4
cc-pVDZ
****
H 5
cc-pVDZ
****
H 6
cc-pVDZ
****
H 7
aug-cc-pVDZ
****
$end
--------------------------------------------------------------
 ----------------------------------------------------------------
             Standard Nuclear Orientation (Angstroms)
    I     Atom           X                Y                Z
 ----------------------------------------------------------------
    1      C      -0.6645000000     0.0000000000    -0.5882351765
    2      C       0.6645000000    -0.0000000000    -0.5882351765
    3      H      -1.1590800000     0.0000000000    -1.5505841765
    4      H       1.1590800000    -0.0000000000    -1.5505841765
    5      H      -1.1590800000     0.0000000000     0.3741128235
    6      H       1.1590800000    -0.0000000000     0.3741128235
    7      H       0.0000000000     0.0000000000     9.4117648235
 ----------------------------------------------------------------
 Molecular Point Group                 C2v   NOp =  4
 Largest Abelian Subgroup              C2v   NOp =  4
 Nuclear Repulsion Energy =          34.43499495 hartrees
 There are        9 alpha and        9 beta electrons
 Requested basis set is non-standard
 There are 33 shells and 67 basis functions
 Total memory of 95000 MB is distributed as follows: 
   MEM_STATIC is set to 192 MB
   QALLOC/CCMAN JOB total memory use is  94808 MB
 Warning: actual memory use might exceed 95000 MB

 Total QAlloc Memory Limit  95000 MB
 Mega-Array Size       188 MB
 MEM_STATIC part       192 MB

                       Distance Matrix (Angstroms)
             C (  1)   C (  2)   H (  3)   H (  4)   H (  5)   H (  6)
   C (  2)  1.329000
   H (  3)  1.082000  2.061931
   H (  4)  2.061931  1.082000  2.318160
   H (  5)  1.082000  2.061931  1.924697  3.013026
   H (  6)  2.061931  1.082000  3.013026  1.924697  2.318160
   H (  7) 10.022054 10.022054 11.023455 11.023455  9.111675  9.111675

 
 A cutoff of  1.0D-14 yielded    505 shell pairs
 There are      2121 function pairs (      2258 Cartesian)
 Smallest overlap matrix eigenvalue = 2.50E-04

 Scale SEOQF with 1.000000e-01/1.000000e-01/1.000000e-02

 Standard Electronic Orientation quadrupole field applied
 Nucleus-field energy     =    -0.0000000007 hartrees
 ================ Generating on-the-fly SAD Guess ================
Attempting to make child job directory: /src/jdavis/qchem.scratch/qchem26680//Frg1/
Attempting to make child job directory: /src/jdavis/qchem.scratch/qchem26680//Frg2/
Creating input file /src/jdavis/qchem.scratch/qchem26680/Frg1.input
using default PutDataFrgm: nothing
calling putenv with: QCSCRATCH=/src/jdavis/qchem.scratch/qchem26680/ 
Spawning Job For Fragment 0
Done Job For Fragment 0
calling putenv with: QCSCRATCH=/src/jdavis/qchem.scratch 
calling putenv with: QCTHREADS=1 
Creating input file /src/jdavis/qchem.scratch/qchem26680/Frg2.input
using default PutDataFrgm: nothing
calling putenv with: QCSCRATCH=/src/jdavis/qchem.scratch/qchem26680/ 
Spawning Job For Fragment 1
Done Job For Fragment 1
calling putenv with: QCSCRATCH=/src/jdavis/qchem.scratch 
calling putenv with: QCTHREADS=1 
 Time for running child jobs:  CPU 1.77 s  wall 54.47 s
 ============= Method Specific SAD Guess Constructed =============
 Guess from on-the-fly superposition of atomic densities
 Warning: Energy on first SCF cycle will be non-variational
 A restricted Hartree-Fock SCF calculation will be
 performed using Pulay DIIS extrapolation
 SCF converges when DIIS error is below 1.0E-08
 using 10 threads for integral computing
 -------------------------------------------------------
 OpenMP Integral computing Module                
 Release: version 1.0, May 2013, Q-Chem Inc. Pittsburgh 
 -------------------------------------------------------
 ---------------------------------------
  Cycle       Energy         DIIS Error
 ---------------------------------------
    1     -78.8004420558      7.36E-02
    2     -78.4467394747      6.48E-03
    3     -78.4847198737      1.48E-03
    4     -78.4866518307      4.76E-04
    5     -78.4868246419      7.28E-05
    6     -78.4868324458      1.22E-05
    7     -78.4868327650      3.40E-06
    8     -78.4868327895      3.04E-07
    9     -78.4868327897      6.71E-08
   10     -78.4868327897      1.33E-08
   11     -78.4868327897      3.59E-09 Convergence criterion met
 ---------------------------------------
 SCF time:  CPU 10.17 s  wall 1.02 s
 SCF   energy in the final basis set = -78.48683279
 Total energy in the final basis set = -78.48683279
================================================================================
|                                                                              |
|                                 A D C  M A N                                 |
|                                                                              |
 ------------------------------------------------------------------------------ 
|                                                                              |
| Components:                                                                  |
|                                                                              |
| - libvmm - 1.3-trunk                                                         |
|   Authors:                                                                   |
|   Evgeny Epifanovsky, Ilya Kaliman                                           |
|                                                                              |
| - libtensor - 2.5-trunk                                                      |
|   Authors:                                                                   |
|   Evgeny Epifanovsky, Michael Wormit, Dmitry Zuev, Sam Manzer,               |
|   Ilya Kaliman                                                               |
|                                                                              |
| - libwfa - 1.1-trunk                                                         |
|   Authors:                                                                   |
|   Felix Plasser, Stefanie Mewes (Baeppler), Benjamin Thomitzni,              |
|   Michael Wormit, Feng Chen, Anna I. Krylov, Pavel Pokhilko                  |
|                                                                              |
| - libadc - 1.1-trunk                                                         |
|   Authors:                                                                   |
|   Michael Wormit, Adrian L. Dempwolff, Philipp H. P. Harbach,                |
|   Caroline Krauter, Dirk Rehn, Matthias Schneider, Jan Wenzel                |
|                                                                              |
| - adcman - 2.6-trunk                                                         |
|   Authors:                                                                   |
|   Michael Wormit, Adrian L. Dempwolff, Philipp H. P. Harbach,                |
|   Caroline Krauter, Daniel Lefrancois, Jan-Michael Mewes, Dirk Rehn,         |
|   Matthias Schneider, Jan Wenzel, Andreas Dreuw                              |
|                                                                              |
| Authors of earlier versions of ADCMAN:                                       |
| Andreas Dreuw, Jan Hendrik Starcke, Dirk Rehn, Michael Wormit                |
|                                                                              |
================================================================================

 
 Alpha MOs, Restricted
 -- Occupied --                  
-11.184 -11.182  -0.989  -0.729  -0.607  -0.514  -0.462  -0.324
  1 A1    1 B1    2 A1    2 B1    3 A1    4 A1    3 B1    1 B2                 
  0.022
  5 A1                                                                         
 -- Virtual --                   
  0.108   0.122   0.128   0.132   0.137   0.148   0.177   0.216
  4 B1    6 A1    2 B2    7 A1    1 A2    5 B1    8 A1    2 A2                 
  0.248   0.313   0.327   0.343   0.347   0.347   0.351   0.393
  6 B1    9 A1   10 A1    7 B1    8 B1   11 A1    3 B2   12 A1                 
  0.417   0.431   0.603   0.655   0.866   0.912   0.947   0.984
  9 B1    3 A2   10 B1   11 B1   13 A1   14 A1   15 A1   12 B1                 
  1.007   1.058   1.083   1.093   1.104   1.127   1.146   1.167
 16 A1   17 A1    4 B2   18 A1   13 B1    4 A2   14 B1    5 B2                 
  1.319   1.337   1.339   1.442   1.669   1.682   1.772   1.920
 15 B1    5 A2    6 B2   16 B1   19 A1   17 B1   20 A1    6 A2                 
  1.967   1.967   1.967   1.995   2.000   2.070   2.098   2.136
 21 A1   18 B1    7 B2    8 B2   19 B1    9 B2   22 A1   23 A1                 
  2.231   2.377   2.465   2.515   2.629   2.636   2.864   2.873
  7 A2   20 B1    8 A2   24 A1   21 B1   22 B1   25 A1   26 A1                 
  3.299   3.392
 23 B1   24 B1                                                                 
 
 Beta MOs, Restricted
 -- Occupied --                  
-11.184 -11.182  -0.989  -0.729  -0.607  -0.514  -0.462  -0.324
  1 A1    1 B1    2 A1    2 B1    3 A1    4 A1    3 B1    1 B2                 
  0.022
  5 A1                                                                         
 -- Virtual --                   
  0.108   0.122   0.128   0.132   0.137   0.148   0.177   0.216
  4 B1    6 A1    2 B2    7 A1    1 A2    5 B1    8 A1    2 A2                 
  0.248   0.313   0.327   0.343   0.347   0.347   0.351   0.393
  6 B1    9 A1   10 A1    7 B1    8 B1   11 A1    3 B2   12 A1                 
  0.417   0.431   0.603   0.655   0.866   0.912   0.947   0.984
  9 B1    3 A2   10 B1   11 B1   13 A1   14 A1   15 A1   12 B1                 
  1.007   1.058   1.083   1.093   1.104   1.127   1.146   1.167
 16 A1   17 A1    4 B2   18 A1   13 B1    4 A2   14 B1    5 B2                 
  1.319   1.337   1.339   1.442   1.669   1.682   1.772   1.920
 15 B1    5 A2    6 B2   16 B1   19 A1   17 B1   20 A1    6 A2                 
  1.967   1.967   1.967   1.995   2.000   2.070   2.098   2.136
 21 A1   18 B1    7 B2    8 B2   19 B1    9 B2   22 A1   23 A1                 
  2.231   2.377   2.465   2.515   2.629   2.636   2.864   2.873
  7 A2   20 B1    8 A2   24 A1   21 B1   22 B1   25 A1   26 A1                 
  3.299   3.392
 23 B1   24 B1                                                                 

--------------------------------------------------------------------------------
                                   HF Summary                                   
--------------------------------------------------------------------------------
  Energy:                                                  -78.4868327897 a.u.
  Dip. moment [a.u.]:                  [  -0.000000,   -0.000000,  -17.725880]
  Total dipole [Debye]:                                              45.054701
  <r^2> [a.u.]:                        [  50.670879,   14.935368,  677.595505]
  Total <r^2> [a.u.]:                                               743.201751
--------------------------------------------------------------------------------

--------------------------------------------------------------------------------
                                 MP(2) Summary                                  
--------------------------------------------------------------------------------
  MP energy contribution:                                   -0.2986029963 a.u.
  Total energy:                                            -78.7854357860 a.u.
  Dip. moment [a.u.]:                  [  -0.000000,   -0.000000,  -17.725142]
  Total dipole [Debye]:                                              45.052827
  <r^2> [a.u.]:                        [  50.736882,   14.743842,  677.584378]
  Total <r^2> [a.u.]:                                               743.065102

  Density matrix analysis:
  ------------------------
  NOs
    Occupation of frontier NOs:
       0.0447   1.9371
    Number of electrons: 18.000000
    Number of unpaired electrons: n_u =  0.43209, n_u,nl =  0.04676
    NO participation ratio (PR_NO): 15.326247
  
  
  Mulliken Population Analysis
  Atom      Charge (e)              h+              e-           Del q
  --------------------------------------------------------------------
   1 C       -0.188714        0.087757       -0.102560       -0.014803
   2 C       -0.188714        0.087757       -0.102560       -0.014803
   3 H        0.083571        0.017997       -0.010581        0.007416
   4 H        0.083571        0.017997       -0.010581        0.007416
   5 H        0.105116        0.017677       -0.010292        0.007385
   6 H        0.105116        0.017677       -0.010292        0.007385
   7 H       -0.999944        0.021957       -0.021953        0.000004
  --------------------------------------------------------------------
  Sum:       -1.000000        0.268820       -0.268820        0.000000
  
  Multipole moment analysis of the density matrix
    Molecular charge:                      -1.000000
    Number of electrons:                   18.000000
      Center of electronic charge [Ang]: [  0.000000,   0.000000,   0.521097]
    Total nuclear charge:                  17.000000
      Center of nuclear charge [Ang]:    [ -0.000000,   0.000000,  -0.000000]
    Dipole moment [D]:                     45.052813
      Cartesian components [D]:          [ -0.000000,  -0.000000, -45.052813]
    RMS size of the density [Ang]:         3.359825
      Cartesian components [Ang]:        [  0.888437,   0.478928,   3.204642]
  
  Exciton analysis of the difference density matrix
    <r_h> [Ang]:                  [  0.000000,  -0.000000,   0.226022]
    <r_e> [Ang]:                  [  0.000000,  -0.000000,   0.224570]
    |<r_e - r_h>| [Ang]:            0.001452
    Hole size [Ang]:                3.086621
      Cartesian components [Ang]: [  0.955457,   0.754573,   2.836362]
    Electron size [Ang]:            3.063582
      Cartesian components [Ang]: [  0.990784,   0.608168,   2.834434]
--------------------------------------------------------------------------------

--------------------------------------------------------------------------------
                                 MP(3) Summary                                  
--------------------------------------------------------------------------------
  MP energy contribution:                                   -0.0281766707 a.u.
  Total energy:                                            -78.8136124567 a.u.
--------------------------------------------------------------------------------
Less singles guess vectors found than requested: 85 (found), 100 (requested).
Adjusting number of doubles guess vectors to 15.
  Starting Davidson for singlet states of irrep A2 ... 
--------------------------------------------------------------------------------
   It NVec Conv  Avg. Norm  Max. Norm  Conv. states           Remark
--------------------------------------------------------------------------------
       100    0  9.900e-02  4.270e-01  0.0851 n n n n n n n n Guess.
    1  110    0  2.197e-02  1.109e-01  0.0482 n n n n n n n n 
    2  120    0  2.296e-02  1.801e-01  0.0469 n n n n n n n n 
    3  130    0  2.049e-02  1.275e-01  0.0468 n n n n n n n n 
    4  140    0  1.874e-02  1.190e-01  0.0468 n n n n n n n n 
    5  150    0  1.323e-02  6.932e-02  0.0468 n n n n n n n n 
    6  160    0  1.002e-02  7.968e-02  0.0468 n n n n n n n n 
    7  170    1  4.600e-03  3.294e-02  0.0468 y n n n n n n n 
    8  180    2  2.266e-03  2.039e-02  0.0468 y y n n n n n n 
    9  190    2  1.047e-03  9.971e-03  0.0468 y y n n n n n n 
   10  200    3  3.815e-04  3.648e-03  0.0468 y y y n n n n n 
   11   20    3  1.375e-04  1.309e-03  0.0468 y y y n n n n n Subspace collapsed.
   12   30    3  8.871e-05  8.629e-04  0.0468 y y y n n n n n 
   13   40    4  5.390e-05  5.319e-04  0.0468 y y y n n y n n 
   14   50    6  3.387e-05  3.364e-04  0.0468 y y y y n y n y 
   15   60    8  1.949e-05  1.944e-04  0.0468 y y y y y y n y 
   16   70    9  1.256e-05  1.255e-04  0.0468 y y y y y y y y 
   17   80    9  8.741e-06  8.738e-05  0.0468 y y y y y y y y 
   18   90    9  4.987e-06  4.986e-05  0.0468 y y y y y y y y 
   19  100    9  2.637e-06  2.637e-05  0.0468 y y y y y y y y 
   20  110    9  1.394e-06  1.394e-05  0.0468 y y y y y y y y 
   21  120   10  6.999e-07  6.999e-06  0.0468 y y y y y y y y Converged.
--------------------------------------------------------------------------------
  Davidson Summary: 
 ------------------------------------------------------------
  State  0: excitation energy =   0.0468 a.u.   (converged)
  State  1: excitation energy =   0.1027 a.u.   (converged)
  State  2: excitation energy =   0.1970 a.u.   (converged)
  State  3: excitation energy =   0.2787 a.u.   (converged)
  State  4: excitation energy =   0.2864 a.u.   (converged)
  State  5: excitation energy =   0.2896 a.u.   (converged)
  State  6: excitation energy =   0.2913 a.u.   (converged)
  State  7: excitation energy =   0.2971 a.u.   (converged)
  State  8: excitation energy =   0.3072 a.u.   (converged)
  State  9: excitation energy =   0.3198 a.u.   (converged)
 ------------------------------------------------------------


--------------------------------------------------------------------------------
                   State-averaged natural transition orbitals
--------------------------------------------------------------------------------
--------------------------------------------------------------------------------

--------------------------------------------------------------------------------
                             Excited State Summary
--------------------------------------------------------------------------------
--------------------------------------------------------------------------------

  Excited state 1 (singlet, A2)                                    [converged]
  ----------------------------------------------------------------------------
  Term symbol:  1 (1) A2                                    R^2 =  1.61632e-14

  Total energy:                                            -78.7667784133 a.u.
  Excitation energy:                                               1.274419 eV

  Osc. strength:                                                      0.000000
  Trans. dip. moment [a.u.]:           [  -0.000000,   -0.000000,    0.000000]
  <i|r^2|0> [a.u.]:                    [   0.000000,   -0.000000,   -0.000000]

  Dip. moment [a.u.]:                  [   0.000000,    0.000000,    1.114001]
  Total dipole [Debye]:                                               2.831510
  <r^2> [a.u.]:                        [  69.450972,   32.672671,  367.690027]
  Total <r^2> [a.u.]:                                               469.813670

  V1^2 = 0.9365, V2^2 = 0.0635

  Important amplitudes:
      occ i      occ j       vir a       vir b          v   
    ---------------------------------------------------------
     5 (A1) A               1 (A2) A                  0.6671
     5 (A1) A               2 (A2) A                  0.1496
    ---------------------------------------------------------

  Density matrix analysis:
  ------------------------
  NOs
    Occupation of frontier NOs:
       0.9867   1.0018
    Number of electrons: 18.000000
    Number of unpaired electrons: n_u =  2.42746, n_u,nl =  2.05079
    NO participation ratio (PR_NO):  2.970885
  
  
  Mulliken Population Analysis
  Atom      Charge (e)              h+              e-           Del q
  --------------------------------------------------------------------
   1 C       -0.636746        0.099769       -0.547801       -0.448032
   2 C       -0.636746        0.099769       -0.547801       -0.448032
   3 H        0.067907        0.004538       -0.020201       -0.015664
   4 H        0.067907        0.004538       -0.020201       -0.015664
   5 H        0.068838        0.003926       -0.040204       -0.036278
   6 H        0.068838        0.003926       -0.040204       -0.036278
   7 H        0.000003        1.058198       -0.058252        0.999947
  --------------------------------------------------------------------
  Sum:       -1.000000        1.274664       -1.274664        0.000000
  
  Multipole moment analysis of the density matrix
    Molecular charge:                      -1.000000
    Number of electrons:                   18.000000
      Center of electronic charge [Ang]: [ -0.000000,  -0.000000,  -0.032750]
    Total nuclear charge:                  17.000000
      Center of nuclear charge [Ang]:    [ -0.000000,   0.000000,  -0.000000]
    Dipole moment [D]:                     2.831509
      Cartesian components [D]:          [  0.000000,   0.000000,   2.831509]
    RMS size of the density [Ang]:         2.703310
      Cartesian components [Ang]:        [  1.039451,   0.712947,   2.391471]
  
  Exciton analysis of the difference density matrix
    <r_h> [Ang]:                  [  0.000000,   0.000000,   7.720739]
    <r_e> [Ang]:                  [ -0.000000,  -0.000000,  -0.100342]
    |<r_e - r_h>| [Ang]:            7.821080
    Hole size [Ang]:                3.990419
      Cartesian components [Ang]: [  0.831484,   0.814396,   3.816915]
    Electron size [Ang]:            3.936123
      Cartesian components [Ang]: [  2.191490,   2.145226,   2.467477]

  Transition density matrix analysis:
  -----------------------------------
  
  CT numbers (Mulliken)
    omega =     0.9256
    <Phe> =     0.0000
  
  Exciton analysis of the transition density matrix
    Trans. dipole moment [D]:             0.000000
      Cartesian components [D]:         [ -0.000000,  -0.000000,   0.000000]
    <r_h> [Ang]:                        [  0.000000,   0.000000,   9.411459]
    <r_e> [Ang]:                        [ -0.000000,  -0.000000,  -0.588170]
    |<r_e - r_h>| [Ang]:                  9.999629
    Hole size [Ang]:                      1.115420
      Cartesian components [Ang]:       [  0.643278,   0.643266,   0.645417]
    Electron size [Ang]:                  3.601750
      Cartesian components [Ang]:       [  2.388914,   2.333119,   1.349907]
    RMS electron-hole separation [Ang]:  10.686873
      Cartesian components [Ang]:       [  2.473998,   2.420167,  10.110954]
    Covariance(r_h, r_e) [Ang^2]:         0.000040
    Correlation coefficient:              0.000010
    Center-of-mass size [Ang]:            1.885261
      Cartesian components [Ang]:       [  1.237009,   1.210089,   0.748133]

  Decomposition into state-averaged NTOs
    H- 0 -> L+ 0: -0.5464 ( 59.7%)
    H- 0 -> L+ 2: -0.4044 ( 32.7%)
                   omega =  92.6%
  ----------------------------------------------------------------------------


  Excited state 2 (singlet, A2)                                    [converged]
  ----------------------------------------------------------------------------
  Term symbol:  2 (1) A2                                    R^2 =  2.31441e-13

  Total energy:                                            -78.7108836161 a.u.
  Excitation energy:                                               2.795394 eV

  Osc. strength:                                                      0.000000
  Trans. dip. moment [a.u.]:           [  -0.000000,   -0.000000,   -0.000000]
  <i|r^2|0> [a.u.]:                    [   0.000000,    0.000000,    0.000000]

  Dip. moment [a.u.]:                  [  -0.000000,   -0.000000,    1.115802]
  Total dipole [Debye]:                                               2.836087
  <r^2> [a.u.]:                        [  67.553660,   31.166290,  367.626468]
  Total <r^2> [a.u.]:                                               466.346417

  V1^2 = 0.8951, V2^2 = 0.1049

  Important amplitudes:
      occ i      occ j       vir a       vir b          v   
    ---------------------------------------------------------
     5 (A1) A               2 (A2) A                 -0.6417
     5 (A1) A               1 (A2) A                  0.1736
    ---------------------------------------------------------

  Density matrix analysis:
  ------------------------
  NOs
    Occupation of frontier NOs:
       0.9714   0.9998
    Number of electrons: 18.000000
    Number of unpaired electrons: n_u =  2.48013, n_u,nl =  2.06901
    NO participation ratio (PR_NO):  3.135297
  
  
  Mulliken Population Analysis
  Atom      Charge (e)              h+              e-           Del q
  --------------------------------------------------------------------
   1 C       -0.584061        0.176052       -0.571399       -0.395347
   2 C       -0.584061        0.176052       -0.571399       -0.395347
   3 H        0.041260        0.006925       -0.049235       -0.042310
   4 H        0.041260        0.006925       -0.049235       -0.042310
   5 H        0.042799        0.006395       -0.068711       -0.062316
   6 H        0.042799        0.006395       -0.068711       -0.062316
   7 H        0.000004        1.051849       -0.051900        0.999948
  --------------------------------------------------------------------
  Sum:       -1.000000        1.430591       -1.430591        0.000000
  
  Multipole moment analysis of the density matrix
    Molecular charge:                      -1.000000
    Number of electrons:                   18.000000
      Center of electronic charge [Ang]: [  0.000000,   0.000000,  -0.032803]
    Total nuclear charge:                  17.000000
      Center of nuclear charge [Ang]:    [ -0.000000,   0.000000,  -0.000000]
    Dipole moment [D]:                     2.836087
      Cartesian components [D]:          [ -0.000000,  -0.000000,   2.836087]
    RMS size of the density [Ang]:         2.693314
      Cartesian components [Ang]:        [  1.025154,   0.696318,   2.391263]
  
  Exciton analysis of the difference density matrix
    <r_h> [Ang]:                  [  0.000000,   0.000000,   6.771238]
    <r_e> [Ang]:                  [  0.000000,   0.000000,  -0.198046]
    |<r_e - r_h>| [Ang]:            6.969284
    Hole size [Ang]:                4.620525
      Cartesian components [Ang]: [  0.854132,   0.817541,   4.466692]
    Electron size [Ang]:            3.604705
      Cartesian components [Ang]: [  2.005320,   1.970521,   2.256021]

  Transition density matrix analysis:
  -----------------------------------
  
  CT numbers (Mulliken)
    omega =     0.8804
    <Phe> =     0.0000
  
  Exciton analysis of the transition density matrix
    Trans. dipole moment [D]:             0.000000
      Cartesian components [D]:         [ -0.000000,  -0.000000,  -0.000000]
    <r_h> [Ang]:                        [  0.000000,   0.000000,   9.411459]
    <r_e> [Ang]:                        [ -0.000000,   0.000000,  -0.588112]
    |<r_e - r_h>| [Ang]:                  9.999571
    Hole size [Ang]:                      1.115175
      Cartesian components [Ang]:       [  0.643137,   0.643125,   0.645275]
    Electron size [Ang]:                  3.412131
      Cartesian components [Ang]:       [  2.263733,   2.208400,   1.281063]
    RMS electron-hole separation [Ang]:  10.624387
      Cartesian components [Ang]:       [  2.353310,   2.300134,  10.101927]
    Covariance(r_h, r_e) [Ang^2]:         0.000031
    Correlation coefficient:              0.000008
    Center-of-mass size [Ang]:            1.794876
      Cartesian components [Ang]:       [  1.176664,   1.150072,   0.717200]

  Decomposition into state-averaged NTOs
    H- 0 -> L+ 2:  0.5037 ( 50.7%)
    H- 0 -> L+ 0: -0.4166 ( 34.7%)
    H- 0 -> L+ 3:  0.1134 (  2.6%)
                   omega =  88.0%
  ----------------------------------------------------------------------------


  Excited state 3 (singlet, A2)                                    [converged]
  ----------------------------------------------------------------------------
  Term symbol:  3 (1) A2                                    R^2 =  6.37668e-11

  Total energy:                                            -78.6166485722 a.u.
  Excitation energy:                                               5.359660 eV

  Osc. strength:                                                      0.000000
  Trans. dip. moment [a.u.]:           [  -0.000000,   -0.000000,   -0.000000]
  <i|r^2|0> [a.u.]:                    [   0.000000,    0.000000,    0.000000]

  Dip. moment [a.u.]:                  [  -0.000000,    0.000000,    1.166156]
  Total dipole [Debye]:                                               2.964074
  <r^2> [a.u.]:                        [  63.798039,   47.654187,  372.667887]
  Total <r^2> [a.u.]:                                               484.120113

  V1^2 = 0.0437, V2^2 = 0.9563

  Important amplitudes:
      occ i      occ j       vir a       vir b          v   
    ---------------------------------------------------------
     5 (A1) A   1 (B2) B    2 (A2) A    2 (B2) B     -0.2252
     5 (A1) A   1 (B2) B    1 (A2) A    2 (B2) B     -0.1391
    ---------------------------------------------------------

  Density matrix analysis:
  ------------------------
  NOs
    Occupation of frontier NOs:
       0.9876   1.0091
    Number of electrons: 18.000000
    Number of unpaired electrons: n_u =  3.97597, n_u,nl =  3.89223
    NO participation ratio (PR_NO):  4.795403
  
  
  Mulliken Population Analysis
  Atom      Charge (e)              h+              e-           Del q
  --------------------------------------------------------------------
   1 C       -0.665429        0.494556       -0.971271       -0.476715
   2 C       -0.665429        0.494556       -0.971271       -0.476715
   3 H        0.072545        0.002681       -0.013707       -0.011026
   4 H        0.072545        0.002681       -0.013707       -0.011026
   5 H        0.092870        0.002561       -0.014806       -0.012245
   6 H        0.092870        0.002561       -0.014806       -0.012245
   7 H        0.000028        1.001813       -0.001840        0.999973
  --------------------------------------------------------------------
  Sum:       -1.000000        2.001409       -2.001409        0.000000
  
  Multipole moment analysis of the density matrix
    Molecular charge:                      -1.000000
    Number of electrons:                   18.000000
      Center of electronic charge [Ang]: [  0.000000,  -0.000000,  -0.034284]
    Total nuclear charge:                  17.000000
      Center of nuclear charge [Ang]:    [ -0.000000,   0.000000,  -0.000000]
    Dipole moment [D]:                     2.964073
      Cartesian components [D]:          [ -0.000000,   0.000000,   2.964073]
    RMS size of the density [Ang]:         2.744148
      Cartesian components [Ang]:        [  0.996250,   0.861024,   2.407586]
  
  Exciton analysis of the difference density matrix
    <r_h> [Ang]:                  [  0.000000,   0.000000,   4.417138]
    <r_e> [Ang]:                  [  0.000000,  -0.000000,  -0.577765]
    |<r_e - r_h>| [Ang]:            4.994903
    Hole size [Ang]:                5.154489
      Cartesian components [Ang]: [  0.728466,   0.813262,   5.037529]
    Electron size [Ang]:            3.084736
      Cartesian components [Ang]: [  1.535618,   2.294792,   1.375282]

  Transition density matrix analysis:
  -----------------------------------
  
  CT numbers (Mulliken)
    omega =     0.0431
    <Phe> =     0.0000
  
  Exciton analysis of the transition density matrix
    Trans. dipole moment [D]:             0.000000
      Cartesian components [D]:         [ -0.000000,  -0.000000,  -0.000000]
    <r_h> [Ang]:                        [  0.000000,   0.000000,   9.411472]
    <r_e> [Ang]:                        [  0.000000,  -0.000000,  -0.588150]
    |<r_e - r_h>| [Ang]:                  9.999622
    Hole size [Ang]:                      1.116505
      Cartesian components [Ang]:       [  0.643912,   0.643901,   0.646029]
    Electron size [Ang]:                  3.087287
      Cartesian components [Ang]:       [  2.049817,   1.995101,   1.161535]
    RMS electron-hole separation [Ang]:  10.524747
      Cartesian components [Ang]:       [  2.148562,   2.096429,  10.087565]
    Covariance(r_h, r_e) [Ang^2]:         0.000036
    Correlation coefficient:              0.000010
    Center-of-mass size [Ang]:            1.641493
      Cartesian components [Ang]:       [  1.074293,   1.048220,   0.664552]

  Decomposition into state-averaged NTOs
    H- 0 -> L+ 2:  0.1355 (  3.7%)
                   omega =   4.3%
  ----------------------------------------------------------------------------


  Excited state 4 (singlet, A2)                                    [converged]
  ----------------------------------------------------------------------------
  Term symbol:  4 (1) A2                                    R^2 =  9.03720e-09

  Total energy:                                            -78.5349478104 a.u.
  Excitation energy:                                               7.582851 eV

  Osc. strength:                                                      0.000000
  Trans. dip. moment [a.u.]:           [  -0.000000,   -0.000000,   -0.000000]
  <i|r^2|0> [a.u.]:                    [   0.000000,    0.000000,    0.000000]

  Dip. moment [a.u.]:                  [  -0.000000,   -0.000000,    0.970871]
  Total dipole [Debye]:                                               2.467709
  <r^2> [a.u.]:                        [ 109.447374,   29.904215,  378.347703]
  Total <r^2> [a.u.]:                                               517.699292

  V1^2 = 0.0030, V2^2 = 0.9970

  Important amplitudes:
      occ i      occ j       vir a       vir b          v   
    ---------------------------------------------------------
     5 (A1) A   1 (B2) A    7 (A1) A    4 (B1) A      0.2076
     5 (A1) A   1 (B2) A    8 (A1) A    4 (B1) A      0.1405
    ---------------------------------------------------------

  Density matrix analysis:
  ------------------------
  NOs
    Occupation of frontier NOs:
       0.9428   0.9575
    Number of electrons: 18.000000
    Number of unpaired electrons: n_u =  4.28660, n_u,nl =  4.02354
    NO participation ratio (PR_NO):  5.018433
  
  
  Mulliken Population Analysis
  Atom      Charge (e)              h+              e-           Del q
  --------------------------------------------------------------------
   1 C       -0.717853        0.492760       -1.021899       -0.529139
   2 C       -0.717853        0.492760       -1.021899       -0.529139
   3 H        0.099571        0.002932        0.013069        0.016000
   4 H        0.099571        0.002932        0.013069        0.016000
   5 H        0.118267        0.002827        0.010324        0.013152
   6 H        0.118267        0.002827        0.010324        0.013152
   7 H        0.000030        1.000064       -0.000090        0.999974
  --------------------------------------------------------------------
  Sum:       -1.000000        1.997102       -1.997102       -0.000000
  
  Multipole moment analysis of the density matrix
    Molecular charge:                      -1.000000
    Number of electrons:                   18.000000
      Center of electronic charge [Ang]: [  0.000000,   0.000000,  -0.028542]
    Total nuclear charge:                  17.000000
      Center of nuclear charge [Ang]:    [ -0.000000,   0.000000,  -0.000000]
    Dipole moment [D]:                     2.467708
      Cartesian components [D]:          [ -0.000000,  -0.000000,   2.467708]
    RMS size of the density [Ang]:         2.837799
      Cartesian components [Ang]:        [  1.304871,   0.682073,   2.425942]
  
  Exciton analysis of the difference density matrix
    <r_h> [Ang]:                  [ -0.000000,   0.000000,   4.418933]
    <r_e> [Ang]:                  [  0.000000,   0.000000,  -0.534997]
    |<r_e - r_h>| [Ang]:            4.953931
    Hole size [Ang]:                5.138768
      Cartesian components [Ang]: [  0.697300,   0.761555,   5.033959]
    Electron size [Ang]:            3.747995
      Cartesian components [Ang]: [  2.952704,   1.644906,   1.619656]

  Transition density matrix analysis:
  -----------------------------------
  
  CT numbers (Mulliken)
    omega =     0.0030
    <Phe> =     0.0000
  
  Exciton analysis of the transition density matrix
    Trans. dipole moment [D]:             0.000000
      Cartesian components [D]:         [ -0.000000,  -0.000000,  -0.000000]
    <r_h> [Ang]:                        [  0.000000,   0.000000,   9.408902]
    <r_e> [Ang]:                        [ -0.000000,  -0.000000,  -0.588211]
    |<r_e - r_h>| [Ang]:                  9.997113
    Hole size [Ang]:                      1.126482
      Cartesian components [Ang]:       [  0.643086,   0.643110,   0.664688]
    Electron size [Ang]:                  3.648312
      Cartesian components [Ang]:       [  2.396482,   2.381924,   1.376041]
    RMS electron-hole separation [Ang]:  10.701421
      Cartesian components [Ang]:       [  2.481262,   2.467251,  10.113181]
    Covariance(r_h, r_e) [Ang^2]:         0.000499
    Correlation coefficient:              0.000122
    Center-of-mass size [Ang]:            1.909197
      Cartesian components [Ang]:       [  1.240636,   1.233590,   0.764272]

  Decomposition into state-averaged NTOs
                   omega =   0.3%
  ----------------------------------------------------------------------------


  Excited state 5 (singlet, A2)                                    [converged]
  ----------------------------------------------------------------------------
  Term symbol:  5 (1) A2                                    R^2 =  1.32859e-08

  Total energy:                                            -78.5271853565 a.u.
  Excitation energy:                                               7.794078 eV

  Osc. strength:                                                      0.000000
  Trans. dip. moment [a.u.]:           [   0.000000,   -0.000000,   -0.000000]
  <i|r^2|0> [a.u.]:                    [   0.000000,   -0.000000,   -0.000000]

  Dip. moment [a.u.]:                  [   0.000000,   -0.000000,    1.111690]
  Total dipole [Debye]:                                               2.825634
  <r^2> [a.u.]:                        [  97.114752,   29.001025,  397.425868]
  Total <r^2> [a.u.]:                                               523.541645

  V1^2 = 0.0007, V2^2 = 0.9993

  Important amplitudes:
      occ i      occ j       vir a       vir b          v   
    ---------------------------------------------------------
     5 (A1) A   1 (B2) B    6 (A1) A    4 (B1) B      0.1842
     5 (A1) A   1 (B2) B    4 (B1) A    6 (A1) B      0.1812
    ---------------------------------------------------------

  Density matrix analysis:
  ------------------------
  NOs
    Occupation of frontier NOs:
       0.7466   0.9395
    Number of electrons: 18.000000
    Number of unpaired electrons: n_u =  4.28629, n_u,nl =  4.17100
    NO participation ratio (PR_NO):  5.894740
  
  
  Mulliken Population Analysis
  Atom      Charge (e)              h+              e-           Del q
  --------------------------------------------------------------------
   1 C       -0.584669        0.493945       -0.889900       -0.395955
   2 C       -0.584669        0.493945       -0.889900       -0.395955
   3 H        0.032182        0.003095       -0.054483       -0.051388
   4 H        0.032182        0.003095       -0.054483       -0.051388
   5 H        0.052799        0.002993       -0.055310       -0.052317
   6 H        0.052799        0.002993       -0.055310       -0.052317
   7 H       -0.000624        0.999341       -0.000020        0.999321
  --------------------------------------------------------------------
  Sum:       -1.000000        1.999407       -1.999407        0.000000
  
  Multipole moment analysis of the density matrix
    Molecular charge:                      -1.000000
    Number of electrons:                   18.000000
      Center of electronic charge [Ang]: [ -0.000000,   0.000000,  -0.032682]
    Total nuclear charge:                  17.000000
      Center of nuclear charge [Ang]:    [ -0.000000,   0.000000,  -0.000000]
    Dipole moment [D]:                     2.825633
      Cartesian components [D]:          [  0.000000,  -0.000000,   2.825633]
    RMS size of the density [Ang]:         2.853724
      Cartesian components [Ang]:        [  1.229157,   0.671694,   2.486311]
  
  Exciton analysis of the difference density matrix
    <r_h> [Ang]:                  [  0.000000,   0.000000,   4.409529]
    <r_e> [Ang]:                  [ -0.000000,   0.000000,  -0.575961]
    |<r_e - r_h>| [Ang]:            4.985490
    Hole size [Ang]:                5.138694
      Cartesian components [Ang]: [  0.697150,   0.761398,   5.033928]
    Electron size [Ang]:            3.843548
      Cartesian components [Ang]: [  2.642254,   1.605157,   2.283600]

  Transition density matrix analysis:
  -----------------------------------
  
  CT numbers (Mulliken)
    omega =     0.0007
    <Phe> =    -0.0032
  
  Exciton analysis of the transition density matrix
    Trans. dipole moment [D]:             0.000000
      Cartesian components [D]:         [  0.000000,  -0.000000,  -0.000000]
    <r_h> [Ang]:                        [ -0.000000,   0.000000,  -0.544593]
    <r_e> [Ang]:                        [ -0.000000,   0.000000,  -0.995768]
    |<r_e - r_h>| [Ang]:                  0.451174
    Hole size [Ang]:                      1.421136
      Cartesian components [Ang]:       [  0.756577,   0.861488,   0.839678]
    Electron size [Ang]:                  3.869084
      Cartesian components [Ang]:       [  3.112400,   1.603235,   1.646942]
    RMS electron-hole separation [Ang]:   4.129764
      Cartesian components [Ang]:       [  3.190877,   1.812225,   1.894492]
    Covariance(r_h, r_e) [Ang^2]:         0.069023
    Correlation coefficient:              0.012553
    Center-of-mass size [Ang]:            2.069268
      Cartesian components [Ang]:       [  1.607575,   0.913905,   0.928630]

  Decomposition into state-averaged NTOs
                   omega =   0.1%
  ----------------------------------------------------------------------------


  Excited state 6 (singlet, A2)                                    [converged]
  ----------------------------------------------------------------------------
  Term symbol:  6 (1) A2                                    R^2 =  3.61289e-09

  Total energy:                                            -78.5240328273 a.u.
  Excitation energy:                                               7.879862 eV

  Osc. strength:                                                      0.000000
  Trans. dip. moment [a.u.]:           [   0.000000,   -0.000000,   -0.000000]
  <i|r^2|0> [a.u.]:                    [   0.000000,   -0.000000,   -0.000000]

  Dip. moment [a.u.]:                  [   0.000000,   -0.000000,  -16.677018]
  Total dipole [Debye]:                                              42.388759
  <r^2> [a.u.]:                        [  80.550901,   20.602916,  684.205603]
  Total <r^2> [a.u.]:                                               785.359420

  V1^2 = 0.9276, V2^2 = 0.0724

  Important amplitudes:
      occ i      occ j       vir a       vir b          v   
    ---------------------------------------------------------
     1 (B2) A               4 (B1) A                 -0.6433
     1 (B2) A               6 (B1) A                 -0.1843
    ---------------------------------------------------------

  Density matrix analysis:
  ------------------------
  NOs
    Occupation of frontier NOs:
       0.9769   0.9797
    Number of electrons: 18.000000
    Number of unpaired electrons: n_u =  2.34781, n_u,nl =  2.03160
    NO participation ratio (PR_NO):  2.866962
  
  
  Mulliken Population Analysis
  Atom      Charge (e)              h+              e-           Del q
  --------------------------------------------------------------------
   1 C       -0.322794        0.513052       -0.647131       -0.134080
   2 C       -0.322794        0.513052       -0.647131       -0.134080
   3 H        0.140942        0.107820       -0.050449        0.057372
   4 H        0.140942        0.107820       -0.050449        0.057372
   5 H        0.176403        0.093074       -0.021786        0.071288
   6 H        0.176403        0.093074       -0.021786        0.071288
   7 H       -0.989104        0.048331       -0.037491        0.010840
  --------------------------------------------------------------------
  Sum:       -1.000000        1.476223       -1.476223       -0.000000
  
  Multipole moment analysis of the density matrix
    Molecular charge:                      -1.000000
    Number of electrons:                   18.000000
      Center of electronic charge [Ang]: [ -0.000000,   0.000000,   0.490283]
    Total nuclear charge:                  17.000000
      Center of nuclear charge [Ang]:    [ -0.000000,   0.000000,  -0.000000]
    Dipole moment [D]:                     42.388746
      Cartesian components [D]:          [  0.000000,  -0.000000, -42.388746]
    RMS size of the density [Ang]:         3.460862
      Cartesian components [Ang]:        [  1.119438,   0.566147,   3.225508]
  
  Exciton analysis of the difference density matrix
    <r_h> [Ang]:                  [  0.000000,   0.000000,  -0.284737]
    <r_e> [Ang]:                  [ -0.000000,   0.000000,  -0.660455]
    |<r_e - r_h>| [Ang]:            0.375718
    Hole size [Ang]:                2.434436
      Cartesian components [Ang]: [  1.068979,   0.878968,   2.002792]
    Electron size [Ang]:            3.687041
      Cartesian components [Ang]: [  2.607338,   1.372592,   2.216314]

  Transition density matrix analysis:
  -----------------------------------
  
  CT numbers (Mulliken)
    omega =     0.8978
    <Phe> =    -0.0033
  
  Exciton analysis of the transition density matrix
    Trans. dipole moment [D]:             0.000000
      Cartesian components [D]:         [  0.000000,  -0.000000,  -0.000000]
    <r_h> [Ang]:                        [ -0.000000,   0.000000,  -0.589328]
    <r_e> [Ang]:                        [ -0.000000,   0.000000,  -1.070454]
    |<r_e - r_h>| [Ang]:                  0.481127
    Hole size [Ang]:                      1.255315
      Cartesian components [Ang]:       [  0.757038,   0.861929,   0.509695]
    Electron size [Ang]:                  3.834869
      Cartesian components [Ang]:       [  3.083404,   1.591229,   1.633043]
    RMS electron-hole separation [Ang]:   4.050871
      Cartesian components [Ang]:       [  3.163461,   1.801712,   1.776487]
    Covariance(r_h, r_e) [Ang^2]:         0.051983
    Correlation coefficient:              0.010798
    Center-of-mass size [Ang]:            2.023981
      Cartesian components [Ang]:       [  1.593227,   0.908804,   0.855689]

  Decomposition into state-averaged NTOs
    H- 1 -> L+ 1:  0.6692 ( 89.6%)
                   omega =  89.8%
  ----------------------------------------------------------------------------


  Excited state 7 (singlet, A2)                                    [converged]
  ----------------------------------------------------------------------------
  Term symbol:  7 (1) A2                                    R^2 =  3.91451e-08

  Total energy:                                            -78.5222666844 a.u.
  Excitation energy:                                               7.927922 eV

  Osc. strength:                                                      0.000000
  Trans. dip. moment [a.u.]:           [  -0.000000,    0.000000,    0.000000]
  <i|r^2|0> [a.u.]:                    [  -0.000000,    0.000000,    0.000000]

  Dip. moment [a.u.]:                  [   0.000000,   -0.000000,    1.031100]
  Total dipole [Debye]:                                               2.620795
  <r^2> [a.u.]:                        [  99.674240,   29.642031,  401.845802]
  Total <r^2> [a.u.]:                                               531.162073

  V1^2 = 0.0086, V2^2 = 0.9914

  Important amplitudes:
      occ i      occ j       vir a       vir b          v   
    ---------------------------------------------------------
     5 (A1) A   1 (B2) A    6 (A1) A    4 (B1) A      0.2536
     5 (A1) A   1 (B2) B    4 (B1) A    6 (A1) B     -0.1272
    ---------------------------------------------------------

  Density matrix analysis:
  ------------------------
  NOs
    Occupation of frontier NOs:
       0.9394   0.9424
    Number of electrons: 18.000000
    Number of unpaired electrons: n_u =  4.13250, n_u,nl =  3.99013
    NO participation ratio (PR_NO):  5.066297
  
  
  Mulliken Population Analysis
  Atom      Charge (e)              h+              e-           Del q
  --------------------------------------------------------------------
   1 C       -0.561540        0.495053       -0.867879       -0.372826
   2 C       -0.561540        0.495053       -0.867879       -0.372826
   3 H        0.023863        0.004000       -0.063707       -0.059707
   4 H        0.023863        0.004000       -0.063707       -0.059707
   5 H        0.042773        0.003814       -0.066157       -0.062343
   6 H        0.042773        0.003814       -0.066157       -0.062343
   7 H       -0.010193        0.993077       -0.003325        0.989752
  --------------------------------------------------------------------
  Sum:       -1.000000        1.998810       -1.998810       -0.000000
  
  Multipole moment analysis of the density matrix
    Molecular charge:                      -1.000000
    Number of electrons:                   18.000000
      Center of electronic charge [Ang]: [ -0.000000,   0.000000,  -0.030313]
    Total nuclear charge:                  17.000000
      Center of nuclear charge [Ang]:    [ -0.000000,   0.000000,  -0.000000]
    Dipole moment [D]:                     2.620794
      Cartesian components [D]:          [  0.000000,  -0.000000,   2.620794]
    RMS size of the density [Ang]:         2.874447
      Cartesian components [Ang]:        [  1.245249,   0.679077,   2.500130]
  
  Exciton analysis of the difference density matrix
    <r_h> [Ang]:                  [ -0.000000,   0.000000,   4.379373]
    <r_e> [Ang]:                  [ -0.000000,   0.000000,  -0.586269]
    |<r_e - r_h>| [Ang]:            4.965643
    Hole size [Ang]:                5.141560
      Cartesian components [Ang]: [  0.702672,   0.764283,   5.035649]
    Electron size [Ang]:            3.947623
      Cartesian components [Ang]: [  2.711043,   1.634420,   2.358526]

  Transition density matrix analysis:
  -----------------------------------
  
  CT numbers (Mulliken)
    omega =     0.0084
    <Phe> =    -0.0034
  
  Exciton analysis of the transition density matrix
    Trans. dipole moment [D]:             0.000000
      Cartesian components [D]:         [ -0.000000,   0.000000,   0.000000]
    <r_h> [Ang]:                        [ -0.000000,   0.000000,  -0.579110]
    <r_e> [Ang]:                        [ -0.000000,   0.000000,  -1.105239]
    |<r_e - r_h>| [Ang]:                  0.526129
    Hole size [Ang]:                      1.295157
      Cartesian components [Ang]:       [  0.756886,   0.861367,   0.602165]
    Electron size [Ang]:                  3.814176
      Cartesian components [Ang]:       [  3.065186,   1.586738,   1.623218]
    RMS electron-hole separation [Ang]:   4.048360
      Cartesian components [Ang]:       [  3.145905,   1.797433,   1.806029]
    Covariance(r_h, r_e) [Ang^2]:         0.056482
    Correlation coefficient:              0.011434
    Center-of-mass size [Ang]:            2.021036
      Cartesian components [Ang]:       [  1.584280,   0.906727,   0.867461]

  Decomposition into state-averaged NTOs
                   omega =   0.8%
  ----------------------------------------------------------------------------


  Excited state 8 (singlet, A2)                                    [converged]
  ----------------------------------------------------------------------------
  Term symbol:  8 (1) A2                                    R^2 =  3.48263e-08

  Total energy:                                            -78.5164709708 a.u.
  Excitation energy:                                               8.085631 eV

  Osc. strength:                                                      0.000000
  Trans. dip. moment [a.u.]:           [   0.000000,    0.000000,   -0.000000]
  <i|r^2|0> [a.u.]:                    [   0.000000,   -0.000000,    0.000000]

  Dip. moment [a.u.]:                  [   0.000000,   -0.000000,    1.169459]
  Total dipole [Debye]:                                               2.972469
  <r^2> [a.u.]:                        [  98.702379,   32.922036,  381.920545]
  Total <r^2> [a.u.]:                                               513.544961

  V1^2 = 0.0002, V2^2 = 0.9998

  Important amplitudes:
      occ i      occ j       vir a       vir b          v   
    ---------------------------------------------------------
     5 (A1) A   1 (B2) B    8 (A1) A    4 (B1) B     -0.1996
     5 (A1) A   1 (B2) B    4 (B1) A    8 (A1) B     -0.1974
    ---------------------------------------------------------

  Density matrix analysis:
  ------------------------
  NOs
    Occupation of frontier NOs:
       0.8943   0.9402
    Number of electrons: 18.000000
    Number of unpaired electrons: n_u =  4.28741, n_u,nl =  4.00410
    NO participation ratio (PR_NO):  5.532590
  
  
  Mulliken Population Analysis
  Atom      Charge (e)              h+              e-           Del q
  --------------------------------------------------------------------
   1 C       -0.706864        0.493969       -1.012118       -0.518150
   2 C       -0.706864        0.493969       -1.012118       -0.518150
   3 H        0.093007        0.003018        0.006418        0.009436
   4 H        0.093007        0.003018        0.006418        0.009436
   5 H        0.113845        0.002930        0.005799        0.008729
   6 H        0.113845        0.002930        0.005799        0.008729
   7 H        0.000024        0.999977       -0.000009        0.999969
  --------------------------------------------------------------------
  Sum:       -1.000000        1.999812       -1.999812       -0.000000
  
  Multipole moment analysis of the density matrix
    Molecular charge:                      -1.000000
    Number of electrons:                   18.000000
      Center of electronic charge [Ang]: [ -0.000000,   0.000000,  -0.034381]
    Total nuclear charge:                  17.000000
      Center of nuclear charge [Ang]:    [ -0.000000,   0.000000,  -0.000000]
    Dipole moment [D]:                     2.972468
      Cartesian components [D]:          [  0.000000,  -0.000000,   2.972468]
    RMS size of the density [Ang]:         2.826324
      Cartesian components [Ang]:        [  1.239164,   0.715662,   2.437295]
  
  Exciton analysis of the difference density matrix
    <r_h> [Ang]:                  [ -0.000000,   0.000000,   4.411711]
    <r_e> [Ang]:                  [ -0.000000,   0.000000,  -0.588056]
    |<r_e - r_h>| [Ang]:            4.999767
    Hole size [Ang]:                5.138655
      Cartesian components [Ang]: [  0.697032,   0.761279,   5.033922]
    Electron size [Ang]:            3.658420
      Cartesian components [Ang]: [  2.683717,   1.767765,   1.748344]

  Transition density matrix analysis:
  -----------------------------------
  
  CT numbers (Mulliken)
    omega =     0.0002
    <Phe> =    -0.0001
  
  Exciton analysis of the transition density matrix
    Trans. dipole moment [D]:             0.000000
      Cartesian components [D]:         [  0.000000,   0.000000,  -0.000000]
    <r_h> [Ang]:                        [  0.000000,   0.000000,   9.223993]
    <r_e> [Ang]:                        [ -0.000000,  -0.000000,  -0.574855]
    |<r_e - r_h>| [Ang]:                  9.798848
    Hole size [Ang]:                      1.758225
      Cartesian components [Ang]:       [  0.646101,   0.648545,   1.501099]
    Electron size [Ang]:                  4.201714
      Cartesian components [Ang]:       [  2.761981,   2.736612,   1.592738]
    RMS electron-hole separation [Ang]:  10.817526
      Cartesian components [Ang]:       [  2.836318,   2.812625,  10.053025]
    Covariance(r_h, r_e) [Ang^2]:        -0.127851
    Correlation coefficient:             -0.017306
    Center-of-mass size [Ang]:            2.263297
      Cartesian components [Ang]:       [  1.418386,   1.406098,   1.064698]

  Decomposition into state-averaged NTOs
                   omega =   0.0%
  ----------------------------------------------------------------------------


  Excited state 9 (singlet, A2)                                    [converged]
  ----------------------------------------------------------------------------
  Term symbol:  9 (1) A2                                    R^2 =  1.19567e-08

  Total energy:                                            -78.5063725983 a.u.
  Excitation energy:                                               8.360422 eV

  Osc. strength:                                                      0.000000
  Trans. dip. moment [a.u.]:           [  -0.000000,   -0.000000,    0.000000]
  <i|r^2|0> [a.u.]:                    [  -0.000000,   -0.000000,   -0.000000]

  Dip. moment [a.u.]:                  [   0.000000,   -0.000000,    1.130786]
  Total dipole [Debye]:                                               2.874173
  <r^2> [a.u.]:                        [  69.161240,   34.476823,  369.242025]
  Total <r^2> [a.u.]:                                               472.880088

  V1^2 = 0.6236, V2^2 = 0.3764

  Important amplitudes:
      occ i      occ j       vir a       vir b          v   
    ---------------------------------------------------------
     5 (A1) A               3 (A2) A                 -0.5509
     5 (A1) A   1 (B2) A    1 (A2) A    2 (B2) A      0.1159
    ---------------------------------------------------------

  Density matrix analysis:
  ------------------------
  NOs
    Occupation of frontier NOs:
       0.6588   0.9906
    Number of electrons: 18.000000
    Number of unpaired electrons: n_u =  3.10192, n_u,nl =  2.63174
    NO participation ratio (PR_NO):  5.623803
  
  
  Mulliken Population Analysis
  Atom      Charge (e)              h+              e-           Del q
  --------------------------------------------------------------------
   1 C       -0.633098        0.216526       -0.660911       -0.444384
   2 C       -0.633098        0.216526       -0.660911       -0.444384
   3 H        0.062567        0.000853       -0.021857       -0.021004
   4 H        0.062567        0.000853       -0.021857       -0.021004
   5 H        0.070526       -0.000778       -0.033812       -0.034590
   6 H        0.070526       -0.000778       -0.033812       -0.034590
   7 H        0.000012        1.030354       -0.030398        0.999956
  --------------------------------------------------------------------
  Sum:       -1.000000        1.463558       -1.463558        0.000000
  
  Multipole moment analysis of the density matrix
    Molecular charge:                      -1.000000
    Number of electrons:                   18.000000
      Center of electronic charge [Ang]: [ -0.000000,   0.000000,  -0.033244]
    Total nuclear charge:                  17.000000
      Center of nuclear charge [Ang]:    [ -0.000000,   0.000000,  -0.000000]
    Dipole moment [D]:                     2.874172
      Cartesian components [D]:          [  0.000000,  -0.000000,   2.874172]
    RMS size of the density [Ang]:         2.712113
      Cartesian components [Ang]:        [  1.037281,   0.732367,   2.396507]
  
  Exciton analysis of the difference density matrix
    <r_h> [Ang]:                  [ -0.000000,   0.000000,   6.454141]
    <r_e> [Ang]:                  [ -0.000000,   0.000000,  -0.363578]
    |<r_e - r_h>| [Ang]:            6.817719
    Hole size [Ang]:                4.721883
      Cartesian components [Ang]: [  0.745689,   0.703778,   4.609211]
    Electron size [Ang]:            3.482001
      Cartesian components [Ang]: [  2.020213,   2.066614,   1.942209]

  Transition density matrix analysis:
  -----------------------------------
  
  CT numbers (Mulliken)
    omega =     0.6177
    <Phe> =     0.0000
  
  Exciton analysis of the transition density matrix
    Trans. dipole moment [D]:             0.000000
      Cartesian components [D]:         [ -0.000000,  -0.000000,   0.000000]
    <r_h> [Ang]:                        [  0.000000,   0.000000,   9.411458]
    <r_e> [Ang]:                        [ -0.000000,   0.000000,  -0.588202]
    |<r_e - r_h>| [Ang]:                  9.999660
    Hole size [Ang]:                      1.115040
      Cartesian components [Ang]:       [  0.643057,   0.643045,   0.645201]
    Electron size [Ang]:                  3.211435
      Cartesian components [Ang]:       [  2.114292,   2.093350,   1.208704]
    RMS electron-hole separation [Ang]:  10.561713
      Cartesian components [Ang]:       [  2.209915,   2.189885,  10.093089]
    Covariance(r_h, r_e) [Ang^2]:         0.000027
    Correlation coefficient:              0.000008
    Center-of-mass size [Ang]:            1.699756
      Cartesian components [Ang]:       [  1.104964,   1.094949,   0.685064]

  Decomposition into state-averaged NTOs
    H- 0 -> L+ 3: -0.5422 ( 58.8%)
    H- 0 -> L+ 2:  0.1076 (  2.3%)
                   omega =  61.8%
  ----------------------------------------------------------------------------


  Excited state 10 (singlet, A2)                                    [converged]
  ----------------------------------------------------------------------------
  Term symbol:  10 (1) A2                                   R^2 =  6.99894e-06

  Total energy:                                            -78.4938273517 a.u.
  Excitation energy:                                               8.701795 eV

  Osc. strength:                                                      0.000000
  Trans. dip. moment [a.u.]:           [   0.000000,    0.000000,   -0.000000]
  <i|r^2|0> [a.u.]:                    [   0.000000,    0.000000,    0.000000]

  Dip. moment [a.u.]:                  [   0.000000,   -0.000000,    1.122784]
  Total dipole [Debye]:                                               2.853833
  <r^2> [a.u.]:                        [ 103.195553,   30.023154,  395.154040]
  Total <r^2> [a.u.]:                                               528.372746

  V1^2 = 0.0316, V2^2 = 0.9684

  Important amplitudes:
      occ i      occ j       vir a       vir b          v   
    ---------------------------------------------------------
     5 (A1) A   1 (B2) A    6 (A1) A    5 (B1) A      0.1594
     5 (A1) A   1 (B2) A    8 (A1) A    4 (B1) A     -0.1579
    ---------------------------------------------------------

  Density matrix analysis:
  ------------------------
  NOs
    Occupation of frontier NOs:
       0.5343   0.9739
    Number of electrons: 18.000000
    Number of unpaired electrons: n_u =  4.28926, n_u,nl =  4.11864
    NO participation ratio (PR_NO):  6.474860
  
  
  Mulliken Population Analysis
  Atom      Charge (e)              h+              e-           Del q
  --------------------------------------------------------------------
   1 C       -0.566696        0.479627       -0.857609       -0.377982
   2 C       -0.566696        0.479627       -0.857609       -0.377982
   3 H        0.023040        0.002714       -0.063246       -0.060531
   4 H        0.023040        0.002714       -0.063246       -0.060531
   5 H        0.043650        0.002489       -0.063954       -0.061466
   6 H        0.043650        0.002489       -0.063954       -0.061466
   7 H        0.000013        1.000964       -0.001007        0.999957
  --------------------------------------------------------------------
  Sum:       -1.000000        1.970625       -1.970625       -0.000000
  
  Multipole moment analysis of the density matrix
    Molecular charge:                      -1.000000
    Number of electrons:                   18.000000
      Center of electronic charge [Ang]: [ -0.000000,   0.000000,  -0.033008]
    Total nuclear charge:                  17.000000
      Center of nuclear charge [Ang]:    [ -0.000000,   0.000000,  -0.000000]
    Dipole moment [D]:                     2.853832
      Cartesian components [D]:          [  0.000000,  -0.000000,   2.853832]
    RMS size of the density [Ang]:         2.866859
      Cartesian components [Ang]:        [  1.267055,   0.683428,   2.479189]
  
  Exciton analysis of the difference density matrix
    <r_h> [Ang]:                  [ -0.000000,   0.000000,   4.490804]
    <r_e> [Ang]:                  [ -0.000000,   0.000000,  -0.570481]
    |<r_e - r_h>| [Ang]:            5.061285
    Hole size [Ang]:                5.138846
      Cartesian components [Ang]: [  0.699125,   0.761737,   5.033757]
    Electron size [Ang]:            3.967559
      Cartesian components [Ang]: [  2.818373,   1.658751,   2.246518]

  Transition density matrix analysis:
  -----------------------------------
  
  CT numbers (Mulliken)
    omega =     0.0313
    <Phe> =    -0.0000
  
  Exciton analysis of the transition density matrix
    Trans. dipole moment [D]:             0.000000
      Cartesian components [D]:         [  0.000000,   0.000000,  -0.000000]
    <r_h> [Ang]:                        [  0.000000,   0.000000,   9.395727]
    <r_e> [Ang]:                        [ -0.000000,   0.000000,  -0.587279]
    |<r_e - r_h>| [Ang]:                  9.983006
    Hole size [Ang]:                      1.183806
      Cartesian components [Ang]:       [  0.643379,   0.643582,   0.757141]
    Electron size [Ang]:                  3.089684
      Cartesian components [Ang]:       [  2.036454,   2.010270,   1.165253]
    RMS electron-hole separation [Ang]:  10.517897
      Cartesian components [Ang]:       [  2.135639,   2.110774,  10.080170]
    Covariance(r_h, r_e) [Ang^2]:        -0.009098
    Correlation coefficient:             -0.002487
    Center-of-mass size [Ang]:            1.652978
      Cartesian components [Ang]:       [  1.067850,   1.055391,   0.691508]

  Decomposition into state-averaged NTOs
    H- 0 -> L+ 3:  0.1223 (  3.0%)
                   omega =   3.1%
  ----------------------------------------------------------------------------


--------------------------------------------------------------------------------
  Time of ADC calculation:  CPU 551.91 s  wall 132.00 s
================================================================================
 
 --------------------------------------------------------------
             Orbital Energies (a.u.) and Symmetries
 --------------------------------------------------------------
 
 Alpha MOs, Restricted
 -- Occupied --                  
-11.184 -11.182  -0.989  -0.729  -0.607  -0.514  -0.462  -0.324
  1 A1    1 B1    2 A1    2 B1    3 A1    4 A1    3 B1    1 B2                 
  0.022
  5 A1                                                                         
 -- Virtual --                   
  0.108   0.122   0.128   0.132   0.137   0.148   0.177   0.216
  4 B1    6 A1    2 B2    7 A1    1 A2    5 B1    8 A1    2 A2                 
  0.248   0.313   0.327   0.343   0.347   0.347   0.351   0.393
  6 B1    9 A1   10 A1    7 B1    8 B1   11 A1    3 B2   12 A1                 
  0.417   0.431   0.603   0.655   0.866   0.912   0.947   0.984
  9 B1    3 A2   10 B1   11 B1   13 A1   14 A1   15 A1   12 B1                 
  1.007   1.058   1.083   1.093   1.104   1.127   1.146   1.167
 16 A1   17 A1    4 B2   18 A1   13 B1    4 A2   14 B1    5 B2                 
  1.319   1.337   1.339   1.442   1.669   1.682   1.772   1.920
 15 B1    5 A2    6 B2   16 B1   19 A1   17 B1   20 A1    6 A2                 
  1.967   1.967   1.967   1.995   2.000   2.070   2.098   2.136
 21 A1   18 B1    7 B2    8 B2   19 B1    9 B2   22 A1   23 A1                 
  2.231   2.377   2.465   2.515   2.629   2.636   2.864   2.873
  7 A2   20 B1    8 A2   24 A1   21 B1   22 B1   25 A1   26 A1                 
  3.299   3.392
 23 B1   24 B1                                                                 
 
 Beta MOs, Restricted
 -- Occupied --                  
-11.184 -11.182  -0.989  -0.729  -0.607  -0.514  -0.462  -0.324
  1 A1    1 B1    2 A1    2 B1    3 A1    4 A1    3 B1    1 B2                 
  0.022
  5 A1                                                                         
 -- Virtual --                   
  0.108   0.122   0.128   0.132   0.137   0.148   0.177   0.216
  4 B1    6 A1    2 B2    7 A1    1 A2    5 B1    8 A1    2 A2                 
  0.248   0.313   0.327   0.343   0.347   0.347   0.351   0.393
  6 B1    9 A1   10 A1    7 B1    8 B1   11 A1    3 B2   12 A1                 
  0.417   0.431   0.603   0.655   0.866   0.912   0.947   0.984
  9 B1    3 A2   10 B1   11 B1   13 A1   14 A1   15 A1   12 B1                 
  1.007   1.058   1.083   1.093   1.104   1.127   1.146   1.167
 16 A1   17 A1    4 B2   18 A1   13 B1    4 A2   14 B1    5 B2                 
  1.319   1.337   1.339   1.442   1.669   1.682   1.772   1.920
 15 B1    5 A2    6 B2   16 B1   19 A1   17 B1   20 A1    6 A2                 
  1.967   1.967   1.967   1.995   2.000   2.070   2.098   2.136
 21 A1   18 B1    7 B2    8 B2   19 B1    9 B2   22 A1   23 A1                 
  2.231   2.377   2.465   2.515   2.629   2.636   2.864   2.873
  7 A2   20 B1    8 A2   24 A1   21 B1   22 B1   25 A1   26 A1                 
  3.299   3.392
 23 B1   24 B1                                                                 
 --------------------------------------------------------------
 
          Ground-State Mulliken Net Atomic Charges

     Atom                 Charge (a.u.)
  ----------------------------------------
      1 C                    -0.173911
      2 C                    -0.173911
      3 H                     0.076154
      4 H                     0.076154
      5 H                     0.097730
      6 H                     0.097730
      7 H                    -0.999948
  ----------------------------------------
  Sum of atomic charges =    -1.000000

 -----------------------------------------------------------------
                    Cartesian Multipole Moments
 -----------------------------------------------------------------
    Charge (ESU x 10^10)
                -4.8032
    Dipole Moment (Debye)
         X      -0.0000      Y      -0.0000      Z     -45.0547
       Tot      45.0547
    Quadrupole Moments (Debye-Ang)
        XX     -16.8914     XY      -0.0000     YY     -20.0886
        XZ      -0.0000     YZ      -0.0000     ZZ    -441.5296
    Octopole Moments (Debye-Ang^2)
       XXX      -0.0000    XXY      -0.0000    XYY      -0.0000
       YYY      -0.0000    XXZ     -29.3470    XYZ       0.0000
       YYZ     -27.6651    XZZ      -0.0000    YZZ      -0.0000
       ZZZ   -4094.2351
    Hexadecapole Moments (Debye-Ang^3)
      XXXX     -74.1422   XXXY       0.0000   XXYY     -17.5707
      XYYY      -0.0000   YYYY     -27.5426   XXXZ      -0.0000
      XXYZ      -0.0000   XYYZ       0.0000   YYYZ      -0.0000
      XXZZ    -370.2074   XYZZ      -0.0000   YYZZ    -366.8414
      XZZZ      -0.0000   YZZZ      -0.0000   ZZZZ  -39846.5812
 -----------------------------------------------------------------
 Total job time:  214.68s(wall), 596.10s(cpu) 
 Sat Mar 26 23:11:26 2022

        *************************************************************
        *                                                           *
        *  Thank you very much for using Q-Chem.  Have a nice day.  *
        *                                                           *
        *************************************************************


