/src/tsommerfeld/qchem/exe/qcprog.exe .cap.inp.2609.qcin.1 /src/jdavis/qchem.scratch/qchem2609/

                  Welcome to Q-Chem
     A Quantum Leap Into The Future Of Chemistry


 Q-Chem 5.4 (devel), Q-Chem, Inc., Pleasanton, CA (2021)

 E. Epifanovsky,  A. T. B. Gilbert,  Xintian Feng,  Joonho Lee,  Yuezhi Mao,  
 N. Mardirossian,  P. Pokhilko,  A. White,  M. Wormit,  M. P. Coons,  
 A. L. Dempwolff,  Zhengting Gan,  D. Hait,  P. R. Horn,  L. D. Jacobson,  
 I. Kaliman,  J. Kussmann,  A. W. Lange,  Ka Un Lao,  D. S. Levine,  Jie Liu,  
 S. C. McKenzie,  A. F. Morrison,  K. Nanda,  F. Plasser,  D. R. Rehn,  
 M. L. Vidal,  Zhi-Qiang You,  Ying Zhu,  B. Alam,  B. Albrecht,  
 A. Aldossary,  E. Alguire,  J. H. Andersen,  D. Barton,  K. Begam,  A. Behn,  
 Y. A. Bernard,  E. J. Berquist,  H. Burton,  A. Carreras,  K. Carter-Fenk,  
 R. Chakraborty,  A. D. Chien,  K. D. Closser,  V. Cofer-Shabica,  
 S. Dasgupta,  Jia Deng,  M. de Wergifosse,  M. Diedenhofen,  Hainam Do,  
 S. Ehlert,  Po-Tung Fang,  S. Fatehi,  Qingguo Feng,  T. Friedhoff,  
 J. Gayvert,  Qinghui Ge,  G. Gidofalvi,  M. Goldey,  J. Gomes,  
 C. Gonzalez-Espinoza,  S. Gulania,  A. Gunina,  M. W. D. Hanson-Heine,  
 P. H. P. Harbach,  A. W. Hauser,  M. F. Herbst,  M. Hernandez Vera,  
 M. Hodecker,  Z. C. Holden,  S. Houck,  Xunkun Huang,  Kerwin Hui,  
 B. C. Huynh,  M. Ivanov,  Hyunjun Ji,  Hanjie Jiang,  B. Kaduk,  S. Kaehler,  
 K. Khistyaev,  Jaehoon Kim,  P. Klunzinger,  Z. Koczor-Benda,  
 Joong Hoon Koh,  D. Kosenkov,  L. Koulias,  T. Kowalczyk,  C. M. Krauter,  
 K. Kue,  A. Kunitsa,  T. Kus,  A. Landau,  K. V. Lawler,  D. Lefrancois,  
 S. Lehtola,  Rain Li,  Yi-Pei Li,  Jiashu Liang,  M. Liebenthal,  
 Hung-Hsuan Lin,  You-Sheng Lin,  Fenglai Liu,  Kuan-Yu Liu,  
 M. Loipersberger,  A. Luenser,  A. Manjanath,  P. Manohar,  E. Mansoor,  
 S. F. Manzer,  Shan-Ping Mao,  A. V. Marenich,  T. Markovich,  S. Mason,  
 S. A. Maurer,  P. F. McLaughlin,  M. F. S. J. Menger,  J.-M. Mewes,  
 S. A. Mewes,  P. Morgante,  J. W. Mullinax,  K. J. Oosterbaan,  G. Paran,  
 Alexander C. Paul,  Suranjan K. Paul,  F. Pavosevic,  Zheng Pei,  S. Prager,  
 E. I. Proynov,  E. Ramos,  B. Rana,  A. E. Rask,  A. Rettig,  R. M. Richard,  
 F. Rob,  E. Rossomme,  T. Scheele,  M. Scheurer,  M. Schneider,  
 N. Sergueev,  S. M. Sharada,  W. Skomorowski,  D. W. Small,  C. J. Stein,  
 Yu-Chuan Su,  E. J. Sundstrom,  Zhen Tao,  J. Thirman,  T. Tsuchimochi,  
 N. M. Tubman,  S. P. Veccham,  O. Vydrov,  J. Wenzel,  J. Witte,  A. Yamada,  
 Kun Yao,  S. Yeganeh,  S. R. Yost,  A. Zech,  Igor Ying Zhang,  Xing Zhang,  
 Yu Zhang,  D. Zuev,  A. Aspuru-Guzik,  A. T. Bell,  N. A. Besley,  
 K. B. Bravaya,  B. R. Brooks,  D. Casanova,  Jeng-Da Chai,  S. Coriani,  
 C. J. Cramer,  A. E. DePrince, III,  R. A. DiStasio Jr.,  A. Dreuw,  
 B. D. Dunietz,  T. R. Furlani,  W. A. Goddard III,  S. Grimme,  
 S. Hammes-Schiffer,  T. Head-Gordon,  W. J. Hehre,  Chao-Ping Hsu,  
 T.-C. Jagau,  Yousung Jung,  A. Klamt,  Jing Kong,  D. S. Lambrecht,  
 WanZhen Liang,  N. J. Mayhall,  C. W. McCurdy,  J. B. Neaton,  
 C. Ochsenfeld,  J. A. Parkhill,  R. Peverati,  V. A. Rassolov,  Yihan Shao,  
 L. V. Slipchenko,  T. Stauch,  R. P. Steele,  J. E. Subotnik,  
 A. J. W. Thom,  A. Tkatchenko,  D. G. Truhlar,  T. Van Voorhis,  
 T. A. Wesolowski,  K. B. Whaley,  H. L. Woodcock III,  P. M. Zimmerman,  
 S. Faraji,  P. M. W. Gill,  M. Head-Gordon,  J. M. Herbert,  A. I. Krylov

 Additional authors for Version 5.4.1: 
 S. Kotaru,  Shaozhi Li,  Xiangyuan Li,  F. Matz,  A. Molle,  Haisheng Ren,  
 Yingli Su,  Hung-Yi Tsai,  C. Utku,  Fang Wang

 Contributors to earlier versions of Q-Chem not listed above: 
 R. D. Adamson,  B. Austin,  R. Baer,  J. Baker,  G. J. O. Beran,  
 K. Brandhorst,  S. T. Brown,  E. F. C. Byrd,  A. K. Chakraborty,  
 G. K. L. Chan,  Chun-Min Chang,  Yunqing Chen,  C.-L. Cheng,  
 Siu Hung Chien,  D. M. Chipman,  D. L. Crittenden,  H. Dachsel,  
 R. J. Doerksen,  A. D. Dutoi,  R. G. Edgar,  J. Fosso-Tande,  
 L. Fusti-Molnar,  D. Ghosh,  A. Ghysels,  A. Golubeva-Zadorozhnaya,  
 J. Gonthier,  M. S. Gordon,  S. R. Gwaltney,  G. Hawkins,  J. E. Herr,  
 A. Heyden,  S. Hirata,  E. G. Hohenstein,  G. Kedziora,  F. J. Keil,  
 C. Kelley,  Jihan Kim,  R. A. King,  R. Z. Khaliullin,  P. P. Korambath,  
 W. Kurlancheek,  A. Laurent,  A. M. Lee,  M. S. Lee,  S. V. Levchenko,  
 Ching Yeh Lin,  D. Liotard,  E. Livshits,  R. C. Lochan,  I. Lotan,  
 L. A. Martinez-Martinez,  P. E. Maslen,  N. Nair,  D. P. O'Neill,  
 D. Neuhauser,  E. Neuscamman,  C. M. Oana,  R. Olivares-Amaya,  R. Olson,  
 T. M. Perrine,  B. Peters,  P. A. Pieniazek,  A. Prociuk,  Y. M. Rhee,  
 J. Ritchie,  M. A. Rohrdanz,  E. Rosta,  N. J. Russ,  H. F. Schaefer III,  
 M. W. Schmidt,  N. E. Schultz,  S. Sharma,  N. Shenvi,  C. D. Sherrill,  
 A. C. Simmonett,  A. Sodt,  T. Stein,  D. Stuck,  K. S. Thanthiriwatte,  
 V. Vanovschi,  L. Vogt,  Tao Wang,  A. Warshel,  M. A. Watson,  
 C. F. Williams,  Q. Wu,  X. Xu,  Jun Yang,  W. Zhang,  Yan Zhao

 Please cite Q-Chem as follows:
 Y. Shao et al., Mol. Phys. 113, 184-215 (2015)
 DOI: 10.1080/00268976.2014.952696

 Q-Chem 5.4.1 for Intel X86 EM64T Linux

 Parts of Q-Chem use Armadillo 9.900.5 (Nocturnal Misbehaviour).
 http://arma.sourceforge.net/

 Q-Chem begins on Mon Apr 11 06:24:54 2022  

 Host: node01
0

     Scratch files written to /src/jdavis/qchem.scratch/qchem2609//
 Processing $rem in /src/tsommerfeld/qchem/config/preferences:
 Processing $rem in /home/jdavis/.qchemrc:

 Checking the input file for inconsistencies... 	...done.

--------------------------------------------------------------
User input:
--------------------------------------------------------------
$comment
	H_Ethylene CAP-ADC(3) close y
	Basis: C: jun-TZ+4p1d, H: TZ
$end

$molecule
-1 1
C        -0.6645000000    0.0000000000   -0.1764707059
C         0.6645000000    0.0000000000   -0.1764707059
H        -1.1590800000    0.0000000000    0.7858782941
H         1.1590800000    0.0000000000    0.7858782941
H        -1.1590800000    0.0000000000   -1.1388187059
H         1.1590800000    0.0000000000   -1.1388187059
H         0.0000000000    2.5000000000   -0.1764707059
$end

$rem
	basis gen
	method adc(3)
        EE_STATES [0,0,0,10] #B2 maybe?
	scf_convergence 8
	thresh 14
	adc_cap 1
	cap_type 2
	cap_x 1500
	cap_x_end 5000
	cap_x_step 500
	xc_grid 000250000974
	adc_print 3
	adc_davidson_conv 5
	adc_nguess_singles 100
	adc_nguess_doubles 50
	adc_davidson_maxsubspace 400
	adc_davidson_maxiter 40
	adc_davidson_thresh 14
	mem_total 95000
	threads 12
$end
$basis
C     1
S    8   1.00
   8236.0000000              0.0005310
   1235.0000000              0.0041080
    280.8000000              0.0210870
     79.2700000              0.0818530
     25.5900000              0.2348170
      8.9970000              0.4344010
      3.3190000              0.3461290
      0.3643000             -0.0089830
S    1   1.00
      0.9059000              1.0000000
S    8   1.00
   8236.0000000             -0.0001130
   1235.0000000             -0.0008780
    280.8000000             -0.0045400
     79.2700000             -0.0181330
     25.5900000             -0.0557600
      8.9970000             -0.1268950
      3.3190000             -0.1703520
      0.3643000              0.5986840
S    1   1.00
      0.1285000              1.0000000
S    1   1.00
      0.0440200              1.0000000
P    3   1.00
     18.7100000              0.0140310
      4.1330000              0.0868660
      1.2000000              0.2902160
P    1   1.00
      0.3827000              1.0000000
P    1   1.00
      0.1209000              1.0000000
P    1   1.00
      0.0356900              1.0000000
P    1   1.0
      0.0237933 1.0
P    1   1.0
      0.0158622 1.0
P    1   1.0
      0.0105748 1.0
P    1   1.0
      0.0070498 1.0
D    1   1.00
      1.0970000              1.0000000
D    1   1.00
      0.3180000              1.0000000
D    1   1.00
      0.1000000              1.0000000
D    1   1.00
      0.0500000 1.0
F    1   1.00
      0.7610000              1.0000000
****
C     2
S    8   1.00
   8236.0000000              0.0005310
   1235.0000000              0.0041080
    280.8000000              0.0210870
     79.2700000              0.0818530
     25.5900000              0.2348170
      8.9970000              0.4344010
      3.3190000              0.3461290
      0.3643000             -0.0089830
S    1   1.00
      0.9059000              1.0000000
S    8   1.00
   8236.0000000             -0.0001130
   1235.0000000             -0.0008780
    280.8000000             -0.0045400
     79.2700000             -0.0181330
     25.5900000             -0.0557600
      8.9970000             -0.1268950
      3.3190000             -0.1703520
      0.3643000              0.5986840
S    1   1.00
      0.1285000              1.0000000
S    1   1.00
      0.0440200              1.0000000
P    3   1.00
     18.7100000              0.0140310
      4.1330000              0.0868660
      1.2000000              0.2902160
P    1   1.00
      0.3827000              1.0000000
P    1   1.00
      0.1209000              1.0000000
P    1   1.00
      0.0356900              1.0000000
P    1   1.0
      0.0237933 1.0
P    1   1.0
      0.0158622 1.0
P    1   1.0
      0.0105748 1.0
P    1   1.0
      0.0070498 1.0
D    1   1.00
      1.0970000              1.0000000
D    1   1.00
      0.3180000              1.0000000
D    1   1.00
      0.1000000              1.0000000
D    1   1.00
      0.0500000 1.0
F    1   1.00
      0.7610000              1.0000000
****
H     3
cc-pVTZ
****
H     4
cc-pVTZ
****
H     5
cc-pVTZ
****
H     6
cc-pVTZ
****
H     7
aug-cc-pVTZ
****
$end
--------------------------------------------------------------
 Atom   2: ( -0.6645000000, -0.0000001375, -0.1470588235)
         ->( -0.6645000000,  0.0000001375, -0.1470588235)
 Atom   1: (  0.6645000000, -0.0000001375, -0.1470588235)
         ->(  0.6645000000,  0.0000000000, -0.1470588235)
 Atom   6: ( -1.1590800000, -0.9623481375, -0.1470586936)
         ->( -1.1590800000, -0.9623488625, -0.1470589535)
 Atom   5: (  1.1590800000, -0.9623481375, -0.1470586936)
         ->(  1.1590800000, -0.9623488625, -0.1470589535)
 Atom   7: (  0.0000000000,  0.0000002001,  2.3529411765)
         ->(  0.0000000000,  0.0000000000,  2.3529411765)
 ----------------------------------------------------------------
             Standard Nuclear Orientation (Angstroms)
    I     Atom           X                Y                Z
 ----------------------------------------------------------------
    1      C       0.6645000000     0.0000000000    -0.1470588235
    2      C      -0.6645000000     0.0000001375    -0.1470588235
    3      H       1.1590800000     0.9623488625    -0.1470589535
    4      H      -1.1590800000     0.9623488625    -0.1470589535
    5      H       1.1590800000    -0.9623488625    -0.1470589535
    6      H      -1.1590800000    -0.9623488625    -0.1470589535
    7      H       0.0000000000     0.0000000000     2.3529411765
 ----------------------------------------------------------------
 Molecular Point Group                 C2v   NOp =  4
 Largest Abelian Subgroup              C2v   NOp =  4
 Nuclear Repulsion Energy =          36.76922151 hartrees
 There are        9 alpha and        9 beta electrons
 Requested basis set is non-standard
 There are 66 shells and 182 basis functions
 Total memory of 95000 MB is distributed as follows: 
   MEM_STATIC is set to 192 MB
   QALLOC/CCMAN JOB total memory use is  94808 MB
 Warning: actual memory use might exceed 95000 MB

 Total QAlloc Memory Limit  95000 MB
 Mega-Array Size       188 MB
 MEM_STATIC part       192 MB

                       Distance Matrix (Angstroms)
             C (  1)   C (  2)   H (  3)   H (  4)   H (  5)   H (  6)
   C (  2)  1.329000
   H (  3)  1.082000  2.061931
   H (  4)  2.061931  1.082000  2.318160
   H (  5)  1.082000  2.061931  1.924698  3.013026
   H (  6)  2.061931  1.082000  3.013026  1.924698  2.318160
   H (  7)  2.586805  2.586805  2.918832  2.918832  2.918832  2.918832

 
 A cutoff of  1.0D-14 yielded   2211 shell pairs
 There are     16903 function pairs (     20664 Cartesian)
 Smallest overlap matrix eigenvalue = 2.34E-06

 Scale SEOQF with 1.000000e-02/1.000000e-02/1.000000e-02

 Standard Electronic Orientation quadrupole field applied
 ================ Generating on-the-fly SAD Guess ================
Attempting to make child job directory: /src/jdavis/qchem.scratch/qchem2609//Frg1/
Attempting to make child job directory: /src/jdavis/qchem.scratch/qchem2609//Frg2/
Creating input file /src/jdavis/qchem.scratch/qchem2609/Frg1.input
using default PutDataFrgm: nothing
calling putenv with: QCSCRATCH=/src/jdavis/qchem.scratch/qchem2609/ 
Spawning Job For Fragment 0
Done Job For Fragment 0
calling putenv with: QCSCRATCH=/src/jdavis/qchem.scratch 
calling putenv with: QCTHREADS=1 
Creating input file /src/jdavis/qchem.scratch/qchem2609/Frg2.input
using default PutDataFrgm: nothing
calling putenv with: QCSCRATCH=/src/jdavis/qchem.scratch/qchem2609/ 
Spawning Job For Fragment 1
Done Job For Fragment 1
calling putenv with: QCSCRATCH=/src/jdavis/qchem.scratch 
calling putenv with: QCTHREADS=1 
 Time for running child jobs:  CPU 2.11 s  wall 56.62 s
 ============= Method Specific SAD Guess Constructed =============
 Guess from on-the-fly superposition of atomic densities
 Warning: Energy on first SCF cycle will be non-variational
 A restricted Hartree-Fock SCF calculation will be
 performed using Pulay DIIS extrapolation
 SCF converges when DIIS error is below 1.0E-08
 using 12 threads for integral computing
 -------------------------------------------------------
 OpenMP Integral computing Module                
 Release: version 1.0, May 2013, Q-Chem Inc. Pittsburgh 
 -------------------------------------------------------
 ---------------------------------------
  Cycle       Energy         DIIS Error
 ---------------------------------------
    1     -78.8296443221      2.75E-02
    2     -78.4341827345      4.74E-03
    3    -157.4243924346      2.86E-01
    4    -157.5518281733      2.86E-01
    5    -157.5727037500      2.86E-01
    6    -158.1666837816      2.85E-01
    7    -316.7399245885      1.11E-01
    8    -298.9982043849      7.53E-03
    9    -299.3614811738      5.02E-04
   10    -299.3750679643      8.51E-05
   11    -299.3648875968      2.07E-05
   12    -299.3545398924      2.82E-06
   13    -299.3534599913      1.71E-07
   14    -299.3535338851      6.80E-08
   15    -299.3536727089      5.75E-08
   16    -299.3727347934      2.26E-05
   17    -299.3678319500      1.66E-05
   18    -299.3688380911      1.80E-05
   19    -299.3680906315      1.69E-05
   20    -299.3673017519      1.60E-05
   21    -299.3664047494      1.47E-05
   22    -299.3574882152      4.54E-06
   23    -299.3564075404      3.01E-06
   24    -299.3565496322      3.27E-06
   25    -299.3554968967      1.84E-06
   26    -299.3554535581      2.00E-06
   27    -299.3555018847      1.86E-06
   28    -299.3555221097      1.81E-06
   29    -299.3530202892      1.41E-06
   30    -299.3801519244      3.09E-05
   31    -299.4266789831      7.89E-05
   32    -299.4209293391      6.63E-05
   33    -299.4113618196      4.58E-05
   34    -299.4064750599      3.58E-05
   35    -299.4138065275      5.10E-05
   36    -299.4060719882      3.44E-05
   37    -299.3789324245      3.34E-05
   38    -299.3924031757      1.52E-05
   39    -299.3930199267      1.53E-05
   40    -299.3960107471      1.77E-05
   41    -299.3820776415      2.71E-05
   42    -299.3822966462      2.65E-05
   43    -299.3832272676      2.47E-05
   44    -299.3816939367      2.77E-05
   45    -299.4204119525      8.78E-05
   46    -299.4222539271      6.55E-05
   47    -299.4270159657      1.52E-05
   48    -299.4283163997      7.48E-07
   49    -299.4283486552      1.33E-07
   50    -299.4282855703      1.42E-07    Convergence failure

 Q-Chem fatal error occurred in module scfman/scfman.C, line 5474:

 SCF failed to converge


 Please submit a crash report at q-chem.com/reporter 
 
 
Error: in the serial run
