/src/tsommerfeld/qchem/exe/qcprog.exe .input1.555556.31344.qcin.1 /src/jdavis/qchem.scratch/qchem31344/

                  Welcome to Q-Chem
     A Quantum Leap Into The Future Of Chemistry


 Q-Chem 5.4 (devel), Q-Chem, Inc., Pleasanton, CA (2021)

 E. Epifanovsky,  A. T. B. Gilbert,  Xintian Feng,  Joonho Lee,  Yuezhi Mao,  
 N. Mardirossian,  P. Pokhilko,  A. White,  M. Wormit,  M. P. Coons,  
 A. L. Dempwolff,  Zhengting Gan,  D. Hait,  P. R. Horn,  L. D. Jacobson,  
 I. Kaliman,  J. Kussmann,  A. W. Lange,  Ka Un Lao,  D. S. Levine,  Jie Liu,  
 S. C. McKenzie,  A. F. Morrison,  K. Nanda,  F. Plasser,  D. R. Rehn,  
 M. L. Vidal,  Zhi-Qiang You,  Ying Zhu,  B. Alam,  B. Albrecht,  
 A. Aldossary,  E. Alguire,  J. H. Andersen,  D. Barton,  K. Begam,  A. Behn,  
 Y. A. Bernard,  E. J. Berquist,  H. Burton,  A. Carreras,  K. Carter-Fenk,  
 R. Chakraborty,  A. D. Chien,  K. D. Closser,  V. Cofer-Shabica,  
 S. Dasgupta,  Jia Deng,  M. de Wergifosse,  M. Diedenhofen,  Hainam Do,  
 S. Ehlert,  Po-Tung Fang,  S. Fatehi,  Qingguo Feng,  T. Friedhoff,  
 J. Gayvert,  Qinghui Ge,  G. Gidofalvi,  M. Goldey,  J. Gomes,  
 C. Gonzalez-Espinoza,  S. Gulania,  A. Gunina,  M. W. D. Hanson-Heine,  
 P. H. P. Harbach,  A. W. Hauser,  M. F. Herbst,  M. Hernandez Vera,  
 M. Hodecker,  Z. C. Holden,  S. Houck,  Xunkun Huang,  Kerwin Hui,  
 B. C. Huynh,  M. Ivanov,  Hyunjun Ji,  Hanjie Jiang,  B. Kaduk,  S. Kaehler,  
 K. Khistyaev,  Jaehoon Kim,  P. Klunzinger,  Z. Koczor-Benda,  
 Joong Hoon Koh,  D. Kosenkov,  L. Koulias,  T. Kowalczyk,  C. M. Krauter,  
 K. Kue,  A. Kunitsa,  T. Kus,  A. Landau,  K. V. Lawler,  D. Lefrancois,  
 S. Lehtola,  Rain Li,  Yi-Pei Li,  Jiashu Liang,  M. Liebenthal,  
 Hung-Hsuan Lin,  You-Sheng Lin,  Fenglai Liu,  Kuan-Yu Liu,  
 M. Loipersberger,  A. Luenser,  A. Manjanath,  P. Manohar,  E. Mansoor,  
 S. F. Manzer,  Shan-Ping Mao,  A. V. Marenich,  T. Markovich,  S. Mason,  
 S. A. Maurer,  P. F. McLaughlin,  M. F. S. J. Menger,  J.-M. Mewes,  
 S. A. Mewes,  P. Morgante,  J. W. Mullinax,  K. J. Oosterbaan,  G. Paran,  
 Alexander C. Paul,  Suranjan K. Paul,  F. Pavosevic,  Zheng Pei,  S. Prager,  
 E. I. Proynov,  E. Ramos,  B. Rana,  A. E. Rask,  A. Rettig,  R. M. Richard,  
 F. Rob,  E. Rossomme,  T. Scheele,  M. Scheurer,  M. Schneider,  
 N. Sergueev,  S. M. Sharada,  W. Skomorowski,  D. W. Small,  C. J. Stein,  
 Yu-Chuan Su,  E. J. Sundstrom,  Zhen Tao,  J. Thirman,  T. Tsuchimochi,  
 N. M. Tubman,  S. P. Veccham,  O. Vydrov,  J. Wenzel,  J. Witte,  A. Yamada,  
 Kun Yao,  S. Yeganeh,  S. R. Yost,  A. Zech,  Igor Ying Zhang,  Xing Zhang,  
 Yu Zhang,  D. Zuev,  A. Aspuru-Guzik,  A. T. Bell,  N. A. Besley,  
 K. B. Bravaya,  B. R. Brooks,  D. Casanova,  Jeng-Da Chai,  S. Coriani,  
 C. J. Cramer,  A. E. DePrince, III,  R. A. DiStasio Jr.,  A. Dreuw,  
 B. D. Dunietz,  T. R. Furlani,  W. A. Goddard III,  S. Grimme,  
 S. Hammes-Schiffer,  T. Head-Gordon,  W. J. Hehre,  Chao-Ping Hsu,  
 T.-C. Jagau,  Yousung Jung,  A. Klamt,  Jing Kong,  D. S. Lambrecht,  
 WanZhen Liang,  N. J. Mayhall,  C. W. McCurdy,  J. B. Neaton,  
 C. Ochsenfeld,  J. A. Parkhill,  R. Peverati,  V. A. Rassolov,  Yihan Shao,  
 L. V. Slipchenko,  T. Stauch,  R. P. Steele,  J. E. Subotnik,  
 A. J. W. Thom,  A. Tkatchenko,  D. G. Truhlar,  T. Van Voorhis,  
 T. A. Wesolowski,  K. B. Whaley,  H. L. Woodcock III,  P. M. Zimmerman,  
 S. Faraji,  P. M. W. Gill,  M. Head-Gordon,  J. M. Herbert,  A. I. Krylov

 Additional authors for Version 5.4.1: 
 S. Kotaru,  Shaozhi Li,  Xiangyuan Li,  F. Matz,  A. Molle,  Haisheng Ren,  
 Yingli Su,  Hung-Yi Tsai,  C. Utku,  Fang Wang

 Contributors to earlier versions of Q-Chem not listed above: 
 R. D. Adamson,  B. Austin,  R. Baer,  J. Baker,  G. J. O. Beran,  
 K. Brandhorst,  S. T. Brown,  E. F. C. Byrd,  A. K. Chakraborty,  
 G. K. L. Chan,  Chun-Min Chang,  Yunqing Chen,  C.-L. Cheng,  
 Siu Hung Chien,  D. M. Chipman,  D. L. Crittenden,  H. Dachsel,  
 R. J. Doerksen,  A. D. Dutoi,  R. G. Edgar,  J. Fosso-Tande,  
 L. Fusti-Molnar,  D. Ghosh,  A. Ghysels,  A. Golubeva-Zadorozhnaya,  
 J. Gonthier,  M. S. Gordon,  S. R. Gwaltney,  G. Hawkins,  J. E. Herr,  
 A. Heyden,  S. Hirata,  E. G. Hohenstein,  G. Kedziora,  F. J. Keil,  
 C. Kelley,  Jihan Kim,  R. A. King,  R. Z. Khaliullin,  P. P. Korambath,  
 W. Kurlancheek,  A. Laurent,  A. M. Lee,  M. S. Lee,  S. V. Levchenko,  
 Ching Yeh Lin,  D. Liotard,  E. Livshits,  R. C. Lochan,  I. Lotan,  
 L. A. Martinez-Martinez,  P. E. Maslen,  N. Nair,  D. P. O'Neill,  
 D. Neuhauser,  E. Neuscamman,  C. M. Oana,  R. Olivares-Amaya,  R. Olson,  
 T. M. Perrine,  B. Peters,  P. A. Pieniazek,  A. Prociuk,  Y. M. Rhee,  
 J. Ritchie,  M. A. Rohrdanz,  E. Rosta,  N. J. Russ,  H. F. Schaefer III,  
 M. W. Schmidt,  N. E. Schultz,  S. Sharma,  N. Shenvi,  C. D. Sherrill,  
 A. C. Simmonett,  A. Sodt,  T. Stein,  D. Stuck,  K. S. Thanthiriwatte,  
 V. Vanovschi,  L. Vogt,  Tao Wang,  A. Warshel,  M. A. Watson,  
 C. F. Williams,  Q. Wu,  X. Xu,  Jun Yang,  W. Zhang,  Yan Zhao

 Please cite Q-Chem as follows:
 Y. Shao et al., Mol. Phys. 113, 184-215 (2015)
 DOI: 10.1080/00268976.2014.952696

 Q-Chem 5.4.1 for Intel X86 EM64T Linux

 Parts of Q-Chem use Armadillo 9.900.5 (Nocturnal Misbehaviour).
 http://arma.sourceforge.net/

 Q-Chem begins on Sun Mar 27 13:37:59 2022  

 Host: node01
0

     Scratch files written to /src/jdavis/qchem.scratch/qchem31344//
 Processing $rem in /src/tsommerfeld/qchem/config/preferences:
 Processing $rem in /home/jdavis/.qchemrc:

 Checking the input file for inconsistencies... 	...done.

--------------------------------------------------------------
User input:
--------------------------------------------------------------
$molecule
-1 1
C         0.0000000000    0.0000000000    0.8417902907
C         0.0000000000    0.0000000000   -0.4872097093
H         0.9623488518    0.0000000000    1.3363703127
H         0.9623489048    0.0000000000   -0.9817896873
H        -0.9623488518    0.0000000000    1.3363703127
H        -0.9623489048    0.0000000000   -0.9817896873
H         0.0000000000    0.0000000000   -2.8366446508
$end

$rem
   METHOD adc(3)
   BASIS gen
   PURECART 11
   EE_STATES [0,0,0,10]
   scf_convergence 8
   ADC_DAVIDSON_MAXITER 120
   ADC_DAVIDSON_MAXSUBSPACE 200
   adc_nguess_singles 100
   THRESH 14
   S2THRESH 14
   adc_davidson_conv 5
   adc_davidson_thresh 14
   THREADS 10
   MEM_TOTAL 95000
   STATE_ANALYSIS TRUE
$end
$basis
C 1
S   9   1.00
      6.665000D+03           6.920000D-04
      1.000000D+03           5.329000D-03
      2.280000D+02           2.707700D-02
      6.471000D+01           1.017180D-01
      2.106000D+01           2.747400D-01
      7.495000D+00           4.485640D-01
      2.797000D+00           2.850740D-01
      5.215000D-01           1.520400D-02
      1.596000D-01          -3.191000D-03
S   9   1.00
      6.665000D+03          -1.460000D-04
      1.000000D+03          -1.154000D-03
      2.280000D+02          -5.725000D-03
      6.471000D+01          -2.331200D-02
      2.106000D+01          -6.395500D-02
      7.495000D+00          -1.499810D-01
      2.797000D+00          -1.272620D-01
      5.215000D-01           5.445290D-01
      1.596000D-01           5.804960D-01
S   1   1.00
      1.596000D-01           1.000000D+00
S   1   1.00
      0.0469000              1.0000000
P   4   1.00
      9.439000D+00           3.810900D-02
      2.002000D+00           2.094800D-01
      5.456000D-01           5.085570D-01
      1.517000D-01           4.688420D-01
P   1   1.00
      1.517000D-01           1.000000D+00
P   1   1.00
      0.0943911      1.0000000
P   1   1.00
      0.0471956      1.0000000
D   1   1.00
      5.500000D-01           1.0000000
****
C 2
S   9   1.00
      6.665000D+03           6.920000D-04
      1.000000D+03           5.329000D-03
      2.280000D+02           2.707700D-02
      6.471000D+01           1.017180D-01
      2.106000D+01           2.747400D-01
      7.495000D+00           4.485640D-01
      2.797000D+00           2.850740D-01
      5.215000D-01           1.520400D-02
      1.596000D-01          -3.191000D-03
S   9   1.00
      6.665000D+03          -1.460000D-04
      1.000000D+03          -1.154000D-03
      2.280000D+02          -5.725000D-03
      6.471000D+01          -2.331200D-02
      2.106000D+01          -6.395500D-02
      7.495000D+00          -1.499810D-01
      2.797000D+00          -1.272620D-01
      5.215000D-01           5.445290D-01
      1.596000D-01           5.804960D-01
S   1   1.00
      1.596000D-01           1.000000D+00
S   1   1.00
      0.0469000              1.0000000
P   4   1.00
      9.439000D+00           3.810900D-02
      2.002000D+00           2.094800D-01
      5.456000D-01           5.085570D-01
      1.517000D-01           4.688420D-01
P   1   1.00
      1.517000D-01           1.000000D+00
P   1   1.00
      0.0943911      1.0000000
P   1   1.00
      0.0471956      1.0000000
D   1   1.00
      5.500000D-01           1.0000000
****
H 3
cc-pVDZ
****
H 4
cc-pVDZ
****
H 5
cc-pVDZ
****
H 6
cc-pVDZ
****
H 7
aug-cc-pVDZ
****
$end
--------------------------------------------------------------
 ----------------------------------------------------------------
             Standard Nuclear Orientation (Angstroms)
    I     Atom           X                Y                Z
 ----------------------------------------------------------------
    1      C       0.0000000000     0.0000000000     0.8417902855
    2      C       0.0000000000     0.0000000000    -0.4872097145
    3      H       0.9623488518     0.0000000000     1.3363703075
    4      H       0.9623489048     0.0000000000    -0.9817896925
    5      H      -0.9623488518     0.0000000000     1.3363703075
    6      H      -0.9623489048     0.0000000000    -0.9817896925
    7      H       0.0000000000     0.0000000000    -2.8366446560
 ----------------------------------------------------------------
 Molecular Point Group                 C2v   NOp =  4
 Largest Abelian Subgroup              C2v   NOp =  4
 Nuclear Repulsion Energy =          36.55739271 hartrees
 There are        9 alpha and        9 beta electrons
 Requested basis set is non-standard
 There are 33 shells and 67 basis functions
 Total memory of 95000 MB is distributed as follows: 
   MEM_STATIC is set to 192 MB
   QALLOC/CCMAN JOB total memory use is  94808 MB
 Warning: actual memory use might exceed 95000 MB

 Total QAlloc Memory Limit  95000 MB
 Mega-Array Size       188 MB
 MEM_STATIC part       192 MB

                       Distance Matrix (Angstroms)
             C (  1)   C (  2)   H (  3)   H (  4)   H (  5)   H (  6)
   C (  2)  1.329000
   H (  3)  1.082000  2.061931
   H (  4)  2.061931  1.082000  2.318160
   H (  5)  1.082000  2.061931  1.924698  3.013026
   H (  6)  2.061931  1.082000  3.013026  1.924698  2.318160
   H (  7)  3.678435  2.349435  4.282542  2.089642  4.282542  2.089642

 
 A cutoff of  1.0D-14 yielded    561 shell pairs
 There are      2337 function pairs (      2484 Cartesian)
 Smallest overlap matrix eigenvalue = 1.08E-04

 Scale SEOQF with 1.000000e-01/1.000000e-01/1.000000e-01

 Standard Electronic Orientation quadrupole field applied
 Nucleus-field energy     =    -0.0000000019 hartrees
 ================ Generating on-the-fly SAD Guess ================
Attempting to make child job directory: /src/jdavis/qchem.scratch/qchem31344//Frg1/
Attempting to make child job directory: /src/jdavis/qchem.scratch/qchem31344//Frg2/
Creating input file /src/jdavis/qchem.scratch/qchem31344/Frg1.input
using default PutDataFrgm: nothing
calling putenv with: QCSCRATCH=/src/jdavis/qchem.scratch/qchem31344/ 
Spawning Job For Fragment 0
Done Job For Fragment 0
calling putenv with: QCSCRATCH=/src/jdavis/qchem.scratch 
calling putenv with: QCTHREADS=1 
Creating input file /src/jdavis/qchem.scratch/qchem31344/Frg2.input
using default PutDataFrgm: nothing
calling putenv with: QCSCRATCH=/src/jdavis/qchem.scratch/qchem31344/ 
Spawning Job For Fragment 1
Done Job For Fragment 1
calling putenv with: QCSCRATCH=/src/jdavis/qchem.scratch 
calling putenv with: QCTHREADS=1 
 Time for running child jobs:  CPU 1.81 s  wall 54.44 s
 ============= Method Specific SAD Guess Constructed =============
 Guess from on-the-fly superposition of atomic densities
 Warning: Energy on first SCF cycle will be non-variational
 A restricted Hartree-Fock SCF calculation will be
 performed using Pulay DIIS extrapolation
 SCF converges when DIIS error is below 1.0E-08
 using 10 threads for integral computing
 -------------------------------------------------------
 OpenMP Integral computing Module                
 Release: version 1.0, May 2013, Q-Chem Inc. Pittsburgh 
 -------------------------------------------------------
 ---------------------------------------
  Cycle       Energy         DIIS Error
 ---------------------------------------
    1     -78.8406513881      7.39E-02
    2     -78.4374090264      7.16E-03
    3     -78.4929104019      2.32E-03
    4     -78.4970103386      8.96E-04
    5     -78.4977839586      2.38E-04
    6     -78.4978726923      7.91E-05
    7     -78.4978866764      3.78E-05
    8     -78.4978895225      6.98E-06
    9     -78.4978896356      1.36E-06
   10     -78.4978896402      2.57E-07
   11     -78.4978896404      5.32E-08
   12     -78.4978896404      1.04E-08
   13     -78.4978896404      1.81E-09 Convergence criterion met
 ---------------------------------------
 SCF time:  CPU 12.82 s  wall 1.29 s
 SCF   energy in the final basis set = -78.49788964
 Total energy in the final basis set = -78.49788964
================================================================================
|                                                                              |
|                                 A D C  M A N                                 |
|                                                                              |
 ------------------------------------------------------------------------------ 
|                                                                              |
| Components:                                                                  |
|                                                                              |
| - libvmm - 1.3-trunk                                                         |
|   Authors:                                                                   |
|   Evgeny Epifanovsky, Ilya Kaliman                                           |
|                                                                              |
| - libtensor - 2.5-trunk                                                      |
|   Authors:                                                                   |
|   Evgeny Epifanovsky, Michael Wormit, Dmitry Zuev, Sam Manzer,               |
|   Ilya Kaliman                                                               |
|                                                                              |
| - libwfa - 1.1-trunk                                                         |
|   Authors:                                                                   |
|   Felix Plasser, Stefanie Mewes (Baeppler), Benjamin Thomitzni,              |
|   Michael Wormit, Feng Chen, Anna I. Krylov, Pavel Pokhilko                  |
|                                                                              |
| - libadc - 1.1-trunk                                                         |
|   Authors:                                                                   |
|   Michael Wormit, Adrian L. Dempwolff, Philipp H. P. Harbach,                |
|   Caroline Krauter, Dirk Rehn, Matthias Schneider, Jan Wenzel                |
|                                                                              |
| - adcman - 2.6-trunk                                                         |
|   Authors:                                                                   |
|   Michael Wormit, Adrian L. Dempwolff, Philipp H. P. Harbach,                |
|   Caroline Krauter, Daniel Lefrancois, Jan-Michael Mewes, Dirk Rehn,         |
|   Matthias Schneider, Jan Wenzel, Andreas Dreuw                              |
|                                                                              |
| Authors of earlier versions of ADCMAN:                                       |
| Andreas Dreuw, Jan Hendrik Starcke, Dirk Rehn, Michael Wormit                |
|                                                                              |
================================================================================

 
 Alpha MOs, Restricted
 -- Occupied --                  
-11.071 -11.066  -0.878  -0.615  -0.497  -0.401  -0.348  -0.215
  1 A1    2 A1    3 A1    4 A1    1 B1    5 A1    2 B1    1 B2                 
 -0.028
  6 A1                                                                         
 -- Virtual --                   
  0.189   0.212   0.219   0.260   0.268   0.272   0.325   0.354
  7 A1    3 B1    2 B2    3 B2    8 A1    4 B1    9 A1    4 B2                 
  0.405   0.408   0.476   0.494   0.503   0.529   0.546   0.581
 10 A1   11 A1    5 B1   12 A1   13 A1    6 B1    5 B2    7 B1                 
  0.602   0.649   0.695   0.779   1.001   1.007   1.088   1.145
 14 A1    6 B2    8 B1   15 A1   16 A1    9 B1   17 A1   18 A1                 
  1.183   1.197   1.274   1.277   1.287   1.345   1.352   1.411
 19 A1   10 B1   20 A1    1 A2   11 B1   21 A1    7 B2    8 B2                 
  1.451   1.464   1.538   1.651   1.774   1.851   1.898   1.899
  2 A2    9 B2   22 A1   12 B1   23 A1   13 B1   10 B2   14 B1                 
  2.022   2.042   2.068   2.114   2.181   2.258   2.274   2.316
 15 B1   11 B2   24 A1   12 B2    3 A2   25 A1   16 B1   26 A1                 
  2.353   2.536   2.577   2.647   2.726   2.752   3.039   3.040
 13 B2   27 A1    4 A2   28 A1   17 B1   29 A1   30 A1   18 B1                 
  3.467   3.521
 31 A1   19 B1                                                                 
 
 Beta MOs, Restricted
 -- Occupied --                  
-11.071 -11.066  -0.878  -0.615  -0.497  -0.401  -0.348  -0.215
  1 A1    2 A1    3 A1    4 A1    1 B1    5 A1    2 B1    1 B2                 
 -0.028
  6 A1                                                                         
 -- Virtual --                   
  0.189   0.212   0.219   0.260   0.268   0.272   0.325   0.354
  7 A1    3 B1    2 B2    3 B2    8 A1    4 B1    9 A1    4 B2                 
  0.405   0.408   0.476   0.494   0.503   0.529   0.546   0.581
 10 A1   11 A1    5 B1   12 A1   13 A1    6 B1    5 B2    7 B1                 
  0.602   0.649   0.695   0.779   1.001   1.007   1.088   1.145
 14 A1    6 B2    8 B1   15 A1   16 A1    9 B1   17 A1   18 A1                 
  1.183   1.197   1.274   1.277   1.287   1.345   1.352   1.411
 19 A1   10 B1   20 A1    1 A2   11 B1   21 A1    7 B2    8 B2                 
  1.451   1.464   1.538   1.651   1.774   1.851   1.898   1.899
  2 A2    9 B2   22 A1   12 B1   23 A1   13 B1   10 B2   14 B1                 
  2.022   2.042   2.068   2.114   2.181   2.258   2.274   2.316
 15 B1   11 B2   24 A1   12 B2    3 A2   25 A1   16 B1   26 A1                 
  2.353   2.536   2.577   2.647   2.726   2.752   3.039   3.040
 13 B2   27 A1    4 A2   28 A1   17 B1   29 A1   30 A1   18 B1                 
  3.467   3.521
 31 A1   19 B1                                                                 

--------------------------------------------------------------------------------
                                   HF Summary                                   
--------------------------------------------------------------------------------
  Energy:                                                  -78.4978896404 a.u.
  Dip. moment [a.u.]:                  [  -0.000000,    0.000000,    4.717795]
  Total dipole [Debye]:                                              11.991441
  <r^2> [a.u.]:                        [  27.206865,   17.218077,  112.679904]
  Total <r^2> [a.u.]:                                               157.104845
--------------------------------------------------------------------------------

--------------------------------------------------------------------------------
                                 MP(2) Summary                                  
--------------------------------------------------------------------------------
  MP energy contribution:                                   -0.3080167697 a.u.
  Total energy:                                            -78.8059064100 a.u.
  Dip. moment [a.u.]:                  [   0.000000,    0.000000,    4.710054]
  Total dipole [Debye]:                                              11.971765
  <r^2> [a.u.]:                        [  27.393020,   17.193198,  112.363084]
  Total <r^2> [a.u.]:                                               156.949302

  Density matrix analysis:
  ------------------------
  NOs
    Occupation of frontier NOs:
       0.0434   1.9375
    Number of electrons: 18.000000
    Number of unpaired electrons: n_u =  0.46728, n_u,nl =  0.05058
    NO participation ratio (PR_NO): 16.591158
  
  
  Mulliken Population Analysis
  Atom      Charge (e)              h+              e-           Del q
  --------------------------------------------------------------------
   1 C       -1.449903        0.131253       -0.123188        0.008065
   2 C        0.198341        0.047617       -0.109914       -0.062297
   3 H        0.074279        0.019800       -0.012092        0.007708
   4 H        0.183200        0.016927       -0.013742        0.003184
   5 H        0.074279        0.019800       -0.012092        0.007708
   6 H        0.183200        0.016927       -0.013742        0.003184
   7 H       -0.263396        0.045995       -0.013549        0.032446
  --------------------------------------------------------------------
  Sum:       -1.000000        0.298319       -0.298319        0.000000
  
  Multipole moment analysis of the density matrix
    Molecular charge:                      -1.000000
    Number of electrons:                   18.000000
      Center of electronic charge [Ang]: [ -0.000000,  -0.000000,  -0.138470]
    Total nuclear charge:                  17.000000
      Center of nuclear charge [Ang]:    [ -0.000000,   0.000000,  -0.000000]
    Dipole moment [D]:                     11.971761
      Cartesian components [D]:          [  0.000000,   0.000000,  11.971761]
    RMS size of the density [Ang]:         1.556441
      Cartesian components [Ang]:        [  0.652807,   0.517182,   1.314867]
  
  Exciton analysis of the difference density matrix
    <r_h> [Ang]:                  [ -0.000000,  -0.000000,  -0.175900]
    <r_e> [Ang]:                  [ -0.000000,  -0.000000,  -0.162168]
    |<r_e - r_h>| [Ang]:            0.013732
    Hole size [Ang]:                1.855943
      Cartesian components [Ang]: [  0.753560,   0.762382,   1.515073]
    Electron size [Ang]:            1.817460
      Cartesian components [Ang]: [  0.861739,   0.746909,   1.415166]
--------------------------------------------------------------------------------

--------------------------------------------------------------------------------
                                 MP(3) Summary                                  
--------------------------------------------------------------------------------
  MP energy contribution:                                   -0.0292633967 a.u.
  Total energy:                                            -78.8351698067 a.u.
--------------------------------------------------------------------------------
  Starting Davidson for singlet states of irrep B2 ... 
--------------------------------------------------------------------------------
   It NVec Conv  Avg. Norm  Max. Norm  Conv. states           Remark
--------------------------------------------------------------------------------
       100    0  9.959e-02  4.153e-01  0.1640 n n n n n n n n Guess.
    1  110    0  4.143e-02  2.257e-01  0.0904 n n n n n n n n 
    2  120    0  2.989e-02  1.584e-01  0.0836 n n n n n n n n 
    3  130    0  2.105e-02  1.554e-01  0.0829 n n n n n n n n 
    4  140    0  1.205e-02  1.004e-01  0.0828 n n n n n n n n 
    5  150    0  9.109e-03  6.269e-02  0.0828 n n n n n n n n 
    6  160    0  3.836e-03  3.028e-02  0.0828 n n n n n n n n 
    7  170    0  1.838e-03  1.299e-02  0.0828 n n n n n n n n 
    8  180    2  8.558e-04  6.258e-03  0.0828 y y n n n n n n 
    9  190    4  4.197e-04  3.528e-03  0.0828 y y y y n n n n 
   10  200    4  2.165e-04  1.949e-03  0.0828 y y y y n n n n 
   11   20    5  9.316e-05  8.515e-04  0.0828 y y y y n n y n Subspace collapsed.
   12   30    6  8.347e-05  7.990e-04  0.0828 y y y y y n y n 
   13   40    6  6.759e-05  6.608e-04  0.0828 y y y y y n y n 
   14   50    7  4.025e-05  3.946e-04  0.0828 y y y y y y y n 
   15   60    7  2.772e-05  2.737e-04  0.0828 y y y y y y y n 
   16   70    7  1.832e-05  1.819e-04  0.0828 y y y y y y y n 
   17   80    8  1.369e-05  1.363e-04  0.0828 y y y y y y y y 
   18   90    9  1.136e-05  1.133e-04  0.0828 y y y y y y y y 
   19  100    9  1.123e-05  1.122e-04  0.0828 y y y y y y y y 
   20  110    9  6.574e-06  6.570e-05  0.0828 y y y y y y y y 
   21  120    9  4.325e-06  4.323e-05  0.0828 y y y y y y y y 
   22  130    9  2.206e-06  2.205e-05  0.0828 y y y y y y y y 
   23  140    9  1.086e-06  1.086e-05  0.0828 y y y y y y y y 
   24  140    9  1.086e-06  1.086e-05  0.0828 y y y y y y y y 
   25  150   10  4.790e-07  4.789e-06  0.0828 y y y y y y y y Converged.
--------------------------------------------------------------------------------
  Davidson Summary: 
 ------------------------------------------------------------
  State  0: excitation energy =   0.0828 a.u.   (converged)
  State  1: excitation energy =   0.1000 a.u.   (converged)
  State  2: excitation energy =   0.1681 a.u.   (converged)
  State  3: excitation energy =   0.2352 a.u.   (converged)
  State  4: excitation energy =   0.2509 a.u.   (converged)
  State  5: excitation energy =   0.2765 a.u.   (converged)
  State  6: excitation energy =   0.2856 a.u.   (converged)
  State  7: excitation energy =   0.3320 a.u.   (converged)
  State  8: excitation energy =   0.3442 a.u.   (converged)
  State  9: excitation energy =   0.3581 a.u.   (converged)
 ------------------------------------------------------------


--------------------------------------------------------------------------------
                   State-averaged natural transition orbitals
--------------------------------------------------------------------------------
--------------------------------------------------------------------------------

--------------------------------------------------------------------------------
                             Excited State Summary
--------------------------------------------------------------------------------
--------------------------------------------------------------------------------

  Excited state 1 (singlet, B2)                                    [converged]
  ----------------------------------------------------------------------------
  Term symbol:  1 (1) B2                                    R^2 =  2.89689e-15

  Total energy:                                            -78.7523416426 a.u.
  Excitation energy:                                               2.253869 eV

  Osc. strength:                                                      0.034955
  Trans. dip. moment [a.u.]:           [   0.000000,   -0.795633,   -0.000000]
  <i|r^2|0> [a.u.]:                    [  -0.000000,   -0.000000,   -0.000000]

  Dip. moment [a.u.]:                  [  -0.000000,    0.000000,   -0.215650]
  Total dipole [Debye]:                                               0.548128
  <r^2> [a.u.]:                        [  27.930900,   24.392180,   93.263264]
  Total <r^2> [a.u.]:                                               145.586344

  V1^2 = 0.8605, V2^2 = 0.1395

  Important amplitudes:
      occ i      occ j       vir a       vir b          v   
    ---------------------------------------------------------
     6 (A1) A               3 (B2) A                  0.5055
     6 (A1) A               2 (B2) A                 -0.3353
    ---------------------------------------------------------

  Density matrix analysis:
  ------------------------
  NOs
    Occupation of frontier NOs:
       0.9868   0.9897
    Number of electrons: 18.000000
    Number of unpaired electrons: n_u =  2.43486, n_u,nl =  2.04930
    NO participation ratio (PR_NO):  3.015200
  
  
  Mulliken Population Analysis
  Atom      Charge (e)              h+              e-           Del q
  --------------------------------------------------------------------
   1 C       -0.715368        1.369054       -0.634519        0.734535
   2 C       -0.622692       -0.315791       -0.505242       -0.821033
   3 H        0.078277        0.011936       -0.007938        0.003998
   4 H        0.087526       -0.002002       -0.093673       -0.095675
   5 H        0.078277        0.011936       -0.007938        0.003998
   6 H        0.087526       -0.002002       -0.093673       -0.095675
   7 H        0.006456        0.362041       -0.092190        0.269851
  --------------------------------------------------------------------
  Sum:       -1.000000        1.435173       -1.435173       -0.000000
  
  Multipole moment analysis of the density matrix
    Molecular charge:                      -1.000000
    Number of electrons:                   18.000000
      Center of electronic charge [Ang]: [  0.000000,  -0.000000,   0.006340]
    Total nuclear charge:                  17.000000
      Center of nuclear charge [Ang]:    [ -0.000000,   0.000000,  -0.000000]
    Dipole moment [D]:                     0.548127
      Cartesian components [D]:          [ -0.000000,   0.000000,  -0.548127]
    RMS size of the density [Ang]:         1.504947
      Cartesian components [Ang]:        [  0.659185,   0.616013,   1.204520]
  
  Exciton analysis of the difference density matrix
    <r_h> [Ang]:                  [ -0.000000,  -0.000000,  -2.182080]
    <r_e> [Ang]:                  [ -0.000000,  -0.000000,  -0.365874]
    |<r_e - r_h>| [Ang]:            1.816207
    Hole size [Ang]:                2.123754
      Cartesian components [Ang]: [  1.009489,   1.034612,   1.555905]
    Electron size [Ang]:            2.630745
      Cartesian components [Ang]: [  1.060197,   1.573238,   1.822560]

  Transition density matrix analysis:
  -----------------------------------
  
  CT numbers (Mulliken)
    omega =     0.8405
    <Phe> =    -0.0151
  
  Exciton analysis of the transition density matrix
    Trans. dipole moment [D]:             1.011148
      Cartesian components [D]:         [  0.000000,  -1.011148,  -0.000000]
    <r_h> [Ang]:                        [ -0.000000,  -0.000000,  -2.784280]
    <r_e> [Ang]:                        [ -0.000000,  -0.000000,   0.085441]
    |<r_e - r_h>| [Ang]:                  2.869721
    Hole size [Ang]:                      1.518710
      Cartesian components [Ang]:       [  0.849038,   0.853117,   0.926179]
    Electron size [Ang]:                  2.650687
      Cartesian components [Ang]:       [  0.987370,   1.697078,   1.780778]
    RMS electron-hole separation [Ang]:   4.190584
      Cartesian components [Ang]:       [  1.302069,   1.899119,   3.501279]
    Covariance(r_h, r_e) [Ang^2]:         0.003466
    Correlation coefficient:              0.000861
    Center-of-mass size [Ang]:            1.528034
      Cartesian components [Ang]:       [  0.651181,   0.949883,   1.004278]

  Decomposition into state-averaged NTOs
    H- 0 -> L+ 0:  0.5962 ( 71.1%)
    H- 0 -> L+ 4: -0.1932 (  7.5%)
    H- 0 -> L+ 3: -0.1606 (  5.2%)
                   omega =  84.0%
  ----------------------------------------------------------------------------


  Excited state 2 (singlet, B2)                                    [converged]
  ----------------------------------------------------------------------------
  Term symbol:  2 (1) B2                                    R^2 =  2.97838e-15

  Total energy:                                            -78.7351828616 a.u.
  Excitation energy:                                               2.720783 eV

  Osc. strength:                                                      0.033766
  Trans. dip. moment [a.u.]:           [  -0.000000,    0.711729,    0.000000]
  <i|r^2|0> [a.u.]:                    [  -0.000000,   -0.000000,   -0.000000]

  Dip. moment [a.u.]:                  [  -0.000000,   -0.000000,   -0.334717]
  Total dipole [Debye]:                                               0.850767
  <r^2> [a.u.]:                        [  32.072944,   38.669599,   90.054407]
  Total <r^2> [a.u.]:                                               160.796949

  V1^2 = 0.8726, V2^2 = 0.1274

  Important amplitudes:
      occ i      occ j       vir a       vir b          v   
    ---------------------------------------------------------
     6 (A1) A               2 (B2) A                 -0.5309
     6 (A1) A               3 (B2) A                 -0.3841
    ---------------------------------------------------------

  Density matrix analysis:
  ------------------------
  NOs
    Occupation of frontier NOs:
       0.9912   0.9916
    Number of electrons: 18.000000
    Number of unpaired electrons: n_u =  2.43072, n_u,nl =  2.05245
    NO participation ratio (PR_NO):  2.984977
  
  
  Mulliken Population Analysis
  Atom      Charge (e)              h+              e-           Del q
  --------------------------------------------------------------------
   1 C       -0.676360        1.483311       -0.709768        0.773543
   2 C       -0.709065       -0.437017       -0.470389       -0.907406
   3 H        0.090869        0.021383       -0.004793        0.016590
   4 H        0.102595       -0.009178       -0.071427       -0.080605
   5 H        0.090869        0.021383       -0.004793        0.016590
   6 H        0.102595       -0.009178       -0.071427       -0.080605
   7 H       -0.001502        0.367519       -0.105625        0.261893
  --------------------------------------------------------------------
  Sum:       -1.000000        1.438222       -1.438222       -0.000000
  
  Multipole moment analysis of the density matrix
    Molecular charge:                      -1.000000
    Number of electrons:                   18.000000
      Center of electronic charge [Ang]: [  0.000000,   0.000000,   0.009840]
    Total nuclear charge:                  17.000000
      Center of nuclear charge [Ang]:    [ -0.000000,   0.000000,  -0.000000]
    Dipole moment [D]:                     0.850766
      Cartesian components [D]:          [ -0.000000,  -0.000000,  -0.850766]
    RMS size of the density [Ang]:         1.581595
      Cartesian components [Ang]:        [  0.706373,   0.775621,   1.183593]
  
  Exciton analysis of the difference density matrix
    <r_h> [Ang]:                  [ -0.000000,  -0.000000,  -2.150714]
    <r_e> [Ang]:                  [ -0.000000,   0.000000,  -0.294549]
    |<r_e - r_h>| [Ang]:            1.856165
    Hole size [Ang]:                2.192215
      Cartesian components [Ang]: [  1.016526,   1.021417,   1.652026]
    Electron size [Ang]:            3.177070
      Cartesian components [Ang]: [  1.394463,   2.285793,   1.710087]

  Transition density matrix analysis:
  -----------------------------------
  
  CT numbers (Mulliken)
    omega =     0.8600
    <Phe> =    -0.0057
  
  Exciton analysis of the transition density matrix
    Trans. dipole moment [D]:             0.904517
      Cartesian components [D]:         [ -0.000000,   0.904517,   0.000000]
    <r_h> [Ang]:                        [ -0.000000,  -0.000000,  -2.812625]
    <r_e> [Ang]:                        [ -0.000000,   0.000000,   0.174037]
    |<r_e - r_h>| [Ang]:                  2.986662
    Hole size [Ang]:                      1.499462
      Cartesian components [Ang]:       [  0.853366,   0.858333,   0.885109]
    Electron size [Ang]:                  3.479634
      Cartesian components [Ang]:       [  1.545991,   2.677841,   1.595912]
    RMS electron-hole separation [Ang]:   4.823052
      Cartesian components [Ang]:       [  1.765859,   2.812052,   3.497991]
    Covariance(r_h, r_e) [Ang^2]:         0.007281
    Correlation coefficient:              0.001395
    Center-of-mass size [Ang]:            1.895442
      Cartesian components [Ang]:       [  0.882948,   1.406014,   0.914456]

  Decomposition into state-averaged NTOs
    H- 0 -> L+ 3:  0.6054 ( 73.3%)
    H- 0 -> L+ 4: -0.2355 ( 11.1%)
    H- 0 -> L+ 0:  0.0863 (  1.5%)
                   omega =  86.0%
  ----------------------------------------------------------------------------


  Excited state 3 (singlet, B2)                                    [converged]
  ----------------------------------------------------------------------------
  Term symbol:  3 (1) B2                                    R^2 =  1.83876e-13

  Total energy:                                            -78.6670660231 a.u.
  Excitation energy:                                               4.574337 eV

  Osc. strength:                                                      0.093259
  Trans. dip. moment [a.u.]:           [  -0.000000,    0.912226,   -0.000000]
  <i|r^2|0> [a.u.]:                    [  -0.000000,   -0.000000,   -0.000000]

  Dip. moment [a.u.]:                  [  -0.000000,   -0.000000,   -0.269708]
  Total dipole [Debye]:                                               0.685529
  <r^2> [a.u.]:                        [  29.927377,   30.613899,   98.616588]
  Total <r^2> [a.u.]:                                               159.157864

  V1^2 = 0.8372, V2^2 = 0.1628

  Important amplitudes:
      occ i      occ j       vir a       vir b          v   
    ---------------------------------------------------------
     6 (A1) A               4 (B2) A                  0.5838
     6 (A1) A               2 (B2) A                  0.1962
    ---------------------------------------------------------

  Density matrix analysis:
  ------------------------
  NOs
    Occupation of frontier NOs:
       0.9611   0.9864
    Number of electrons: 18.000000
    Number of unpaired electrons: n_u =  2.49704, n_u,nl =  2.07929
    NO participation ratio (PR_NO):  3.249848
  
  
  Mulliken Population Analysis
  Atom      Charge (e)              h+              e-           Del q
  --------------------------------------------------------------------
   1 C       -0.655344        1.405259       -0.610700        0.794559
   2 C       -0.684978       -0.345965       -0.537353       -0.883319
   3 H        0.073181        0.007883       -0.008980       -0.001098
   4 H        0.085217       -0.005823       -0.092160       -0.097983
   5 H        0.073181        0.007883       -0.008980       -0.001098
   6 H        0.085217       -0.005823       -0.092160       -0.097983
   7 H        0.023525        0.376496       -0.089575        0.286920
  --------------------------------------------------------------------
  Sum:       -1.000000        1.439909       -1.439909       -0.000000
  
  Multipole moment analysis of the density matrix
    Molecular charge:                      -1.000000
    Number of electrons:                   18.000000
      Center of electronic charge [Ang]: [  0.000000,   0.000000,   0.007929]
    Total nuclear charge:                  17.000000
      Center of nuclear charge [Ang]:    [ -0.000000,   0.000000,  -0.000000]
    Dipole moment [D]:                     0.685529
      Cartesian components [D]:          [ -0.000000,  -0.000000,  -0.685529]
    RMS size of the density [Ang]:         1.573524
      Cartesian components [Ang]:        [  0.682337,   0.690119,   1.238600]
  
  Exciton analysis of the difference density matrix
    <r_h> [Ang]:                  [ -0.000000,  -0.000000,  -2.193034]
    <r_e> [Ang]:                  [ -0.000000,   0.000000,  -0.362934]
    |<r_e - r_h>| [Ang]:            1.830099
    Hole size [Ang]:                2.094366
      Cartesian components [Ang]: [  0.988701,   1.015059,   1.542238]
    Electron size [Ang]:            3.081162
      Cartesian components [Ang]: [  1.212602,   1.907972,   2.093514]

  Transition density matrix analysis:
  -----------------------------------
  
  CT numbers (Mulliken)
    omega =     0.8204
    <Phe> =    -0.0086
  
  Exciton analysis of the transition density matrix
    Trans. dipole moment [D]:             1.159323
      Cartesian components [D]:         [ -0.000000,   1.159323,  -0.000000]
    <r_h> [Ang]:                        [ -0.000000,  -0.000000,  -2.794839]
    <r_e> [Ang]:                        [ -0.000000,   0.000000,   0.156645]
    |<r_e - r_h>| [Ang]:                  2.951483
    Hole size [Ang]:                      1.513347
      Cartesian components [Ang]:       [  0.850556,   0.855480,   0.913743]
    Electron size [Ang]:                  3.335277
      Cartesian components [Ang]:       [  1.252206,   2.162081,   2.209401]
    RMS electron-hole separation [Ang]:   4.702464
      Cartesian components [Ang]:       [  1.513690,   2.324630,   3.797105]
    Covariance(r_h, r_e) [Ang^2]:         0.006188
    Correlation coefficient:              0.001226
    Center-of-mass size [Ang]:            1.832121
      Cartesian components [Ang]:       [  0.756913,   1.162861,   1.196454]

  Decomposition into state-averaged NTOs
    H- 0 -> L+ 4:  0.5700 ( 65.0%)
    H- 0 -> L+ 0:  0.2158 (  9.3%)
    H- 0 -> L+ 3:  0.1936 (  7.5%)
                   omega =  82.0%
  ----------------------------------------------------------------------------


  Excited state 4 (singlet, B2)                                    [converged]
  ----------------------------------------------------------------------------
  Term symbol:  4 (1) B2                                    R^2 =  3.86783e-13

  Total energy:                                            -78.5999478049 a.u.
  Excitation energy:                                               6.400716 eV

  Osc. strength:                                                      0.080883
  Trans. dip. moment [a.u.]:           [  -0.000000,    0.718183,    0.000000]
  <i|r^2|0> [a.u.]:                    [   0.000000,    0.000000,   -0.000000]

  Dip. moment [a.u.]:                  [  -0.000000,   -0.000000,    0.705550]
  Total dipole [Debye]:                                               1.793330
  <r^2> [a.u.]:                        [  32.546280,   21.448945,  133.707913]
  Total <r^2> [a.u.]:                                               187.703138

  V1^2 = 0.9358, V2^2 = 0.0642

  Important amplitudes:
      occ i      occ j       vir a       vir b          v   
    ---------------------------------------------------------
     1 (B2) A               7 (A1) A                 -0.6393
     1 (B2) A               8 (A1) A                 -0.2092
    ---------------------------------------------------------

  Density matrix analysis:
  ------------------------
  NOs
    Occupation of frontier NOs:
       0.9844   0.9910
    Number of electrons: 18.000000
    Number of unpaired electrons: n_u =  2.36709, n_u,nl =  2.03199
    NO participation ratio (PR_NO):  2.859294
  
  
  Mulliken Population Analysis
  Atom      Charge (e)              h+              e-           Del q
  --------------------------------------------------------------------
   1 C       -1.112269        0.693141       -0.355506        0.337635
   2 C       -0.456516        0.392692       -1.047549       -0.654857
   3 H        0.184558        0.120501       -0.010221        0.110279
   4 H        0.249057        0.057420        0.008437        0.065857
   5 H        0.184558        0.120501       -0.010221        0.110279
   6 H        0.249057        0.057420        0.008437        0.065857
   7 H       -0.298446        0.012246       -0.047297       -0.035050
  --------------------------------------------------------------------
  Sum:       -1.000000        1.453921       -1.453921       -0.000000
  
  Multipole moment analysis of the density matrix
    Molecular charge:                      -1.000000
    Number of electrons:                   18.000000
      Center of electronic charge [Ang]: [  0.000000,   0.000000,  -0.020742]
    Total nuclear charge:                  17.000000
      Center of nuclear charge [Ang]:    [ -0.000000,   0.000000,  -0.000000]
    Dipole moment [D]:                     1.793329
      Cartesian components [D]:          [ -0.000000,  -0.000000,   1.793329]
    RMS size of the density [Ang]:         1.708711
      Cartesian components [Ang]:        [  0.711567,   0.577654,   1.442110]
  
  Exciton analysis of the difference density matrix
    <r_h> [Ang]:                  [ -0.000000,  -0.000000,   0.209020]
    <r_e> [Ang]:                  [  0.000000,  -0.000000,   1.666521]
    |<r_e - r_h>| [Ang]:            1.457502
    Hole size [Ang]:                1.831401
      Cartesian components [Ang]: [  0.831022,   0.921360,   1.347044]
    Electron size [Ang]:            2.558063
      Cartesian components [Ang]: [  1.297354,   1.291732,   1.786614]

  Transition density matrix analysis:
  -----------------------------------
  
  CT numbers (Mulliken)
    omega =     0.9053
    <Phe> =    -0.0090
  
  Exciton analysis of the transition density matrix
    Trans. dipole moment [D]:             0.912719
      Cartesian components [D]:         [ -0.000000,   0.912719,   0.000000]
    <r_h> [Ang]:                        [ -0.000000,   0.000000,   0.284197]
    <r_e> [Ang]:                        [  0.000000,   0.000000,   2.474371]
    |<r_e - r_h>| [Ang]:                  2.190174
    Hole size [Ang]:                      1.280355
      Cartesian components [Ang]:       [  0.522820,   0.886444,   0.761698]
    Electron size [Ang]:                  2.480817
      Cartesian components [Ang]:       [  1.485538,   1.500075,   1.302844]
    RMS electron-hole separation [Ang]:   3.542408
      Cartesian components [Ang]:       [  1.574171,   1.733564,   2.658081]
    Covariance(r_h, r_e) [Ang^2]:         0.020983
    Correlation coefficient:              0.006606
    Center-of-mass size [Ang]:            1.399618
      Cartesian components [Ang]:       [  0.787768,   0.875610,   0.756082]

  Decomposition into state-averaged NTOs
    H- 1 -> L+ 1:  0.5053 ( 51.1%)
    H- 1 -> L+ 2:  0.4436 ( 39.4%)
                   omega =  90.5%
  ----------------------------------------------------------------------------


  Excited state 5 (singlet, B2)                                    [converged]
  ----------------------------------------------------------------------------
  Term symbol:  5 (1) B2                                    R^2 =  1.90590e-11

  Total energy:                                            -78.5843145763 a.u.
  Excitation energy:                                               6.826118 eV

  Osc. strength:                                                      0.000081
  Trans. dip. moment [a.u.]:           [  -0.000000,   -0.022035,   -0.000000]
  <i|r^2|0> [a.u.]:                    [  -0.000000,   -0.000000,   -0.000000]

  Dip. moment [a.u.]:                  [   0.000000,    0.000000,    1.012648]
  Total dipole [Debye]:                                               2.573894
  <r^2> [a.u.]:                        [  31.054438,   32.543700,   99.022200]
  Total <r^2> [a.u.]:                                               162.620337

  V1^2 = 0.0169, V2^2 = 0.9831

  Important amplitudes:
      occ i      occ j       vir a       vir b          v   
    ---------------------------------------------------------
     6 (A1) A   1 (B2) B    3 (B2) A    3 (B2) B      0.2015
     6 (A1) A   1 (B2) B    4 (B2) A    3 (B2) B      0.1866
    ---------------------------------------------------------

  Density matrix analysis:
  ------------------------
  NOs
    Occupation of frontier NOs:
       0.9663   0.9743
    Number of electrons: 18.000000
    Number of unpaired electrons: n_u =  2.96195, n_u,nl =  2.60658
    NO participation ratio (PR_NO):  4.185519
  
  
  Mulliken Population Analysis
  Atom      Charge (e)              h+              e-           Del q
  --------------------------------------------------------------------
   1 C       -0.808365        1.093265       -0.451726        0.641538
   2 C       -1.049795        0.269198       -1.517334       -1.248137
   3 H        0.073911        0.007204       -0.007572       -0.000368
   4 H        0.175279       -0.000832       -0.007089       -0.007921
   5 H        0.073911        0.007204       -0.007572       -0.000368
   6 H        0.175279       -0.000832       -0.007089       -0.007921
   7 H        0.359781        0.627813       -0.004636        0.623176
  --------------------------------------------------------------------
  Sum:       -1.000000        2.003019       -2.003019       -0.000000
  
  Multipole moment analysis of the density matrix
    Molecular charge:                      -1.000000
    Number of electrons:                   18.000000
      Center of electronic charge [Ang]: [ -0.000000,  -0.000000,  -0.029771]
    Total nuclear charge:                  17.000000
      Center of nuclear charge [Ang]:    [ -0.000000,   0.000000,  -0.000000]
    Dipole moment [D]:                     2.573893
      Cartesian components [D]:          [  0.000000,   0.000000,   2.573893]
    RMS size of the density [Ang]:         1.590290
      Cartesian components [Ang]:        [  0.695067,   0.711538,   1.240813]
  
  Exciton analysis of the difference density matrix
    <r_h> [Ang]:                  [  0.000000,   0.000000,  -1.278348]
    <r_e> [Ang]:                  [ -0.000000,  -0.000000,  -0.301531]
    |<r_e - r_h>| [Ang]:            0.976817
    Hole size [Ang]:                2.071867
      Cartesian components [Ang]: [  0.697939,   0.865580,   1.748224]
    Electron size [Ang]:            2.574629
      Cartesian components [Ang]: [  0.999499,   1.701552,   1.653615]

  Transition density matrix analysis:
  -----------------------------------
  
  CT numbers (Mulliken)
    omega =     0.0177
    <Phe> =     0.0130
  
  Exciton analysis of the transition density matrix
    Trans. dipole moment [D]:             0.028003
      Cartesian components [D]:         [ -0.000000,  -0.028003,  -0.000000]
    <r_h> [Ang]:                        [ -0.000000,  -0.000000,  -1.743224]
    <r_e> [Ang]:                        [ -0.000000,   0.000000,  -0.002465]
    |<r_e - r_h>| [Ang]:                  1.740759
    Hole size [Ang]:                      2.015492
      Cartesian components [Ang]:       [  0.746347,   0.819619,   1.683271]
    Electron size [Ang]:                  2.500826
      Cartesian components [Ang]:       [  0.948496,   1.432843,   1.816989]
    RMS electron-hole separation [Ang]:   3.831421
      Cartesian components [Ang]:       [  1.206618,   1.635730,   3.247806]
    Covariance(r_h, r_e) [Ang^2]:        -0.666601
    Correlation coefficient:             -0.132252
    Center-of-mass size [Ang]:            1.498594
      Cartesian components [Ang]:       [  0.603620,   0.832769,   1.089919]

  Decomposition into state-averaged NTOs
                   omega =   1.8%
  ----------------------------------------------------------------------------


  Excited state 6 (singlet, B2)                                    [converged]
  ----------------------------------------------------------------------------
  Term symbol:  6 (1) B2                                    R^2 =  1.63271e-10

  Total energy:                                            -78.5586704966 a.u.
  Excitation energy:                                               7.523929 eV

  Osc. strength:                                                      0.000349
  Trans. dip. moment [a.u.]:           [  -0.000000,    0.043509,   -0.000000]
  <i|r^2|0> [a.u.]:                    [  -0.000000,   -0.000000,   -0.000000]

  Dip. moment [a.u.]:                  [   0.000000,    0.000000,   -2.043802]
  Total dipole [Debye]:                                               5.194827
  <r^2> [a.u.]:                        [  33.341804,   39.180715,   94.900699]
  Total <r^2> [a.u.]:                                               167.423218

  V1^2 = 0.0294, V2^2 = 0.9706

  Important amplitudes:
      occ i      occ j       vir a       vir b          v   
    ---------------------------------------------------------
     6 (A1) A   1 (B2) B    4 (B2) A    2 (B2) B      0.2038
     6 (A1) A   1 (B2) B    3 (B2) A    2 (B2) B      0.1299
    ---------------------------------------------------------

  Density matrix analysis:
  ------------------------
  NOs
    Occupation of frontier NOs:
       0.9640   0.9764
    Number of electrons: 18.000000
    Number of unpaired electrons: n_u =  3.74184, n_u,nl =  3.68482
    NO participation ratio (PR_NO):  4.877976
  
  
  Mulliken Population Analysis
  Atom      Charge (e)              h+              e-           Del q
  --------------------------------------------------------------------
   1 C       -1.652836        1.131887       -1.334820       -0.202933
   2 C       -0.181698        0.232132       -0.612171       -0.380039
   3 H        0.070183        0.004667       -0.008763       -0.004096
   4 H        0.169353        0.000037       -0.013884       -0.013848
   5 H        0.070183        0.004667       -0.008763       -0.004096
   6 H        0.169353        0.000037       -0.013884       -0.013848
   7 H        0.355464        0.619956       -0.001097        0.618859
  --------------------------------------------------------------------
  Sum:       -1.000000        1.993382       -1.993382       -0.000000
  
  Multipole moment analysis of the density matrix
    Molecular charge:                      -1.000000
    Number of electrons:                   18.000000
      Center of electronic charge [Ang]: [ -0.000000,  -0.000000,   0.060085]
    Total nuclear charge:                  17.000000
      Center of nuclear charge [Ang]:    [ -0.000000,   0.000000,  -0.000000]
    Dipole moment [D]:                     5.194825
      Cartesian components [D]:          [  0.000000,   0.000000,  -5.194825]
    RMS size of the density [Ang]:         1.612767
      Cartesian components [Ang]:        [  0.720210,   0.780730,   1.213579]
  
  Exciton analysis of the difference density matrix
    <r_h> [Ang]:                  [  0.000000,  -0.000000,  -1.265331]
    <r_e> [Ang]:                  [ -0.000000,  -0.000000,   0.527595]
    |<r_e - r_h>| [Ang]:            1.792926
    Hole size [Ang]:                2.089573
      Cartesian components [Ang]: [  0.704705,   0.882757,   1.757966]
    Electron size [Ang]:            2.675889
      Cartesian components [Ang]: [  1.154248,   1.966735,   1.400017]

  Transition density matrix analysis:
  -----------------------------------
  
  CT numbers (Mulliken)
    omega =     0.0290
    <Phe> =    -0.0056
  
  Exciton analysis of the transition density matrix
    Trans. dipole moment [D]:             0.055294
      Cartesian components [D]:         [ -0.000000,   0.055294,  -0.000000]
    <r_h> [Ang]:                        [ -0.000000,  -0.000000,  -2.147834]
    <r_e> [Ang]:                        [ -0.000000,   0.000000,   0.175496]
    |<r_e - r_h>| [Ang]:                  2.323330
    Hole size [Ang]:                      1.898806
      Cartesian components [Ang]:       [  0.812305,   0.827915,   1.503389]
    Electron size [Ang]:                  3.016718
      Cartesian components [Ang]:       [  1.166717,   1.909407,   2.023246]
    RMS electron-hole separation [Ang]:   4.200765
      Cartesian components [Ang]:       [  1.421428,   2.080432,   3.361216]
    Covariance(r_h, r_e) [Ang^2]:         0.228744
    Correlation coefficient:              0.039933
    Center-of-mass size [Ang]:            1.814080
      Cartesian components [Ang]:       [  0.710929,   1.040956,   1.304559]

  Decomposition into state-averaged NTOs
                   omega =   2.9%
  ----------------------------------------------------------------------------


  Excited state 7 (singlet, B2)                                    [converged]
  ----------------------------------------------------------------------------
  Term symbol:  7 (1) B2                                    R^2 =  1.63941e-11

  Total energy:                                            -78.5495246471 a.u.
  Excitation energy:                                               7.772800 eV

  Osc. strength:                                                      0.136499
  Trans. dip. moment [a.u.]:           [   0.000000,    0.846637,    0.000000]
  <i|r^2|0> [a.u.]:                    [   0.000000,    0.000000,   -0.000000]

  Dip. moment [a.u.]:                  [   0.000000,    0.000000,    3.347549]
  Total dipole [Debye]:                                               8.508622
  <r^2> [a.u.]:                        [  33.632189,   22.048491,  122.160028]
  Total <r^2> [a.u.]:                                               177.840707

  V1^2 = 0.9271, V2^2 = 0.0729

  Important amplitudes:
      occ i      occ j       vir a       vir b          v   
    ---------------------------------------------------------
     1 (B2) A               8 (A1) A                 -0.6158
     1 (B2) A               7 (A1) A                  0.2123
    ---------------------------------------------------------

  Density matrix analysis:
  ------------------------
  NOs
    Occupation of frontier NOs:
       0.9754   0.9811
    Number of electrons: 18.000000
    Number of unpaired electrons: n_u =  2.39023, n_u,nl =  2.03694
    NO participation ratio (PR_NO):  2.969403
  
  
  Mulliken Population Analysis
  Atom      Charge (e)              h+              e-           Del q
  --------------------------------------------------------------------
   1 C       -5.897705        0.473175       -4.920977       -4.447801
   2 C        4.390654        0.598464        3.593849        4.192313
   3 H        0.163090        0.093046       -0.004235        0.088811
   4 H        0.237691        0.068011       -0.013520        0.054491
   5 H        0.163090        0.093046       -0.004235        0.088811
   6 H        0.237691        0.068011       -0.013520        0.054491
   7 H       -0.294510        0.012380       -0.043495       -0.031115
  --------------------------------------------------------------------
  Sum:       -1.000000        1.406133       -1.406133        0.000000
  
  Multipole moment analysis of the density matrix
    Molecular charge:                      -1.000000
    Number of electrons:                   18.000000
      Center of electronic charge [Ang]: [ -0.000000,  -0.000000,  -0.098414]
    Total nuclear charge:                  17.000000
      Center of nuclear charge [Ang]:    [ -0.000000,   0.000000,  -0.000000]
    Dipole moment [D]:                     8.508620
      Cartesian components [D]:          [  0.000000,   0.000000,   8.508620]
    RMS size of the density [Ang]:         1.660424
      Cartesian components [Ang]:        [  0.723340,   0.585672,   1.375055]
  
  Exciton analysis of the difference density matrix
    <r_h> [Ang]:                  [ -0.000000,   0.000000,   0.092262]
    <r_e> [Ang]:                  [ -0.000000,  -0.000000,   0.605020]
    |<r_e - r_h>| [Ang]:            0.512759
    Hole size [Ang]:                1.787854
      Cartesian components [Ang]: [  0.819172,   0.924774,   1.292353]
    Electron size [Ang]:            2.645632
      Cartesian components [Ang]: [  1.383315,   1.349862,   1.806566]

  Transition density matrix analysis:
  -----------------------------------
  
  CT numbers (Mulliken)
    omega =     0.8972
    <Phe> =    -0.0141
  
  Exciton analysis of the transition density matrix
    Trans. dipole moment [D]:             1.075969
      Cartesian components [D]:         [  0.000000,   1.075969,   0.000000]
    <r_h> [Ang]:                        [ -0.000000,   0.000000,   0.268455]
    <r_e> [Ang]:                        [ -0.000000,  -0.000000,   0.891185]
    |<r_e - r_h>| [Ang]:                  0.622730
    Hole size [Ang]:                      1.282395
      Cartesian components [Ang]:       [  0.522895,   0.886345,   0.765186]
    Electron size [Ang]:                  2.902265
      Cartesian components [Ang]:       [  1.567053,   1.539613,   1.896596]
    RMS electron-hole separation [Ang]:   3.220750
      Cartesian components [Ang]:       [  1.651028,   1.767695,   2.126638]
    Covariance(r_h, r_e) [Ang^2]:         0.041120
    Correlation coefficient:              0.011048
    Center-of-mass size [Ang]:            1.592947
      Cartesian components [Ang]:       [  0.826477,   0.892648,   1.028394]

  Decomposition into state-averaged NTOs
    H- 1 -> L+ 2:  0.5004 ( 50.1%)
    H- 1 -> L+ 1: -0.4390 ( 38.5%)
                   omega =  89.7%
  ----------------------------------------------------------------------------


  Excited state 8 (singlet, B2)                                    [converged]
  ----------------------------------------------------------------------------
  Term symbol:  8 (1) B2                                    R^2 =  2.50715e-08

  Total energy:                                            -78.5031760948 a.u.
  Excitation energy:                                               9.034008 eV

  Osc. strength:                                                      0.000004
  Trans. dip. moment [a.u.]:           [   0.000000,   -0.004025,    0.000000]
  <i|r^2|0> [a.u.]:                    [  -0.000000,   -0.000000,   -0.000000]

  Dip. moment [a.u.]:                  [   0.000000,    0.000000,    0.199581]
  Total dipole [Debye]:                                               0.507283
  <r^2> [a.u.]:                        [  42.827548,   32.529129,  106.119737]
  Total <r^2> [a.u.]:                                               181.476414

  V1^2 = 0.0193, V2^2 = 0.9807

  Important amplitudes:
      occ i      occ j       vir a       vir b          v   
    ---------------------------------------------------------
     6 (A1) A   1 (B2) B    8 (A1) A    8 (A1) B     -0.1617
     6 (A1) A   1 (B2) B    7 (A1) A    8 (A1) B     -0.1351
    ---------------------------------------------------------

  Density matrix analysis:
  ------------------------
  NOs
    Occupation of frontier NOs:
       0.9603   0.9740
    Number of electrons: 18.000000
    Number of unpaired electrons: n_u =  3.43193, n_u,nl =  3.03080
    NO participation ratio (PR_NO):  5.099580
  
  
  Mulliken Population Analysis
  Atom      Charge (e)              h+              e-           Del q
  --------------------------------------------------------------------
   1 C       -3.990105        1.174206       -3.714407       -2.540201
   2 C        2.039836        0.165159        1.676336        1.841495
   3 H        0.128374        0.005348        0.048747        0.054096
   4 H        0.209975       -0.002742        0.029518        0.026775
   5 H        0.128374        0.005348        0.048747        0.054096
   6 H        0.209975       -0.002742        0.029518        0.026775
   7 H        0.273569        0.637530       -0.100565        0.536964
  --------------------------------------------------------------------
  Sum:       -1.000000        1.982106       -1.982106        0.000000
  
  Multipole moment analysis of the density matrix
    Molecular charge:                      -1.000000
    Number of electrons:                   18.000000
      Center of electronic charge [Ang]: [ -0.000000,  -0.000000,  -0.005867]
    Total nuclear charge:                  17.000000
      Center of nuclear charge [Ang]:    [ -0.000000,   0.000000,  -0.000000]
    Dipole moment [D]:                     0.507283
      Cartesian components [D]:          [  0.000000,   0.000000,   0.507283]
    RMS size of the density [Ang]:         1.680244
      Cartesian components [Ang]:        [  0.816256,   0.711379,   1.284868]
  
  Exciton analysis of the difference density matrix
    <r_h> [Ang]:                  [  0.000000,  -0.000000,  -1.295743]
    <r_e> [Ang]:                  [ -0.000000,  -0.000000,  -0.091549]
    |<r_e - r_h>| [Ang]:            1.204194
    Hole size [Ang]:                2.068573
      Cartesian components [Ang]: [  0.691174,   0.856531,   1.751464]
    Electron size [Ang]:            3.068340
      Cartesian components [Ang]: [  1.630425,   1.703020,   1.963707]

  Transition density matrix analysis:
  -----------------------------------
  
  CT numbers (Mulliken)
    omega =     0.0190
    <Phe> =    -0.0015
  
  Exciton analysis of the transition density matrix
    Trans. dipole moment [D]:             0.005116
      Cartesian components [D]:         [  0.000000,  -0.005116,   0.000000]
    <r_h> [Ang]:                        [ -0.000000,  -0.000000,  -2.450743]
    <r_e> [Ang]:                        [  0.000000,  -0.000000,   0.369484]
    |<r_e - r_h>| [Ang]:                  2.820227
    Hole size [Ang]:                      1.771330
      Cartesian components [Ang]:       [  0.819555,   0.856546,   1.316158]
    Electron size [Ang]:                  3.051463
      Cartesian components [Ang]:       [  1.402829,   2.276693,   1.469750]
    RMS electron-hole separation [Ang]:   4.478190
      Cartesian components [Ang]:       [  1.624565,   2.427728,   3.394276]
    Covariance(r_h, r_e) [Ang^2]:         0.174268
    Correlation coefficient:              0.032241
    Center-of-mass size [Ang]:            1.788685
      Cartesian components [Ang]:       [  0.812402,   1.218620,   1.026821]

  Decomposition into state-averaged NTOs
    H- 0 -> L+ 6: -0.0864 (  1.5%)
                   omega =   1.9%
  ----------------------------------------------------------------------------


  Excited state 9 (singlet, B2)                                    [converged]
  ----------------------------------------------------------------------------
  Term symbol:  9 (1) B2                                    R^2 =  8.96171e-08

  Total energy:                                            -78.4910188252 a.u.
  Excitation energy:                                               9.364824 eV

  Osc. strength:                                                      0.000354
  Trans. dip. moment [a.u.]:           [  -0.000000,    0.039262,   -0.000000]
  <i|r^2|0> [a.u.]:                    [  -0.000000,    0.000000,    0.000000]

  Dip. moment [a.u.]:                  [   0.000000,    0.000000,    4.138103]
  Total dipole [Debye]:                                              10.518010
  <r^2> [a.u.]:                        [  27.608791,   20.766816,  111.774524]
  Total <r^2> [a.u.]:                                               160.150132

  V1^2 = 0.8975, V2^2 = 0.1025

  Important amplitudes:
      occ i      occ j       vir a       vir b          v   
    ---------------------------------------------------------
     5 (A1) A               4 (B2) A                  0.4518
     5 (A1) A               3 (B2) A                  0.3544
    ---------------------------------------------------------

  Density matrix analysis:
  ------------------------
  NOs
    Occupation of frontier NOs:
       0.9771   1.0639
    Number of electrons: 18.000000
    Number of unpaired electrons: n_u =  2.53450, n_u,nl =  2.09910
    NO participation ratio (PR_NO):  3.453250
  
  
  Mulliken Population Analysis
  Atom      Charge (e)              h+              e-           Del q
  --------------------------------------------------------------------
   1 C       -1.608209        0.441119       -0.599424       -0.158306
   2 C        0.113145        0.428926       -0.514122       -0.085196
   3 H        0.130677        0.066728       -0.010331        0.056398
   4 H        0.231684        0.061342       -0.012858        0.048484
   5 H        0.130677        0.066728       -0.010331        0.056398
   6 H        0.231684        0.061342       -0.012858        0.048484
   7 H       -0.229657        0.049456       -0.015717        0.033739
  --------------------------------------------------------------------
  Sum:       -1.000000        1.175641       -1.175641        0.000000
  
  Multipole moment analysis of the density matrix
    Molecular charge:                      -1.000000
    Number of electrons:                   18.000000
      Center of electronic charge [Ang]: [ -0.000000,  -0.000000,  -0.121655]
    Total nuclear charge:                  17.000000
      Center of nuclear charge [Ang]:    [ -0.000000,   0.000000,  -0.000000]
    Dipole moment [D]:                     10.518007
      Cartesian components [D]:          [  0.000000,   0.000000,  10.518007]
    RMS size of the density [Ang]:         1.573747
      Cartesian components [Ang]:        [  0.655373,   0.568394,   1.313047]
  
  Exciton analysis of the difference density matrix
    <r_h> [Ang]:                  [ -0.000000,   0.000000,  -0.119390]
    <r_e> [Ang]:                  [ -0.000000,  -0.000000,   0.138055]
    |<r_e - r_h>| [Ang]:            0.257446
    Hole size [Ang]:                1.642747
      Cartesian components [Ang]: [  0.700566,   0.571078,   1.371749]
    Electron size [Ang]:            1.859093
      Cartesian components [Ang]: [  0.736334,   1.085052,   1.317839]

  Transition density matrix analysis:
  -----------------------------------
  
  CT numbers (Mulliken)
    omega =     0.8680
    <Phe> =    -0.0172
  
  Exciton analysis of the transition density matrix
    Trans. dipole moment [D]:             0.049898
      Cartesian components [D]:         [ -0.000000,   0.049898,  -0.000000]
    <r_h> [Ang]:                        [ -0.000000,  -0.000000,   0.039724]
    <r_e> [Ang]:                        [ -0.000000,  -0.000000,   0.223446]
    |<r_e - r_h>| [Ang]:                  0.183723
    Hole size [Ang]:                      1.319960
      Cartesian components [Ang]:       [  0.599385,   0.425362,   1.096403]
    Electron size [Ang]:                  1.799069
      Cartesian components [Ang]:       [  0.682096,   1.105590,   1.244614]
    RMS electron-hole separation [Ang]:   2.220187
      Cartesian components [Ang]:       [  0.908514,   1.183143,   1.644385]
    Covariance(r_h, r_e) [Ang^2]:         0.041733
    Correlation coefficient:              0.017574
    Center-of-mass size [Ang]:            1.124990
      Cartesian components [Ang]:       [  0.453772,   0.593021,   0.841439]

  Decomposition into state-averaged NTOs
    H- 2 -> L+ 0: -0.6500 ( 84.5%)
    H- 1 -> L+ 5:  0.0733 (  1.1%)
                   omega =  86.8%
  ----------------------------------------------------------------------------


  Excited state 10 (singlet, B2)                                    [converged]
  ----------------------------------------------------------------------------
  Term symbol:  10 (1) B2                                   R^2 =  4.78928e-06

  Total energy:                                            -78.4770346584 a.u.
  Excitation energy:                                               9.745353 eV

  Osc. strength:                                                      0.019425
  Trans. dip. moment [a.u.]:           [  -0.000000,    0.285234,   -0.000000]
  <i|r^2|0> [a.u.]:                    [   0.000000,   -0.000000,    0.000000]

  Dip. moment [a.u.]:                  [   0.000000,    0.000000,    3.100952]
  Total dipole [Debye]:                                               7.881835
  <r^2> [a.u.]:                        [  38.192360,   25.038130,  121.045029]
  Total <r^2> [a.u.]:                                               184.275519

  V1^2 = 0.6430, V2^2 = 0.3570

  Important amplitudes:
      occ i      occ j       vir a       vir b          v   
    ---------------------------------------------------------
     1 (B2) A               9 (A1) A                 -0.4948
     1 (B2) A              11 (A1) A                  0.2132
    ---------------------------------------------------------

  Density matrix analysis:
  ------------------------
  NOs
    Occupation of frontier NOs:
       0.7571   0.9764
    Number of electrons: 18.000000
    Number of unpaired electrons: n_u =  2.93704, n_u,nl =  2.46307
    NO participation ratio (PR_NO):  5.030471
  
  
  Mulliken Population Analysis
  Atom      Charge (e)              h+              e-           Del q
  --------------------------------------------------------------------
   1 C       -0.690269        0.608059        0.151575        0.759635
   2 C       -0.755877        0.578210       -1.532428       -0.954219
   3 H        0.044427        0.055033       -0.084885       -0.029852
   4 H        0.222828        0.044082       -0.004454        0.039628
   5 H        0.044427        0.055033       -0.084885       -0.029852
   6 H        0.222828        0.044082       -0.004454        0.039628
   7 H       -0.088363        0.204771       -0.029738        0.175033
  --------------------------------------------------------------------
  Sum:       -1.000000        1.589269       -1.589269        0.000000
  
  Multipole moment analysis of the density matrix
    Molecular charge:                      -1.000000
    Number of electrons:                   18.000000
      Center of electronic charge [Ang]: [ -0.000000,  -0.000000,  -0.091164]
    Total nuclear charge:                  17.000000
      Center of nuclear charge [Ang]:    [ -0.000000,   0.000000,  -0.000000]
    Dipole moment [D]:                     7.881832
      Cartesian components [D]:          [  0.000000,   0.000000,   7.881832]
    RMS size of the density [Ang]:         1.690707
      Cartesian components [Ang]:        [  0.770820,   0.624117,   1.369235]
  
  Exciton analysis of the difference density matrix
    <r_h> [Ang]:                  [  0.000000,   0.000000,  -0.426276]
    <r_e> [Ang]:                  [ -0.000000,  -0.000000,   0.109505]
    |<r_e - r_h>| [Ang]:            0.535781
    Hole size [Ang]:                2.084849
      Cartesian components [Ang]: [  0.776004,   0.901493,   1.712227]
    Electron size [Ang]:            3.054698
      Cartesian components [Ang]: [  1.582726,   1.481541,   2.152021]

  Transition density matrix analysis:
  -----------------------------------
  
  CT numbers (Mulliken)
    omega =     0.6216
    <Phe> =    -0.0021
  
  Exciton analysis of the transition density matrix
    Trans. dipole moment [D]:             0.362496
      Cartesian components [D]:         [ -0.000000,   0.362496,  -0.000000]
    <r_h> [Ang]:                        [ -0.000000,   0.000000,   0.242262]
    <r_e> [Ang]:                        [ -0.000000,  -0.000000,   0.265944]
    |<r_e - r_h>| [Ang]:                  0.023682
    Hole size [Ang]:                      1.305422
      Cartesian components [Ang]:       [  0.526571,   0.878725,   0.809130]
    Electron size [Ang]:                  3.131957
      Cartesian components [Ang]:       [  1.715935,   1.555207,   2.108567]
    RMS electron-hole separation [Ang]:   3.375882
      Cartesian components [Ang]:       [  1.792844,   1.780532,   2.238749]
    Covariance(r_h, r_e) [Ang^2]:         0.058631
    Correlation coefficient:              0.014340
    Center-of-mass size [Ang]:            1.705179
      Cartesian components [Ang]:       [  0.898489,   0.896013,   1.139085]

  Decomposition into state-averaged NTOs
    H- 1 -> L+ 5:  0.5437 ( 59.1%)
    H- 2 -> L+ 0:  0.0738 (  1.1%)
                   omega =  62.2%
  ----------------------------------------------------------------------------


--------------------------------------------------------------------------------
  Time of ADC calculation:  CPU 644.73 s  wall 156.08 s
================================================================================
 
 --------------------------------------------------------------
             Orbital Energies (a.u.) and Symmetries
 --------------------------------------------------------------
 
 Alpha MOs, Restricted
 -- Occupied --                  
-11.071 -11.066  -0.878  -0.615  -0.497  -0.401  -0.348  -0.215
  1 A1    2 A1    3 A1    4 A1    1 B1    5 A1    2 B1    1 B2                 
 -0.028
  6 A1                                                                         
 -- Virtual --                   
  0.189   0.212   0.219   0.260   0.268   0.272   0.325   0.354
  7 A1    3 B1    2 B2    3 B2    8 A1    4 B1    9 A1    4 B2                 
  0.405   0.408   0.476   0.494   0.503   0.529   0.546   0.581
 10 A1   11 A1    5 B1   12 A1   13 A1    6 B1    5 B2    7 B1                 
  0.602   0.649   0.695   0.779   1.001   1.007   1.088   1.145
 14 A1    6 B2    8 B1   15 A1   16 A1    9 B1   17 A1   18 A1                 
  1.183   1.197   1.274   1.277   1.287   1.345   1.352   1.411
 19 A1   10 B1   20 A1    1 A2   11 B1   21 A1    7 B2    8 B2                 
  1.451   1.464   1.538   1.651   1.774   1.851   1.898   1.899
  2 A2    9 B2   22 A1   12 B1   23 A1   13 B1   10 B2   14 B1                 
  2.022   2.042   2.068   2.114   2.181   2.258   2.274   2.316
 15 B1   11 B2   24 A1   12 B2    3 A2   25 A1   16 B1   26 A1                 
  2.353   2.536   2.577   2.647   2.726   2.752   3.039   3.040
 13 B2   27 A1    4 A2   28 A1   17 B1   29 A1   30 A1   18 B1                 
  3.467   3.521
 31 A1   19 B1                                                                 
 
 Beta MOs, Restricted
 -- Occupied --                  
-11.071 -11.066  -0.878  -0.615  -0.497  -0.401  -0.348  -0.215
  1 A1    2 A1    3 A1    4 A1    1 B1    5 A1    2 B1    1 B2                 
 -0.028
  6 A1                                                                         
 -- Virtual --                   
  0.189   0.212   0.219   0.260   0.268   0.272   0.325   0.354
  7 A1    3 B1    2 B2    3 B2    8 A1    4 B1    9 A1    4 B2                 
  0.405   0.408   0.476   0.494   0.503   0.529   0.546   0.581
 10 A1   11 A1    5 B1   12 A1   13 A1    6 B1    5 B2    7 B1                 
  0.602   0.649   0.695   0.779   1.001   1.007   1.088   1.145
 14 A1    6 B2    8 B1   15 A1   16 A1    9 B1   17 A1   18 A1                 
  1.183   1.197   1.274   1.277   1.287   1.345   1.352   1.411
 19 A1   10 B1   20 A1    1 A2   11 B1   21 A1    7 B2    8 B2                 
  1.451   1.464   1.538   1.651   1.774   1.851   1.898   1.899
  2 A2    9 B2   22 A1   12 B1   23 A1   13 B1   10 B2   14 B1                 
  2.022   2.042   2.068   2.114   2.181   2.258   2.274   2.316
 15 B1   11 B2   24 A1   12 B2    3 A2   25 A1   16 B1   26 A1                 
  2.353   2.536   2.577   2.647   2.726   2.752   3.039   3.040
 13 B2   27 A1    4 A2   28 A1   17 B1   29 A1   30 A1   18 B1                 
  3.467   3.521
 31 A1   19 B1                                                                 
 --------------------------------------------------------------
 
          Ground-State Mulliken Net Atomic Charges

     Atom                 Charge (a.u.)
  ----------------------------------------
      1 C                    -1.457969
      2 C                     0.260638
      3 H                     0.066570
      4 H                     0.180016
      5 H                     0.066570
      6 H                     0.180016
      7 H                    -0.295842
  ----------------------------------------
  Sum of atomic charges =    -1.000000

 -----------------------------------------------------------------
                    Cartesian Multipole Moments
 -----------------------------------------------------------------
    Charge (ESU x 10^10)
                -4.8032
    Dipole Moment (Debye)
         X      -0.0000      Y       0.0000      Z      11.9914
       Tot      11.9914
    Quadrupole Moments (Debye-Ang)
        XX     -18.8009     XY      -0.0000     YY     -23.1589
        XZ       0.0000     YZ      -0.0000     ZZ     -59.2309
    Octopole Moments (Debye-Ang^2)
       XXX       0.0000    XXY       0.0000    XYY      -0.0000
       YYY       0.0000    XXZ      14.5857    XYZ       0.0000
       YYZ      14.3413    XZZ      -0.0000    YZZ       0.0000
       ZZZ     146.8376
    Hexadecapole Moments (Debye-Ang^3)
      XXXX     -49.7353   XXXY       0.0000   XXYY     -16.9158
      XYYY       0.0000   YYYY     -46.2748   XXXZ       0.0000
      XXYZ      -0.0000   XYYZ       0.0000   YYYZ      -0.0000
      XXZZ     -72.4885   XYZZ       0.0000   YYZZ     -75.9435
      XZZZ       0.0000   YZZZ      -0.0000   ZZZZ    -664.4450
 -----------------------------------------------------------------
 Total job time:  239.11s(wall), 691.81s(cpu) 
 Sun Mar 27 13:41:58 2022

        *************************************************************
        *                                                           *
        *  Thank you very much for using Q-Chem.  Have a nice day.  *
        *                                                           *
        *************************************************************


