/src/tsommerfeld/qchem/exe/qcprog.exe .input1.222222.30422.qcin.1 /src/jdavis/qchem.scratch/qchem30422/

                  Welcome to Q-Chem
     A Quantum Leap Into The Future Of Chemistry


 Q-Chem 5.4 (devel), Q-Chem, Inc., Pleasanton, CA (2021)

 E. Epifanovsky,  A. T. B. Gilbert,  Xintian Feng,  Joonho Lee,  Yuezhi Mao,  
 N. Mardirossian,  P. Pokhilko,  A. White,  M. Wormit,  M. P. Coons,  
 A. L. Dempwolff,  Zhengting Gan,  D. Hait,  P. R. Horn,  L. D. Jacobson,  
 I. Kaliman,  J. Kussmann,  A. W. Lange,  Ka Un Lao,  D. S. Levine,  Jie Liu,  
 S. C. McKenzie,  A. F. Morrison,  K. Nanda,  F. Plasser,  D. R. Rehn,  
 M. L. Vidal,  Zhi-Qiang You,  Ying Zhu,  B. Alam,  B. Albrecht,  
 A. Aldossary,  E. Alguire,  J. H. Andersen,  D. Barton,  K. Begam,  A. Behn,  
 Y. A. Bernard,  E. J. Berquist,  H. Burton,  A. Carreras,  K. Carter-Fenk,  
 R. Chakraborty,  A. D. Chien,  K. D. Closser,  V. Cofer-Shabica,  
 S. Dasgupta,  Jia Deng,  M. de Wergifosse,  M. Diedenhofen,  Hainam Do,  
 S. Ehlert,  Po-Tung Fang,  S. Fatehi,  Qingguo Feng,  T. Friedhoff,  
 J. Gayvert,  Qinghui Ge,  G. Gidofalvi,  M. Goldey,  J. Gomes,  
 C. Gonzalez-Espinoza,  S. Gulania,  A. Gunina,  M. W. D. Hanson-Heine,  
 P. H. P. Harbach,  A. W. Hauser,  M. F. Herbst,  M. Hernandez Vera,  
 M. Hodecker,  Z. C. Holden,  S. Houck,  Xunkun Huang,  Kerwin Hui,  
 B. C. Huynh,  M. Ivanov,  Hyunjun Ji,  Hanjie Jiang,  B. Kaduk,  S. Kaehler,  
 K. Khistyaev,  Jaehoon Kim,  P. Klunzinger,  Z. Koczor-Benda,  
 Joong Hoon Koh,  D. Kosenkov,  L. Koulias,  T. Kowalczyk,  C. M. Krauter,  
 K. Kue,  A. Kunitsa,  T. Kus,  A. Landau,  K. V. Lawler,  D. Lefrancois,  
 S. Lehtola,  Rain Li,  Yi-Pei Li,  Jiashu Liang,  M. Liebenthal,  
 Hung-Hsuan Lin,  You-Sheng Lin,  Fenglai Liu,  Kuan-Yu Liu,  
 M. Loipersberger,  A. Luenser,  A. Manjanath,  P. Manohar,  E. Mansoor,  
 S. F. Manzer,  Shan-Ping Mao,  A. V. Marenich,  T. Markovich,  S. Mason,  
 S. A. Maurer,  P. F. McLaughlin,  M. F. S. J. Menger,  J.-M. Mewes,  
 S. A. Mewes,  P. Morgante,  J. W. Mullinax,  K. J. Oosterbaan,  G. Paran,  
 Alexander C. Paul,  Suranjan K. Paul,  F. Pavosevic,  Zheng Pei,  S. Prager,  
 E. I. Proynov,  E. Ramos,  B. Rana,  A. E. Rask,  A. Rettig,  R. M. Richard,  
 F. Rob,  E. Rossomme,  T. Scheele,  M. Scheurer,  M. Schneider,  
 N. Sergueev,  S. M. Sharada,  W. Skomorowski,  D. W. Small,  C. J. Stein,  
 Yu-Chuan Su,  E. J. Sundstrom,  Zhen Tao,  J. Thirman,  T. Tsuchimochi,  
 N. M. Tubman,  S. P. Veccham,  O. Vydrov,  J. Wenzel,  J. Witte,  A. Yamada,  
 Kun Yao,  S. Yeganeh,  S. R. Yost,  A. Zech,  Igor Ying Zhang,  Xing Zhang,  
 Yu Zhang,  D. Zuev,  A. Aspuru-Guzik,  A. T. Bell,  N. A. Besley,  
 K. B. Bravaya,  B. R. Brooks,  D. Casanova,  Jeng-Da Chai,  S. Coriani,  
 C. J. Cramer,  A. E. DePrince, III,  R. A. DiStasio Jr.,  A. Dreuw,  
 B. D. Dunietz,  T. R. Furlani,  W. A. Goddard III,  S. Grimme,  
 S. Hammes-Schiffer,  T. Head-Gordon,  W. J. Hehre,  Chao-Ping Hsu,  
 T.-C. Jagau,  Yousung Jung,  A. Klamt,  Jing Kong,  D. S. Lambrecht,  
 WanZhen Liang,  N. J. Mayhall,  C. W. McCurdy,  J. B. Neaton,  
 C. Ochsenfeld,  J. A. Parkhill,  R. Peverati,  V. A. Rassolov,  Yihan Shao,  
 L. V. Slipchenko,  T. Stauch,  R. P. Steele,  J. E. Subotnik,  
 A. J. W. Thom,  A. Tkatchenko,  D. G. Truhlar,  T. Van Voorhis,  
 T. A. Wesolowski,  K. B. Whaley,  H. L. Woodcock III,  P. M. Zimmerman,  
 S. Faraji,  P. M. W. Gill,  M. Head-Gordon,  J. M. Herbert,  A. I. Krylov

 Additional authors for Version 5.4.1: 
 S. Kotaru,  Shaozhi Li,  Xiangyuan Li,  F. Matz,  A. Molle,  Haisheng Ren,  
 Yingli Su,  Hung-Yi Tsai,  C. Utku,  Fang Wang

 Contributors to earlier versions of Q-Chem not listed above: 
 R. D. Adamson,  B. Austin,  R. Baer,  J. Baker,  G. J. O. Beran,  
 K. Brandhorst,  S. T. Brown,  E. F. C. Byrd,  A. K. Chakraborty,  
 G. K. L. Chan,  Chun-Min Chang,  Yunqing Chen,  C.-L. Cheng,  
 Siu Hung Chien,  D. M. Chipman,  D. L. Crittenden,  H. Dachsel,  
 R. J. Doerksen,  A. D. Dutoi,  R. G. Edgar,  J. Fosso-Tande,  
 L. Fusti-Molnar,  D. Ghosh,  A. Ghysels,  A. Golubeva-Zadorozhnaya,  
 J. Gonthier,  M. S. Gordon,  S. R. Gwaltney,  G. Hawkins,  J. E. Herr,  
 A. Heyden,  S. Hirata,  E. G. Hohenstein,  G. Kedziora,  F. J. Keil,  
 C. Kelley,  Jihan Kim,  R. A. King,  R. Z. Khaliullin,  P. P. Korambath,  
 W. Kurlancheek,  A. Laurent,  A. M. Lee,  M. S. Lee,  S. V. Levchenko,  
 Ching Yeh Lin,  D. Liotard,  E. Livshits,  R. C. Lochan,  I. Lotan,  
 L. A. Martinez-Martinez,  P. E. Maslen,  N. Nair,  D. P. O'Neill,  
 D. Neuhauser,  E. Neuscamman,  C. M. Oana,  R. Olivares-Amaya,  R. Olson,  
 T. M. Perrine,  B. Peters,  P. A. Pieniazek,  A. Prociuk,  Y. M. Rhee,  
 J. Ritchie,  M. A. Rohrdanz,  E. Rosta,  N. J. Russ,  H. F. Schaefer III,  
 M. W. Schmidt,  N. E. Schultz,  S. Sharma,  N. Shenvi,  C. D. Sherrill,  
 A. C. Simmonett,  A. Sodt,  T. Stein,  D. Stuck,  K. S. Thanthiriwatte,  
 V. Vanovschi,  L. Vogt,  Tao Wang,  A. Warshel,  M. A. Watson,  
 C. F. Williams,  Q. Wu,  X. Xu,  Jun Yang,  W. Zhang,  Yan Zhao

 Please cite Q-Chem as follows:
 Y. Shao et al., Mol. Phys. 113, 184-215 (2015)
 DOI: 10.1080/00268976.2014.952696

 Q-Chem 5.4.1 for Intel X86 EM64T Linux

 Parts of Q-Chem use Armadillo 9.900.5 (Nocturnal Misbehaviour).
 http://arma.sourceforge.net/

 Q-Chem begins on Sun Mar 27 12:51:37 2022  

 Host: node01
0

     Scratch files written to /src/jdavis/qchem.scratch/qchem30422//
 Processing $rem in /src/tsommerfeld/qchem/config/preferences:
 Processing $rem in /home/jdavis/.qchemrc:

 Checking the input file for inconsistencies... 	...done.

--------------------------------------------------------------
User input:
--------------------------------------------------------------
$molecule
-1 1
C         0.0000000000    0.0000000000    0.8417902907
C         0.0000000000    0.0000000000   -0.4872097093
H         0.9623488518    0.0000000000    1.3363703127
H         0.9623489048    0.0000000000   -0.9817896873
H        -0.9623488518    0.0000000000    1.3363703127
H        -0.9623489048    0.0000000000   -0.9817896873
H         0.0000000000    0.0000000000   -2.8366446508
$end

$rem
   METHOD adc(3)
   BASIS gen
   PURECART 11
   EE_STATES [0,0,0,10]
   scf_convergence 8
   ADC_DAVIDSON_MAXITER 120
   ADC_DAVIDSON_MAXSUBSPACE 200
   adc_nguess_singles 100
   THRESH 14
   S2THRESH 14
   adc_davidson_conv 5
   adc_davidson_thresh 14
   THREADS 10
   MEM_TOTAL 95000
   STATE_ANALYSIS TRUE
$end
$basis
C 1
S   9   1.00
      6.665000D+03           6.920000D-04
      1.000000D+03           5.329000D-03
      2.280000D+02           2.707700D-02
      6.471000D+01           1.017180D-01
      2.106000D+01           2.747400D-01
      7.495000D+00           4.485640D-01
      2.797000D+00           2.850740D-01
      5.215000D-01           1.520400D-02
      1.596000D-01          -3.191000D-03
S   9   1.00
      6.665000D+03          -1.460000D-04
      1.000000D+03          -1.154000D-03
      2.280000D+02          -5.725000D-03
      6.471000D+01          -2.331200D-02
      2.106000D+01          -6.395500D-02
      7.495000D+00          -1.499810D-01
      2.797000D+00          -1.272620D-01
      5.215000D-01           5.445290D-01
      1.596000D-01           5.804960D-01
S   1   1.00
      1.596000D-01           1.000000D+00
S   1   1.00
      0.0469000              1.0000000
P   4   1.00
      9.439000D+00           3.810900D-02
      2.002000D+00           2.094800D-01
      5.456000D-01           5.085570D-01
      1.517000D-01           4.688420D-01
P   1   1.00
      1.517000D-01           1.000000D+00
P   1   1.00
      0.0741644      1.0000000
P   1   1.00
      0.0370822      1.0000000
D   1   1.00
      5.500000D-01           1.0000000
****
C 2
S   9   1.00
      6.665000D+03           6.920000D-04
      1.000000D+03           5.329000D-03
      2.280000D+02           2.707700D-02
      6.471000D+01           1.017180D-01
      2.106000D+01           2.747400D-01
      7.495000D+00           4.485640D-01
      2.797000D+00           2.850740D-01
      5.215000D-01           1.520400D-02
      1.596000D-01          -3.191000D-03
S   9   1.00
      6.665000D+03          -1.460000D-04
      1.000000D+03          -1.154000D-03
      2.280000D+02          -5.725000D-03
      6.471000D+01          -2.331200D-02
      2.106000D+01          -6.395500D-02
      7.495000D+00          -1.499810D-01
      2.797000D+00          -1.272620D-01
      5.215000D-01           5.445290D-01
      1.596000D-01           5.804960D-01
S   1   1.00
      1.596000D-01           1.000000D+00
S   1   1.00
      0.0469000              1.0000000
P   4   1.00
      9.439000D+00           3.810900D-02
      2.002000D+00           2.094800D-01
      5.456000D-01           5.085570D-01
      1.517000D-01           4.688420D-01
P   1   1.00
      1.517000D-01           1.000000D+00
P   1   1.00
      0.0741644      1.0000000
P   1   1.00
      0.0370822      1.0000000
D   1   1.00
      5.500000D-01           1.0000000
****
H 3
cc-pVDZ
****
H 4
cc-pVDZ
****
H 5
cc-pVDZ
****
H 6
cc-pVDZ
****
H 7
aug-cc-pVDZ
****
$end
--------------------------------------------------------------
 ----------------------------------------------------------------
             Standard Nuclear Orientation (Angstroms)
    I     Atom           X                Y                Z
 ----------------------------------------------------------------
    1      C       0.0000000000     0.0000000000     0.8417902855
    2      C       0.0000000000     0.0000000000    -0.4872097145
    3      H       0.9623488518     0.0000000000     1.3363703075
    4      H       0.9623489048     0.0000000000    -0.9817896925
    5      H      -0.9623488518     0.0000000000     1.3363703075
    6      H      -0.9623489048     0.0000000000    -0.9817896925
    7      H       0.0000000000     0.0000000000    -2.8366446560
 ----------------------------------------------------------------
 Molecular Point Group                 C2v   NOp =  4
 Largest Abelian Subgroup              C2v   NOp =  4
 Nuclear Repulsion Energy =          36.55739271 hartrees
 There are        9 alpha and        9 beta electrons
 Requested basis set is non-standard
 There are 33 shells and 67 basis functions
 Total memory of 95000 MB is distributed as follows: 
   MEM_STATIC is set to 192 MB
   QALLOC/CCMAN JOB total memory use is  94808 MB
 Warning: actual memory use might exceed 95000 MB

 Total QAlloc Memory Limit  95000 MB
 Mega-Array Size       188 MB
 MEM_STATIC part       192 MB

                       Distance Matrix (Angstroms)
             C (  1)   C (  2)   H (  3)   H (  4)   H (  5)   H (  6)
   C (  2)  1.329000
   H (  3)  1.082000  2.061931
   H (  4)  2.061931  1.082000  2.318160
   H (  5)  1.082000  2.061931  1.924698  3.013026
   H (  6)  2.061931  1.082000  3.013026  1.924698  2.318160
   H (  7)  3.678435  2.349435  4.282542  2.089642  4.282542  2.089642

 
 A cutoff of  1.0D-14 yielded    561 shell pairs
 There are      2337 function pairs (      2484 Cartesian)
 Smallest overlap matrix eigenvalue = 1.84E-04

 Scale SEOQF with 1.000000e-01/1.000000e-01/1.000000e-01

 Standard Electronic Orientation quadrupole field applied
 Nucleus-field energy     =    -0.0000000019 hartrees
 ================ Generating on-the-fly SAD Guess ================
Attempting to make child job directory: /src/jdavis/qchem.scratch/qchem30422//Frg1/
Attempting to make child job directory: /src/jdavis/qchem.scratch/qchem30422//Frg2/
Creating input file /src/jdavis/qchem.scratch/qchem30422/Frg1.input
using default PutDataFrgm: nothing
calling putenv with: QCSCRATCH=/src/jdavis/qchem.scratch/qchem30422/ 
Spawning Job For Fragment 0
Done Job For Fragment 0
calling putenv with: QCSCRATCH=/src/jdavis/qchem.scratch 
calling putenv with: QCTHREADS=1 
Creating input file /src/jdavis/qchem.scratch/qchem30422/Frg2.input
using default PutDataFrgm: nothing
calling putenv with: QCSCRATCH=/src/jdavis/qchem.scratch/qchem30422/ 
Spawning Job For Fragment 1
Done Job For Fragment 1
calling putenv with: QCSCRATCH=/src/jdavis/qchem.scratch 
calling putenv with: QCTHREADS=1 
 Time for running child jobs:  CPU 1.77 s  wall 54.41 s
 ============= Method Specific SAD Guess Constructed =============
 Guess from on-the-fly superposition of atomic densities
 Warning: Energy on first SCF cycle will be non-variational
 A restricted Hartree-Fock SCF calculation will be
 performed using Pulay DIIS extrapolation
 SCF converges when DIIS error is below 1.0E-08
 using 10 threads for integral computing
 -------------------------------------------------------
 OpenMP Integral computing Module                
 Release: version 1.0, May 2013, Q-Chem Inc. Pittsburgh 
 -------------------------------------------------------
 ---------------------------------------
  Cycle       Energy         DIIS Error
 ---------------------------------------
    1     -78.8392954787      7.39E-02
    2     -78.4382918408      7.16E-03
    3     -78.4958233798      2.35E-03
    4     -78.4999841803      8.98E-04
    5     -78.5007480712      2.37E-04
    6     -78.5008301696      7.45E-05
    7     -78.5008415155      3.61E-05
    8     -78.5008440122      7.45E-06
    9     -78.5008441517      1.45E-06
   10     -78.5008441572      2.40E-07
   11     -78.5008441574      4.66E-08
   12     -78.5008441574      1.08E-08
   13     -78.5008441574      1.94E-09 Convergence criterion met
 ---------------------------------------
 SCF time:  CPU 12.86 s  wall 1.29 s
 SCF   energy in the final basis set = -78.50084416
 Total energy in the final basis set = -78.50084416
================================================================================
|                                                                              |
|                                 A D C  M A N                                 |
|                                                                              |
 ------------------------------------------------------------------------------ 
|                                                                              |
| Components:                                                                  |
|                                                                              |
| - libvmm - 1.3-trunk                                                         |
|   Authors:                                                                   |
|   Evgeny Epifanovsky, Ilya Kaliman                                           |
|                                                                              |
| - libtensor - 2.5-trunk                                                      |
|   Authors:                                                                   |
|   Evgeny Epifanovsky, Michael Wormit, Dmitry Zuev, Sam Manzer,               |
|   Ilya Kaliman                                                               |
|                                                                              |
| - libwfa - 1.1-trunk                                                         |
|   Authors:                                                                   |
|   Felix Plasser, Stefanie Mewes (Baeppler), Benjamin Thomitzni,              |
|   Michael Wormit, Feng Chen, Anna I. Krylov, Pavel Pokhilko                  |
|                                                                              |
| - libadc - 1.1-trunk                                                         |
|   Authors:                                                                   |
|   Michael Wormit, Adrian L. Dempwolff, Philipp H. P. Harbach,                |
|   Caroline Krauter, Dirk Rehn, Matthias Schneider, Jan Wenzel                |
|                                                                              |
| - adcman - 2.6-trunk                                                         |
|   Authors:                                                                   |
|   Michael Wormit, Adrian L. Dempwolff, Philipp H. P. Harbach,                |
|   Caroline Krauter, Daniel Lefrancois, Jan-Michael Mewes, Dirk Rehn,         |
|   Matthias Schneider, Jan Wenzel, Andreas Dreuw                              |
|                                                                              |
| Authors of earlier versions of ADCMAN:                                       |
| Andreas Dreuw, Jan Hendrik Starcke, Dirk Rehn, Michael Wormit                |
|                                                                              |
================================================================================

 
 Alpha MOs, Restricted
 -- Occupied --                  
-11.075 -11.071  -0.882  -0.620  -0.501  -0.405  -0.353  -0.219
  1 A1    2 A1    3 A1    4 A1    1 B1    5 A1    2 B1    1 B2                 
 -0.034
  6 A1                                                                         
 -- Virtual --                   
  0.163   0.183   0.190   0.234   0.234   0.253   0.315   0.325
  7 A1    3 B1    2 B2    3 B2    4 B1    8 A1    9 A1    4 B2                 
  0.336   0.404   0.430   0.446   0.466   0.473   0.495   0.507
 10 A1   11 A1    5 B1   12 A1    5 B2    6 B1    7 B1   13 A1                 
  0.564   0.583   0.702   0.766   0.984   1.009   1.077   1.091
  6 B2   14 A1    8 B1   15 A1   16 A1    9 B1   17 A1   18 A1                 
  1.122   1.157   1.189   1.212   1.232   1.273   1.284   1.325
 19 A1   10 B1   11 B1   20 A1    7 B2    1 A2    8 B2   21 A1                 
  1.446   1.449   1.480   1.584   1.764   1.789   1.852   1.884
  2 A2    9 B2   22 A1   12 B1   23 A1   13 B1   14 B1   10 B2                 
  1.984   2.029   2.058   2.107   2.177   2.225   2.256   2.300
 15 B1   11 B2   24 A1   12 B2    3 A2   25 A1   16 B1   26 A1                 
  2.344   2.525   2.573   2.630   2.744   2.744   2.990   2.996
 13 B2   27 A1    4 A2   28 A1   29 A1   17 B1   18 B1   30 A1                 
  3.441   3.505
 31 A1   19 B1                                                                 
 
 Beta MOs, Restricted
 -- Occupied --                  
-11.075 -11.071  -0.882  -0.620  -0.501  -0.405  -0.353  -0.219
  1 A1    2 A1    3 A1    4 A1    1 B1    5 A1    2 B1    1 B2                 
 -0.034
  6 A1                                                                         
 -- Virtual --                   
  0.163   0.183   0.190   0.234   0.234   0.253   0.315   0.325
  7 A1    3 B1    2 B2    3 B2    4 B1    8 A1    9 A1    4 B2                 
  0.336   0.404   0.430   0.446   0.466   0.473   0.495   0.507
 10 A1   11 A1    5 B1   12 A1    5 B2    6 B1    7 B1   13 A1                 
  0.564   0.583   0.702   0.766   0.984   1.009   1.077   1.091
  6 B2   14 A1    8 B1   15 A1   16 A1    9 B1   17 A1   18 A1                 
  1.122   1.157   1.189   1.212   1.232   1.273   1.284   1.325
 19 A1   10 B1   11 B1   20 A1    7 B2    1 A2    8 B2   21 A1                 
  1.446   1.449   1.480   1.584   1.764   1.789   1.852   1.884
  2 A2    9 B2   22 A1   12 B1   23 A1   13 B1   14 B1   10 B2                 
  1.984   2.029   2.058   2.107   2.177   2.225   2.256   2.300
 15 B1   11 B2   24 A1   12 B2    3 A2   25 A1   16 B1   26 A1                 
  2.344   2.525   2.573   2.630   2.744   2.744   2.990   2.996
 13 B2   27 A1    4 A2   28 A1   29 A1   17 B1   18 B1   30 A1                 
  3.441   3.505
 31 A1   19 B1                                                                 

--------------------------------------------------------------------------------
                                   HF Summary                                   
--------------------------------------------------------------------------------
  Energy:                                                  -78.5008441574 a.u.
  Dip. moment [a.u.]:                  [  -0.000000,    0.000000,    4.869048]
  Total dipole [Debye]:                                              12.375887
  <r^2> [a.u.]:                        [  27.838049,   17.849377,  114.785614]
  Total <r^2> [a.u.]:                                               160.473040
--------------------------------------------------------------------------------

--------------------------------------------------------------------------------
                                 MP(2) Summary                                  
--------------------------------------------------------------------------------
  MP energy contribution:                                   -0.3078029751 a.u.
  Total energy:                                            -78.8086471325 a.u.
  Dip. moment [a.u.]:                  [  -0.000000,    0.000000,    4.862158]
  Total dipole [Debye]:                                              12.358375
  <r^2> [a.u.]:                        [  28.148500,   17.944215,  114.703694]
  Total <r^2> [a.u.]:                                               160.796408

  Density matrix analysis:
  ------------------------
  NOs
    Occupation of frontier NOs:
       0.0436   1.9373
    Number of electrons: 18.000000
    Number of unpaired electrons: n_u =  0.47425, n_u,nl =  0.05200
    NO participation ratio (PR_NO): 16.621645
  
  
  Mulliken Population Analysis
  Atom      Charge (e)              h+              e-           Del q
  --------------------------------------------------------------------
   1 C       -0.975418        0.118516       -0.113025        0.005491
   2 C       -0.191455        0.062085       -0.126848       -0.064763
   3 H        0.055536        0.019476       -0.012318        0.007159
   4 H        0.166635        0.016246       -0.013416        0.002830
   5 H        0.055536        0.019476       -0.012318        0.007159
   6 H        0.166635        0.016246       -0.013416        0.002830
   7 H       -0.277470        0.053105       -0.013811        0.039294
  --------------------------------------------------------------------
  Sum:       -1.000000        0.305151       -0.305151       -0.000000
  
  Multipole moment analysis of the density matrix
    Molecular charge:                      -1.000000
    Number of electrons:                   18.000000
      Center of electronic charge [Ang]: [  0.000000,  -0.000000,  -0.142941]
    Total nuclear charge:                  17.000000
      Center of nuclear charge [Ang]:    [ -0.000000,   0.000000,  -0.000000]
    Dipole moment [D]:                     12.358372
      Cartesian components [D]:          [ -0.000000,   0.000000,  12.358372]
    RMS size of the density [Ang]:         1.575151
      Cartesian components [Ang]:        [  0.661748,   0.528357,   1.328168]
  
  Exciton analysis of the difference density matrix
    <r_h> [Ang]:                  [ -0.000000,   0.000000,  -0.210395]
    <r_e> [Ang]:                  [  0.000000,  -0.000000,  -0.198447]
    |<r_e - r_h>| [Ang]:            0.011948
    Hole size [Ang]:                1.908800
      Cartesian components [Ang]: [  0.762072,   0.769109,   1.572016]
    Electron size [Ang]:            1.986239
      Cartesian components [Ang]: [  0.930401,   0.823747,   1.549498]
--------------------------------------------------------------------------------

--------------------------------------------------------------------------------
                                 MP(3) Summary                                  
--------------------------------------------------------------------------------
  MP energy contribution:                                   -0.0294911277 a.u.
  Total energy:                                            -78.8381382602 a.u.
--------------------------------------------------------------------------------
  Starting Davidson for singlet states of irrep B2 ... 
--------------------------------------------------------------------------------
   It NVec Conv  Avg. Norm  Max. Norm  Conv. states           Remark
--------------------------------------------------------------------------------
       100    0  9.621e-02  3.914e-01  0.1502 n n n n n n n n Guess.
    1  110    0  5.534e-02  2.651e-01  0.0870 n n n n n n n n 
    2  120    0  3.321e-02  1.895e-01  0.0815 n n n n n n n n 
    3  130    0  2.156e-02  1.423e-01  0.0811 n n n n n n n n 
    4  140    0  1.477e-02  8.808e-02  0.0811 n n n n n n n n 
    5  150    0  9.218e-03  6.939e-02  0.0811 n n n n n n n n 
    6  160    0  6.090e-03  4.987e-02  0.0811 n n n n n n n n 
    7  170    0  2.828e-03  2.267e-02  0.0811 n n n n n n n n 
    8  180    2  1.618e-03  1.404e-02  0.0811 y y n n n n n n 
    9  190    4  1.051e-03  9.187e-03  0.0811 y y y y n n n n 
   10  200    4  7.033e-04  5.014e-03  0.0811 y y y y n n n n 
   11   20    6  3.803e-04  3.164e-03  0.0811 y y y y y n y n Subspace collapsed.
   12   30    6  3.401e-04  2.924e-03  0.0811 y y y y y n y n 
   13   40    7  2.640e-04  2.177e-03  0.0811 y y y y y y y n 
   14   50    7  1.833e-04  1.616e-03  0.0811 y y y y y y y n 
   15   60    8  1.633e-04  1.508e-03  0.0811 y y y y y y y y 
   16   70    8  1.602e-04  1.548e-03  0.0811 y y y y y y y y 
   17   80    8  1.744e-04  1.725e-03  0.0811 y y y y y y y y 
   18   90    8  1.876e-04  1.871e-03  0.0811 y y y y y y y y 
   19  100    8  1.323e-04  1.321e-03  0.0811 y y y y y y y y 
   20  110    8  8.398e-05  8.387e-04  0.0811 y y y y y y y y 
   21  120    8  4.448e-05  4.444e-04  0.0811 y y y y y y y y 
   22  130    9  2.119e-05  2.117e-04  0.0811 y y y y y y y y 
   23  139    9  9.781e-06  9.773e-05  0.0811 y y y y y y y y 
   24  147    9  4.388e-06  4.385e-05  0.0811 y y y y y y y y 
   25  155    9  2.069e-06  2.068e-05  0.0811 y y y y y y y y 
   26  163   10  8.384e-07  8.381e-06  0.0811 y y y y y y y y Converged.
--------------------------------------------------------------------------------
  Davidson Summary: 
 ------------------------------------------------------------
  State  0: excitation energy =   0.0811 a.u.   (converged)
  State  1: excitation energy =   0.0829 a.u.   (converged)
  State  2: excitation energy =   0.1448 a.u.   (converged)
  State  3: excitation energy =   0.2311 a.u.   (converged)
  State  4: excitation energy =   0.2419 a.u.   (converged)
  State  5: excitation energy =   0.2582 a.u.   (converged)
  State  6: excitation energy =   0.2770 a.u.   (converged)
  State  7: excitation energy =   0.3098 a.u.   (converged)
  State  8: excitation energy =   0.3286 a.u.   (converged)
  State  9: excitation energy =   0.3428 a.u.   (converged)
 ------------------------------------------------------------


--------------------------------------------------------------------------------
                   State-averaged natural transition orbitals
--------------------------------------------------------------------------------
--------------------------------------------------------------------------------

--------------------------------------------------------------------------------
                             Excited State Summary
--------------------------------------------------------------------------------
--------------------------------------------------------------------------------

  Excited state 1 (singlet, B2)                                    [converged]
  ----------------------------------------------------------------------------
  Term symbol:  1 (1) B2                                    R^2 =  6.10616e-15

  Total energy:                                            -78.7570639677 a.u.
  Excitation energy:                                               2.206144 eV

  Osc. strength:                                                      0.076841
  Trans. dip. moment [a.u.]:           [   0.000000,    1.192342,    0.000000]
  <i|r^2|0> [a.u.]:                    [  -0.000000,   -0.000000,    0.000000]

  Dip. moment [a.u.]:                  [  -0.000000,   -0.000000,    0.236844]
  Total dipole [Debye]:                                               0.601999
  <r^2> [a.u.]:                        [  29.315848,   29.016854,   97.161867]
  Total <r^2> [a.u.]:                                               155.494568

  V1^2 = 0.8522, V2^2 = 0.1478

  Important amplitudes:
      occ i      occ j       vir a       vir b          v   
    ---------------------------------------------------------
     6 (A1) A               3 (B2) A                 -0.5439
     6 (A1) A               4 (B2) A                 -0.2584
    ---------------------------------------------------------

  Density matrix analysis:
  ------------------------
  NOs
    Occupation of frontier NOs:
       0.9875   0.9875
    Number of electrons: 18.000000
    Number of unpaired electrons: n_u =  2.43409, n_u,nl =  2.05032
    NO participation ratio (PR_NO):  3.017472
  
  
  Mulliken Population Analysis
  Atom      Charge (e)              h+              e-           Del q
  --------------------------------------------------------------------
   1 C       -0.491921        0.851312       -0.367814        0.483498
   2 C       -0.799695        0.148997       -0.757237       -0.608240
   3 H        0.061773        0.011008       -0.004771        0.006236
   4 H        0.083003       -0.009239       -0.074393       -0.083632
   5 H        0.061773        0.011008       -0.004771        0.006236
   6 H        0.083003       -0.009239       -0.074393       -0.083632
   7 H        0.002064        0.393281       -0.113747        0.279534
  --------------------------------------------------------------------
  Sum:       -1.000000        1.397127       -1.397127        0.000000
  
  Multipole moment analysis of the density matrix
    Molecular charge:                      -1.000000
    Number of electrons:                   18.000000
      Center of electronic charge [Ang]: [  0.000000,   0.000000,  -0.006963]
    Total nuclear charge:                  17.000000
      Center of nuclear charge [Ang]:    [ -0.000000,   0.000000,  -0.000000]
    Dipole moment [D]:                     0.601998
      Cartesian components [D]:          [ -0.000000,  -0.000000,   0.601998]
    RMS size of the density [Ang]:         1.555314
      Cartesian components [Ang]:        [  0.675330,   0.671877,   1.229436]
  
  Exciton analysis of the difference density matrix
    <r_h> [Ang]:                  [  0.000000,   0.000000,  -2.358487]
    <r_e> [Ang]:                  [  0.000000,   0.000000,  -0.606598]
    |<r_e - r_h>| [Ang]:            1.751889
    Hole size [Ang]:                2.251146
      Cartesian components [Ang]: [  1.107524,   1.134229,   1.598304]
    Electron size [Ang]:            3.033068
      Cartesian components [Ang]: [  1.208545,   1.872374,   2.057459]

  Transition density matrix analysis:
  -----------------------------------
  
  CT numbers (Mulliken)
    omega =     0.8338
    <Phe> =    -0.0184
  
  Exciton analysis of the transition density matrix
    Trans. dipole moment [D]:             1.515315
      Cartesian components [D]:         [  0.000000,   1.515315,   0.000000]
    <r_h> [Ang]:                        [ -0.000000,   0.000000,  -2.830894]
    <r_e> [Ang]:                        [ -0.000000,   0.000000,  -0.181075]
    |<r_e - r_h>| [Ang]:                  2.649819
    Hole size [Ang]:                      1.646089
      Cartesian components [Ang]:       [  0.922448,   0.928188,   0.998582]
    Electron size [Ang]:                  3.165495
      Cartesian components [Ang]:       [  1.196357,   2.064123,   2.080501]
    RMS electron-hole separation [Ang]:   4.441846
      Cartesian components [Ang]:       [  1.510583,   2.263081,   3.510926]
    Covariance(r_h, r_e) [Ang^2]:         0.010754
    Correlation coefficient:              0.002064
    Center-of-mass size [Ang]:            1.785460
      Cartesian components [Ang]:       [  0.755397,   1.131673,   1.156097]

  Decomposition into state-averaged NTOs
    H- 0 -> L+ 0:  0.5378 ( 57.9%)
    H- 0 -> L+ 4:  0.2937 ( 17.3%)
    H- 0 -> L+ 3: -0.1983 (  7.9%)
                   omega =  83.4%
  ----------------------------------------------------------------------------


  Excited state 2 (singlet, B2)                                    [converged]
  ----------------------------------------------------------------------------
  Term symbol:  2 (1) B2                                    R^2 =  1.00923e-14

  Total energy:                                            -78.7552684785 a.u.
  Excitation energy:                                               2.255001 eV

  Osc. strength:                                                      0.014167
  Trans. dip. moment [a.u.]:           [   0.000000,    0.506393,    0.000000]
  <i|r^2|0> [a.u.]:                    [   0.000000,    0.000000,    0.000000]

  Dip. moment [a.u.]:                  [  -0.000000,    0.000000,   -0.848662]
  Total dipole [Debye]:                                               2.157084
  <r^2> [a.u.]:                        [  33.823445,   43.887961,   92.296878]
  Total <r^2> [a.u.]:                                               170.008284

  V1^2 = 0.8611, V2^2 = 0.1389

  Important amplitudes:
      occ i      occ j       vir a       vir b          v   
    ---------------------------------------------------------
     6 (A1) A               2 (B2) A                 -0.5785
     6 (A1) A               3 (B2) A                 -0.2966
    ---------------------------------------------------------

  Density matrix analysis:
  ------------------------
  NOs
    Occupation of frontier NOs:
       0.9885   0.9941
    Number of electrons: 18.000000
    Number of unpaired electrons: n_u =  2.42708, n_u,nl =  2.05117
    NO participation ratio (PR_NO):  2.976846
  
  
  Mulliken Population Analysis
  Atom      Charge (e)              h+              e-           Del q
  --------------------------------------------------------------------
   1 C       -0.828338        0.916208       -0.769128        0.147080
   2 C       -0.506341        0.107535       -0.422421       -0.314886
   3 H        0.080418        0.029221       -0.004339        0.024882
   4 H        0.085765       -0.014395       -0.066475       -0.080871
   5 H        0.080418        0.029221       -0.004339        0.024882
   6 H        0.085765       -0.014395       -0.066475       -0.080871
   7 H        0.002313        0.400157       -0.120374        0.279783
  --------------------------------------------------------------------
  Sum:       -1.000000        1.453553       -1.453553        0.000000
  
  Multipole moment analysis of the density matrix
    Molecular charge:                      -1.000000
    Number of electrons:                   18.000000
      Center of electronic charge [Ang]: [  0.000000,  -0.000000,   0.024950]
    Total nuclear charge:                  17.000000
      Center of nuclear charge [Ang]:    [ -0.000000,   0.000000,  -0.000000]
    Dipole moment [D]:                     2.157084
      Cartesian components [D]:          [ -0.000000,   0.000000,  -2.157084]
    RMS size of the density [Ang]:         1.626106
      Cartesian components [Ang]:        [  0.725394,   0.826300,   1.198020]
  
  Exciton analysis of the difference density matrix
    <r_h> [Ang]:                  [  0.000000,   0.000000,  -2.217204]
    <r_e> [Ang]:                  [  0.000000,  -0.000000,  -0.138135]
    |<r_e - r_h>| [Ang]:            2.079069
    Hole size [Ang]:                2.342356
      Cartesian components [Ang]: [  1.103560,   1.107009,   1.744510]
    Electron size [Ang]:            3.486864
      Cartesian components [Ang]: [  1.520240,   2.494706,   1.903557]

  Transition density matrix analysis:
  -----------------------------------
  
  CT numbers (Mulliken)
    omega =     0.8481
    <Phe> =    -0.0035
  
  Exciton analysis of the transition density matrix
    Trans. dipole moment [D]:             0.643562
      Cartesian components [D]:         [  0.000000,   0.643562,   0.000000]
    <r_h> [Ang]:                        [ -0.000000,   0.000000,  -2.851848]
    <r_e> [Ang]:                        [ -0.000000,  -0.000000,   0.453979]
    |<r_e - r_h>| [Ang]:                  3.305828
    Hole size [Ang]:                      1.634120
      Cartesian components [Ang]:       [  0.925731,   0.931896,   0.972080]
    Electron size [Ang]:                  3.805941
      Cartesian components [Ang]:       [  1.694885,   2.935630,   1.730500]
    RMS electron-hole separation [Ang]:   5.297983
      Cartesian components [Ang]:       [  1.931212,   3.079799,   3.854073]
    Covariance(r_h, r_e) [Ang^2]:         0.007706
    Correlation coefficient:              0.001239
    Center-of-mass size [Ang]:            2.071892
      Cartesian components [Ang]:       [  0.965615,   1.540093,   0.994203]

  Decomposition into state-averaged NTOs
    H- 0 -> L+ 3: -0.6182 ( 76.4%)
    H- 0 -> L+ 0: -0.1570 (  4.9%)
    H- 0 -> L+ 4: -0.1273 (  3.2%)
                   omega =  84.8%
  ----------------------------------------------------------------------------


  Excited state 3 (singlet, B2)                                    [converged]
  ----------------------------------------------------------------------------
  Term symbol:  3 (1) B2                                    R^2 =  4.01489e-15

  Total energy:                                            -78.6933377284 a.u.
  Excitation energy:                                               3.940223 eV

  Osc. strength:                                                      0.096046
  Trans. dip. moment [a.u.]:           [   0.000000,    0.997470,   -0.000000]
  <i|r^2|0> [a.u.]:                    [   0.000000,    0.000000,   -0.000000]

  Dip. moment [a.u.]:                  [  -0.000000,    0.000000,   -0.269218]
  Total dipole [Debye]:                                               0.684284
  <r^2> [a.u.]:                        [  30.480717,   31.796391,  100.202289]
  Total <r^2> [a.u.]:                                               162.479397

  V1^2 = 0.8341, V2^2 = 0.1659

  Important amplitudes:
      occ i      occ j       vir a       vir b          v   
    ---------------------------------------------------------
     6 (A1) A               4 (B2) A                  0.5735
     6 (A1) A               3 (B2) A                 -0.2103
    ---------------------------------------------------------

  Density matrix analysis:
  ------------------------
  NOs
    Occupation of frontier NOs:
       0.9719   0.9838
    Number of electrons: 18.000000
    Number of unpaired electrons: n_u =  2.47561, n_u,nl =  2.06692
    NO participation ratio (PR_NO):  3.174720
  
  
  Mulliken Population Analysis
  Atom      Charge (e)              h+              e-           Del q
  --------------------------------------------------------------------
   1 C       -0.625711        0.853299       -0.503592        0.349707
   2 C       -0.626158        0.204353       -0.639056       -0.434703
   3 H        0.050258        0.008668       -0.013946       -0.005278
   4 H        0.063030       -0.009085       -0.094520       -0.103605
   5 H        0.050258        0.008668       -0.013946       -0.005278
   6 H        0.063030       -0.009085       -0.094520       -0.103605
   7 H        0.025292        0.402878       -0.100116        0.302761
  --------------------------------------------------------------------
  Sum:       -1.000000        1.459696       -1.459696        0.000000
  
  Multipole moment analysis of the density matrix
    Molecular charge:                      -1.000000
    Number of electrons:                   18.000000
      Center of electronic charge [Ang]: [  0.000000,  -0.000000,   0.007915]
    Total nuclear charge:                  17.000000
      Center of nuclear charge [Ang]:    [ -0.000000,   0.000000,  -0.000000]
    Dipole moment [D]:                     0.684284
      Cartesian components [D]:          [ -0.000000,   0.000000,  -0.684284]
    RMS size of the density [Ang]:         1.589859
      Cartesian components [Ang]:        [  0.688617,   0.703321,   1.248518]
  
  Exciton analysis of the difference density matrix
    <r_h> [Ang]:                  [  0.000000,   0.000000,  -2.261788]
    <r_e> [Ang]:                  [  0.000000,  -0.000000,  -0.401533]
    |<r_e - r_h>| [Ang]:            1.860255
    Hole size [Ang]:                2.231248
      Cartesian components [Ang]: [  1.078736,   1.110766,   1.606547]
    Electron size [Ang]:            3.202466
      Cartesian components [Ang]: [  1.269285,   1.972614,   2.180252]

  Transition density matrix analysis:
  -----------------------------------
  
  CT numbers (Mulliken)
    omega =     0.8149
    <Phe> =    -0.0050
  
  Exciton analysis of the transition density matrix
    Trans. dipole moment [D]:             1.267658
      Cartesian components [D]:         [  0.000000,   1.267658,  -0.000000]
    <r_h> [Ang]:                        [ -0.000000,   0.000000,  -2.828584]
    <r_e> [Ang]:                        [ -0.000000,  -0.000000,   0.149681]
    |<r_e - r_h>| [Ang]:                  2.978265
    Hole size [Ang]:                      1.647568
      Cartesian components [Ang]:       [  0.921035,   0.926718,   1.003678]
    Electron size [Ang]:                  3.437435
      Cartesian components [Ang]:       [  1.290922,   2.226929,   2.278215]
    RMS electron-hole separation [Ang]:   4.836246
      Cartesian components [Ang]:       [  1.585725,   2.411073,   3.880912]
    Covariance(r_h, r_e) [Ang^2]:         0.005612
    Correlation coefficient:              0.000991
    Center-of-mass size [Ang]:            1.906677
      Cartesian components [Ang]:       [  0.792945,   1.206520,   1.245377]

  Decomposition into state-averaged NTOs
    H- 0 -> L+ 4:  0.5586 ( 62.4%)
    H- 0 -> L+ 0: -0.3013 ( 18.2%)
                   omega =  81.5%
  ----------------------------------------------------------------------------


  Excited state 4 (singlet, B2)                                    [converged]
  ----------------------------------------------------------------------------
  Term symbol:  4 (1) B2                                    R^2 =  1.62201e-14

  Total energy:                                            -78.6070659828 a.u.
  Excitation energy:                                               6.287796 eV

  Osc. strength:                                                      0.053335
  Trans. dip. moment [a.u.]:           [   0.000000,    0.588409,   -0.000000]
  <i|r^2|0> [a.u.]:                    [  -0.000000,   -0.000000,   -0.000000]

  Dip. moment [a.u.]:                  [   0.000000,   -0.000000,   -0.001239]
  Total dipole [Debye]:                                               0.003150
  <r^2> [a.u.]:                        [  33.473608,   22.368676,  143.629831]
  Total <r^2> [a.u.]:                                               199.472115

  V1^2 = 0.9337, V2^2 = 0.0663

  Important amplitudes:
      occ i      occ j       vir a       vir b          v   
    ---------------------------------------------------------
     1 (B2) A               7 (A1) A                 -0.6268
     1 (B2) A               8 (A1) A                 -0.2465
    ---------------------------------------------------------

  Density matrix analysis:
  ------------------------
  NOs
    Occupation of frontier NOs:
       0.9841   0.9937
    Number of electrons: 18.000000
    Number of unpaired electrons: n_u =  2.37438, n_u,nl =  2.03331
    NO participation ratio (PR_NO):  2.869490
  
  
  Mulliken Population Analysis
  Atom      Charge (e)              h+              e-           Del q
  --------------------------------------------------------------------
   1 C       -0.284839        0.676947        0.013632        0.690579
   2 C       -1.217884        0.412855       -1.439284       -1.026429
   3 H        0.172090        0.128050       -0.011496        0.116554
   4 H        0.240298        0.065259        0.008405        0.073663
   5 H        0.172090        0.128050       -0.011496        0.116554
   6 H        0.240298        0.065259        0.008405        0.073663
   7 H       -0.322054        0.020233       -0.064817       -0.044585
  --------------------------------------------------------------------
  Sum:       -1.000000        1.496651       -1.496651        0.000000
  
  Multipole moment analysis of the density matrix
    Molecular charge:                      -1.000000
    Number of electrons:                   18.000000
      Center of electronic charge [Ang]: [ -0.000000,   0.000000,   0.000036]
    Total nuclear charge:                  17.000000
      Center of nuclear charge [Ang]:    [ -0.000000,   0.000000,  -0.000000]
    Dipole moment [D]:                     0.003150
      Cartesian components [D]:          [  0.000000,  -0.000000,  -0.003150]
    RMS size of the density [Ang]:         1.761595
      Cartesian components [Ang]:        [  0.721633,   0.589909,   1.494814]
  
  Exciton analysis of the difference density matrix
    <r_h> [Ang]:                  [  0.000000,  -0.000000,   0.120417]
    <r_e> [Ang]:                  [ -0.000000,   0.000000,   1.839989]
    |<r_e - r_h>| [Ang]:            1.719572
    Hole size [Ang]:                1.961604
      Cartesian components [Ang]: [  0.878704,   0.950761,   1.473711]
    Electron size [Ang]:            2.777263
      Cartesian components [Ang]: [  1.329837,   1.315970,   2.052546]

  Transition density matrix analysis:
  -----------------------------------
  
  CT numbers (Mulliken)
    omega =     0.9034
    <Phe> =    -0.0063
  
  Exciton analysis of the transition density matrix
    Trans. dipole moment [D]:             0.747793
      Cartesian components [D]:         [  0.000000,   0.747793,  -0.000000]
    <r_h> [Ang]:                        [  0.000000,  -0.000000,   0.280061]
    <r_e> [Ang]:                        [ -0.000000,   0.000000,   2.876553]
    |<r_e - r_h>| [Ang]:                  2.596492
    Hole size [Ang]:                      1.279086
      Cartesian components [Ang]:       [  0.522454,   0.885751,   0.760623]
    Electron size [Ang]:                  2.576980
      Cartesian components [Ang]:       [  1.530383,   1.538002,   1.390433]
    RMS electron-hole separation [Ang]:   3.871513
      Cartesian components [Ang]:       [  1.616571,   1.767800,   3.041413]
    Covariance(r_h, r_e) [Ang^2]:         0.015022
    Correlation coefficient:              0.004557
    Center-of-mass size [Ang]:            1.441087
      Cartesian components [Ang]:       [  0.808820,   0.890912,   0.792982]

  Decomposition into state-averaged NTOs
    H- 1 -> L+ 1: -0.6692 ( 89.6%)
                   omega =  90.3%
  ----------------------------------------------------------------------------


  Excited state 5 (singlet, B2)                                    [converged]
  ----------------------------------------------------------------------------
  Term symbol:  5 (1) B2                                    R^2 =  3.17607e-13

  Total energy:                                            -78.5962219207 a.u.
  Excitation energy:                                               6.582878 eV

  Osc. strength:                                                      0.000071
  Trans. dip. moment [a.u.]:           [  -0.000000,   -0.020990,    0.000000]
  <i|r^2|0> [a.u.]:                    [   0.000000,    0.000000,    0.000000]

  Dip. moment [a.u.]:                  [  -0.000000,   -0.000000,    2.073331]
  Total dipole [Debye]:                                               5.269884
  <r^2> [a.u.]:                        [  33.528281,   39.134050,  101.941239]
  Total <r^2> [a.u.]:                                               174.603570

  V1^2 = 0.0181, V2^2 = 0.9819

  Important amplitudes:
      occ i      occ j       vir a       vir b          v   
    ---------------------------------------------------------
     6 (A1) A   1 (B2) B    4 (B2) A    3 (B2) B      0.2277
     6 (A1) A   1 (B2) B    3 (B2) A    3 (B2) B      0.1618
    ---------------------------------------------------------

  Density matrix analysis:
  ------------------------
  NOs
    Occupation of frontier NOs:
       0.9684   0.9702
    Number of electrons: 18.000000
    Number of unpaired electrons: n_u =  3.24701, n_u,nl =  3.04251
    NO participation ratio (PR_NO):  4.550180
  
  
  Mulliken Population Analysis
  Atom      Charge (e)              h+              e-           Del q
  --------------------------------------------------------------------
   1 C       -0.230711        0.880809       -0.136102        0.744707
   2 C       -1.544420        0.475173       -1.828138       -1.352965
   3 H        0.053604        0.006507       -0.008439       -0.001932
   4 H        0.154602       -0.004531       -0.007502       -0.012034
   5 H        0.053604        0.006507       -0.008439       -0.001932
   6 H        0.154602       -0.004531       -0.007502       -0.012034
   7 H        0.358720        0.640693       -0.004504        0.636190
  --------------------------------------------------------------------
  Sum:       -1.000000        2.000625       -2.000625        0.000000
  
  Multipole moment analysis of the density matrix
    Molecular charge:                      -1.000000
    Number of electrons:                   18.000000
      Center of electronic charge [Ang]: [  0.000000,   0.000000,  -0.060953]
    Total nuclear charge:                  17.000000
      Center of nuclear charge [Ang]:    [ -0.000000,   0.000000,  -0.000000]
    Dipole moment [D]:                     5.269882
      Cartesian components [D]:          [ -0.000000,  -0.000000,   5.269882]
    RMS size of the density [Ang]:         1.647002
      Cartesian components [Ang]:        [  0.722222,   0.780265,   1.257855]
  
  Exciton analysis of the difference density matrix
    <r_h> [Ang]:                  [  0.000000,  -0.000000,  -1.303147]
    <r_e> [Ang]:                  [  0.000000,   0.000000,  -0.565486]
    |<r_e - r_h>| [Ang]:            0.737661
    Hole size [Ang]:                2.124951
      Cartesian components [Ang]: [  0.733562,   0.899898,   1.779744]
    Electron size [Ang]:            2.797576
      Cartesian components [Ang]: [  1.136276,   1.943134,   1.661186]

  Transition density matrix analysis:
  -----------------------------------
  
  CT numbers (Mulliken)
    omega =     0.0184
    <Phe> =     0.0057
  
  Exciton analysis of the transition density matrix
    Trans. dipole moment [D]:             0.026675
      Cartesian components [D]:         [ -0.000000,  -0.026675,   0.000000]
    <r_h> [Ang]:                        [  0.000000,   0.000000,  -2.109992]
    <r_e> [Ang]:                        [  0.000000,   0.000000,   0.144805]
    |<r_e - r_h>| [Ang]:                  2.254797
    Hole size [Ang]:                      2.025831
      Cartesian components [Ang]:       [  0.847359,   0.892352,   1.609249]
    Electron size [Ang]:                  2.787646
      Cartesian components [Ang]:       [  1.080078,   1.735121,   1.895721]
    RMS electron-hole separation [Ang]:   4.284421
      Cartesian components [Ang]:       [  1.372563,   1.938968,   3.565492]
    Covariance(r_h, r_e) [Ang^2]:        -0.698596
    Correlation coefficient:             -0.123704
    Center-of-mass size [Ang]:            1.618469
      Cartesian components [Ang]:       [  0.686520,   0.981616,   1.088376]

  Decomposition into state-averaged NTOs
                   omega =   1.8%
  ----------------------------------------------------------------------------


  Excited state 6 (singlet, B2)                                    [converged]
  ----------------------------------------------------------------------------
  Term symbol:  6 (1) B2                                    R^2 =  3.29286e-12

  Total energy:                                            -78.5799363131 a.u.
  Excitation energy:                                               7.026032 eV

  Osc. strength:                                                      0.000535
  Trans. dip. moment [a.u.]:           [  -0.000000,   -0.055754,   -0.000000]
  <i|r^2|0> [a.u.]:                    [  -0.000000,   -0.000000,    0.000000]

  Dip. moment [a.u.]:                  [  -0.000000,   -0.000000,   -3.035877]
  Total dipole [Debye]:                                               7.716430
  <r^2> [a.u.]:                        [  35.104559,   43.866378,  100.849607]
  Total <r^2> [a.u.]:                                               179.820545

  V1^2 = 0.0178, V2^2 = 0.9822

  Important amplitudes:
      occ i      occ j       vir a       vir b          v   
    ---------------------------------------------------------
     6 (A1) A   1 (B2) B    4 (B2) A    2 (B2) B     -0.2353
     6 (A1) A   1 (B2) B    2 (B2) A    4 (B2) B     -0.1265
    ---------------------------------------------------------

  Density matrix analysis:
  ------------------------
  NOs
    Occupation of frontier NOs:
       0.9574   0.9695
    Number of electrons: 18.000000
    Number of unpaired electrons: n_u =  3.60081, n_u,nl =  3.55485
    NO participation ratio (PR_NO):  4.805459
  
  
  Mulliken Population Analysis
  Atom      Charge (e)              h+              e-           Del q
  --------------------------------------------------------------------
   1 C       -1.729591        0.907811       -1.661984       -0.754173
   2 C       -0.043271        0.444789       -0.296605        0.148184
   3 H        0.054202        0.004839       -0.006173       -0.001334
   4 H        0.152392       -0.003023       -0.011220       -0.014243
   5 H        0.054202        0.004839       -0.006173       -0.001334
   6 H        0.152392       -0.003023       -0.011220       -0.014243
   7 H        0.359673        0.637905       -0.000763        0.637143
  --------------------------------------------------------------------
  Sum:       -1.000000        1.994137       -1.994137        0.000000
  
  Multipole moment analysis of the density matrix
    Molecular charge:                      -1.000000
    Number of electrons:                   18.000000
      Center of electronic charge [Ang]: [  0.000000,   0.000000,   0.089251]
    Total nuclear charge:                  17.000000
      Center of nuclear charge [Ang]:    [ -0.000000,   0.000000,  -0.000000]
    Dipole moment [D]:                     7.716428
      Cartesian components [D]:          [ -0.000000,  -0.000000,  -7.716428]
    RMS size of the density [Ang]:         1.670188
      Cartesian components [Ang]:        [  0.739004,   0.826096,   1.249386]
  
  Exciton analysis of the difference density matrix
    <r_h> [Ang]:                  [  0.000000,  -0.000000,  -1.289517]
    <r_e> [Ang]:                  [  0.000000,   0.000000,   0.806357]
    |<r_e - r_h>| [Ang]:            2.095874
    Hole size [Ang]:                2.126835
      Cartesian components [Ang]: [  0.729856,   0.898644,   1.784146]
    Electron size [Ang]:            2.864883
      Cartesian components [Ang]: [  1.228618,   2.108958,   1.500116]

  Transition density matrix analysis:
  -----------------------------------
  
  CT numbers (Mulliken)
    omega =     0.0178
    <Phe> =    -0.0031
  
  Exciton analysis of the transition density matrix
    Trans. dipole moment [D]:             0.070857
      Cartesian components [D]:         [ -0.000000,  -0.070857,  -0.000000]
    <r_h> [Ang]:                        [ -0.000000,  -0.000000,  -2.543570]
    <r_e> [Ang]:                        [ -0.000000,  -0.000000,  -0.104271]
    |<r_e - r_h>| [Ang]:                  2.439299
    Hole size [Ang]:                      1.850047
      Cartesian components [Ang]:       [  0.917017,   0.918646,   1.318273]
    Electron size [Ang]:                  3.333648
      Cartesian components [Ang]:       [  1.269530,   2.148412,   2.210391]
    RMS electron-hole separation [Ang]:   4.497508
      Cartesian components [Ang]:       [  1.565927,   2.339695,   3.507317]
    Covariance(r_h, r_e) [Ang^2]:         0.129242
    Correlation coefficient:              0.020956
    Center-of-mass size [Ang]:            1.923172
      Cartesian components [Ang]:       [  0.783122,   1.166726,   1.313035]

  Decomposition into state-averaged NTOs
                   omega =   1.8%
  ----------------------------------------------------------------------------


  Excited state 7 (singlet, B2)                                    [converged]
  ----------------------------------------------------------------------------
  Term symbol:  7 (1) B2                                    R^2 =  9.78621e-13

  Total energy:                                            -78.5611309419 a.u.
  Excitation energy:                                               7.537752 eV

  Osc. strength:                                                      0.153787
  Trans. dip. moment [a.u.]:           [   0.000000,    0.912556,   -0.000000]
  <i|r^2|0> [a.u.]:                    [  -0.000000,   -0.000000,   -0.000000]

  Dip. moment [a.u.]:                  [  -0.000000,   -0.000000,    3.503506]
  Total dipole [Debye]:                                               8.905027
  <r^2> [a.u.]:                        [  35.765736,   24.379128,  124.375000]
  Total <r^2> [a.u.]:                                               184.519864

  V1^2 = 0.9282, V2^2 = 0.0718

  Important amplitudes:
      occ i      occ j       vir a       vir b          v   
    ---------------------------------------------------------
     1 (B2) A               8 (A1) A                 -0.6016
     1 (B2) A               7 (A1) A                  0.2374
    ---------------------------------------------------------

  Density matrix analysis:
  ------------------------
  NOs
    Occupation of frontier NOs:
       0.9775   0.9812
    Number of electrons: 18.000000
    Number of unpaired electrons: n_u =  2.39392, n_u,nl =  2.03759
    NO participation ratio (PR_NO):  2.971796
  
  
  Mulliken Population Analysis
  Atom      Charge (e)              h+              e-           Del q
  --------------------------------------------------------------------
   1 C       -4.957954        0.417918       -4.400454       -3.982536
   2 C        3.508569        0.658665        3.041360        3.700024
   3 H        0.143790        0.091412       -0.003158        0.088254
   4 H        0.237590        0.073524       -0.002569        0.070955
   5 H        0.143790        0.091412       -0.003158        0.088254
   6 H        0.237590        0.073524       -0.002569        0.070955
   7 H       -0.313376        0.016840       -0.052747       -0.035907
  --------------------------------------------------------------------
  Sum:       -1.000000        1.423294       -1.423294       -0.000000
  
  Multipole moment analysis of the density matrix
    Molecular charge:                      -1.000000
    Number of electrons:                   18.000000
      Center of electronic charge [Ang]: [  0.000000,   0.000000,  -0.102999]
    Total nuclear charge:                  17.000000
      Center of nuclear charge [Ang]:    [ -0.000000,   0.000000,  -0.000000]
    Dipole moment [D]:                     8.905024
      Cartesian components [D]:          [ -0.000000,  -0.000000,   8.905024]
    RMS size of the density [Ang]:         1.691151
      Cartesian components [Ang]:        [  0.745931,   0.615849,   1.387195]
  
  Exciton analysis of the difference density matrix
    <r_h> [Ang]:                  [  0.000000,  -0.000000,   0.038390]
    <r_e> [Ang]:                  [  0.000000,   0.000000,   0.543534]
    |<r_e - r_h>| [Ang]:            0.505143
    Hole size [Ang]:                1.880510
      Cartesian components [Ang]: [  0.850637,   0.952907,   1.380109]
    Electron size [Ang]:            2.812450
      Cartesian components [Ang]: [  1.490721,   1.474476,   1.874445]

  Transition density matrix analysis:
  -----------------------------------
  
  CT numbers (Mulliken)
    omega =     0.8980
    <Phe> =    -0.0148
  
  Exciton analysis of the transition density matrix
    Trans. dipole moment [D]:             1.159743
      Cartesian components [D]:         [  0.000000,   1.159743,  -0.000000]
    <r_h> [Ang]:                        [  0.000000,  -0.000000,   0.264407]
    <r_e> [Ang]:                        [  0.000000,   0.000000,   0.860164]
    |<r_e - r_h>| [Ang]:                  0.595757
    Hole size [Ang]:                      1.282812
      Cartesian components [Ang]:       [  0.522679,   0.885436,   0.767082]
    Electron size [Ang]:                  3.080514
      Cartesian components [Ang]:       [  1.699914,   1.693195,   1.932085]
    RMS electron-hole separation [Ang]:   3.377014
      Cartesian components [Ang]:       [  1.777525,   1.901231,   2.151731]
    Covariance(r_h, r_e) [Ang^2]:         0.042938
    Correlation coefficient:              0.010866
    Center-of-mass size [Ang]:            1.674892
      Cartesian components [Ang]:       [  0.889692,   0.960095,   1.044953]

  Decomposition into state-averaged NTOs
    H- 1 -> L+ 2: -0.6667 ( 88.9%)
                   omega =  89.8%
  ----------------------------------------------------------------------------


  Excited state 8 (singlet, B2)                                    [converged]
  ----------------------------------------------------------------------------
  Term symbol:  8 (1) B2                                    R^2 =  5.14350e-10

  Total energy:                                            -78.5283846177 a.u.
  Excitation energy:                                               8.428825 eV

  Osc. strength:                                                      0.000018
  Trans. dip. moment [a.u.]:           [  -0.000000,    0.009357,    0.000000]
  <i|r^2|0> [a.u.]:                    [  -0.000000,    0.000000,    0.000000]

  Dip. moment [a.u.]:                  [  -0.000000,    0.000000,   -0.117700]
  Total dipole [Debye]:                                               0.299164
  <r^2> [a.u.]:                        [  31.752178,   33.603216,   90.336592]
  Total <r^2> [a.u.]:                                               155.691987

  V1^2 = 0.7601, V2^2 = 0.2399

  Important amplitudes:
      occ i      occ j       vir a       vir b          v   
    ---------------------------------------------------------
     6 (A1) A               5 (B2) A                 -0.5988
     6 (A1) A               6 (B2) A                 -0.1228
    ---------------------------------------------------------

  Density matrix analysis:
  ------------------------
  NOs
    Occupation of frontier NOs:
       0.8677   0.9789
    Number of electrons: 18.000000
    Number of unpaired electrons: n_u =  2.68180, n_u,nl =  2.21613
    NO participation ratio (PR_NO):  4.031585
  
  
  Mulliken Population Analysis
  Atom      Charge (e)              h+              e-           Del q
  --------------------------------------------------------------------
   1 C       -0.788061        0.876435       -0.689078        0.187357
   2 C       -0.549525        0.162037       -0.520107       -0.358070
   3 H        0.060380        0.001664        0.003180        0.004844
   4 H        0.085017       -0.012806       -0.068812       -0.081618
   5 H        0.060380        0.001664        0.003180        0.004844
   6 H        0.085017       -0.012806       -0.068812       -0.081618
   7 H        0.046792        0.425650       -0.101388        0.324262
  --------------------------------------------------------------------
  Sum:       -1.000000        1.441836       -1.441836        0.000000
  
  Multipole moment analysis of the density matrix
    Molecular charge:                      -1.000000
    Number of electrons:                   18.000000
      Center of electronic charge [Ang]: [  0.000000,  -0.000000,   0.003460]
    Total nuclear charge:                  17.000000
      Center of nuclear charge [Ang]:    [ -0.000000,   0.000000,  -0.000000]
    Dipole moment [D]:                     0.299163
      Cartesian components [D]:          [ -0.000000,   0.000000,  -0.299163]
    RMS size of the density [Ang]:         1.556313
      Cartesian components [Ang]:        [  0.702832,   0.723028,   1.185482]
  
  Exciton analysis of the difference density matrix
    <r_h> [Ang]:                  [  0.000000,   0.000000,  -2.170874]
    <r_e> [Ang]:                  [  0.000000,  -0.000000,  -0.343185]
    |<r_e - r_h>| [Ang]:            1.827689
    Hole size [Ang]:                2.236784
      Cartesian components [Ang]: [  1.033180,   1.061454,   1.676025]
    Electron size [Ang]:            2.933728
      Cartesian components [Ang]: [  1.329419,   2.041549,   1.634466]

  Transition density matrix analysis:
  -----------------------------------
  
  CT numbers (Mulliken)
    omega =     0.7477
    <Phe> =    -0.0005
  
  Exciton analysis of the transition density matrix
    Trans. dipole moment [D]:             0.011892
      Cartesian components [D]:         [ -0.000000,   0.011892,   0.000000]
    <r_h> [Ang]:                        [ -0.000000,   0.000000,  -2.827326]
    <r_e> [Ang]:                        [  0.000000,  -0.000000,   0.127834]
    |<r_e - r_h>| [Ang]:                  2.955160
    Hole size [Ang]:                      1.647641
      Cartesian components [Ang]:       [  0.920627,   0.926361,   1.004501]
    Electron size [Ang]:                  3.026924
      Cartesian components [Ang]:       [  1.353289,   2.338464,   1.364721]
    RMS electron-hole separation [Ang]:   4.537990
      Cartesian components [Ang]:       [  1.636709,   2.514027,   3.405026]
    Covariance(r_h, r_e) [Ang^2]:         0.008304
    Correlation coefficient:              0.001665
    Center-of-mass size [Ang]:            1.724355
      Cartesian components [Ang]:       [  0.818394,   1.258251,   0.848784]

  Decomposition into state-averaged NTOs
    H- 0 -> L+ 5: -0.6083 ( 74.0%)
                   omega =  74.8%
  ----------------------------------------------------------------------------


  Excited state 9 (singlet, B2)                                    [converged]
  ----------------------------------------------------------------------------
  Term symbol:  9 (1) B2                                    R^2 =  2.13637e-07

  Total energy:                                            -78.5095297921 a.u.
  Excitation energy:                                               8.941891 eV

  Osc. strength:                                                      0.000036
  Trans. dip. moment [a.u.]:           [   0.000000,    0.012812,   -0.000000]
  <i|r^2|0> [a.u.]:                    [   0.000000,   -0.000000,   -0.000000]

  Dip. moment [a.u.]:                  [  -0.000000,   -0.000000,    0.912419]
  Total dipole [Debye]:                                               2.319138
  <r^2> [a.u.]:                        [  43.381029,   32.312222,  126.445833]
  Total <r^2> [a.u.]:                                               202.139084

  V1^2 = 0.0533, V2^2 = 0.9467

  Important amplitudes:
      occ i      occ j       vir a       vir b          v   
    ---------------------------------------------------------
     6 (A1) A   1 (B2) B    7 (A1) A    9 (A1) B      0.1591
     6 (A1) A               5 (B2) A                  0.1559
    ---------------------------------------------------------

  Density matrix analysis:
  ------------------------
  NOs
    Occupation of frontier NOs:
       0.9620   1.0044
    Number of electrons: 18.000000
    Number of unpaired electrons: n_u =  4.15398, n_u,nl =  3.88727
    NO participation ratio (PR_NO):  5.261515
  
  
  Mulliken Population Analysis
  Atom      Charge (e)              h+              e-           Del q
  --------------------------------------------------------------------
   1 C       -2.151647        0.933326       -2.109555       -1.176228
   2 C        0.492256        0.380656        0.303055        0.683711
   3 H        0.078423        0.004198        0.018689        0.022887
   4 H        0.164685       -0.007645        0.005695       -0.001950
   5 H        0.078423        0.004198        0.018689        0.022887
   6 H        0.164685       -0.007645        0.005695       -0.001950
   7 H        0.173174        0.646248       -0.195604        0.450644
  --------------------------------------------------------------------
  Sum:       -1.000000        1.953336       -1.953336       -0.000000
  
  Multipole moment analysis of the density matrix
    Molecular charge:                      -1.000000
    Number of electrons:                   18.000000
      Center of electronic charge [Ang]: [  0.000000,   0.000000,  -0.026824]
    Total nuclear charge:                  17.000000
      Center of nuclear charge [Ang]:    [ -0.000000,   0.000000,  -0.000000]
    Dipole moment [D]:                     2.319137
      Cartesian components [D]:          [ -0.000000,  -0.000000,   2.319137]
    RMS size of the density [Ang]:         1.773129
      Cartesian components [Ang]:        [  0.821514,   0.709003,   1.402290]
  
  Exciton analysis of the difference density matrix
    <r_h> [Ang]:                  [  0.000000,   0.000000,  -1.353284]
    <r_e> [Ang]:                  [  0.000000,   0.000000,  -0.283263]
    |<r_e - r_h>| [Ang]:            1.070021
    Hole size [Ang]:                2.119925
      Cartesian components [Ang]: [  0.733620,   0.892881,   1.777258]
    Electron size [Ang]:            3.488849
      Cartesian components [Ang]: [  1.649824,   1.690272,   2.567709]

  Transition density matrix analysis:
  -----------------------------------
  
  CT numbers (Mulliken)
    omega =     0.0524
    <Phe> =    -0.0009
  
  Exciton analysis of the transition density matrix
    Trans. dipole moment [D]:             0.016283
      Cartesian components [D]:         [  0.000000,   0.016283,  -0.000000]
    <r_h> [Ang]:                        [ -0.000000,   0.000000,  -2.779838]
    <r_e> [Ang]:                        [ -0.000000,  -0.000000,  -0.073443]
    |<r_e - r_h>| [Ang]:                  2.706395
    Hole size [Ang]:                      1.681204
      Cartesian components [Ang]:       [  0.917037,   0.922940,   1.064740]
    Electron size [Ang]:                  2.926085
      Cartesian components [Ang]:       [  1.308892,   2.256865,   1.324891]
    RMS electron-hole separation [Ang]:   4.333701
      Cartesian components [Ang]:       [  1.598083,   2.440186,   3.205089]
    Covariance(r_h, r_e) [Ang^2]:        -0.033986
    Correlation coefficient:             -0.006909
    Center-of-mass size [Ang]:            1.682294
      Cartesian components [Ang]:       [  0.799131,   1.218197,   0.841130]

  Decomposition into state-averaged NTOs
    H- 0 -> L+ 5:  0.1601 (  5.1%)
                   omega =   5.2%
  ----------------------------------------------------------------------------


  Excited state 10 (singlet, B2)                                    [converged]
  ----------------------------------------------------------------------------
  Term symbol:  10 (1) B2                                   R^2 =  8.38107e-06

  Total energy:                                            -78.4953874745 a.u.
  Excitation energy:                                               9.326723 eV

  Osc. strength:                                                      0.000134
  Trans. dip. moment [a.u.]:           [   0.000000,    0.024176,   -0.000000]
  <i|r^2|0> [a.u.]:                    [  -0.000000,    0.000000,   -0.000000]

  Dip. moment [a.u.]:                  [  -0.000000,   -0.000000,    4.035303]
  Total dipole [Debye]:                                              10.256718
  <r^2> [a.u.]:                        [  29.605231,   22.775019,  114.851808]
  Total <r^2> [a.u.]:                                               167.232058

  V1^2 = 0.8303, V2^2 = 0.1697

  Important amplitudes:
      occ i      occ j       vir a       vir b          v   
    ---------------------------------------------------------
     5 (A1) A               4 (B2) A                  0.4913
     5 (A1) A               3 (B2) A                  0.2695
    ---------------------------------------------------------

  Density matrix analysis:
  ------------------------
  NOs
    Occupation of frontier NOs:
       0.9303   1.1327
    Number of electrons: 18.000000
    Number of unpaired electrons: n_u =  2.68445, n_u,nl =  2.24582
    NO participation ratio (PR_NO):  4.230806
  
  
  Mulliken Population Analysis
  Atom      Charge (e)              h+              e-           Del q
  --------------------------------------------------------------------
   1 C       -1.245062        0.401196       -0.670840       -0.269644
   2 C       -0.203081        0.467481       -0.479108       -0.011626
   3 H        0.108162        0.062760       -0.010135        0.052626
   4 H        0.208219        0.055747       -0.014163        0.041584
   5 H        0.108162        0.062760       -0.010135        0.052626
   6 H        0.208219        0.055747       -0.014163        0.041584
   7 H       -0.184618        0.121128       -0.028276        0.092852
  --------------------------------------------------------------------
  Sum:       -1.000000        1.226820       -1.226820       -0.000000
  
  Multipole moment analysis of the density matrix
    Molecular charge:                      -1.000000
    Number of electrons:                   18.000000
      Center of electronic charge [Ang]: [  0.000000,   0.000000,  -0.118633]
    Total nuclear charge:                  17.000000
      Center of nuclear charge [Ang]:    [ -0.000000,   0.000000,  -0.000000]
    Dipole moment [D]:                     10.256715
      Cartesian components [D]:          [ -0.000000,  -0.000000,  10.256715]
    RMS size of the density [Ang]:         1.608595
      Cartesian components [Ang]:        [  0.678655,   0.595243,   1.331425]
  
  Exciton analysis of the difference density matrix
    <r_h> [Ang]:                  [  0.000000,   0.000000,  -0.344084]
    <r_e> [Ang]:                  [  0.000000,   0.000000,   0.012573]
    |<r_e - r_h>| [Ang]:            0.356656
    Hole size [Ang]:                1.809309
      Cartesian components [Ang]: [  0.711938,   0.616782,   1.544773]
    Electron size [Ang]:            2.204724
      Cartesian components [Ang]: [  0.916168,   1.217817,   1.593225]

  Transition density matrix analysis:
  -----------------------------------
  
  CT numbers (Mulliken)
    omega =     0.8033
    <Phe> =    -0.0183
  
  Exciton analysis of the transition density matrix
    Trans. dipole moment [D]:             0.030725
      Cartesian components [D]:         [  0.000000,   0.030725,  -0.000000]
    <r_h> [Ang]:                        [  0.000000,  -0.000000,   0.038479]
    <r_e> [Ang]:                        [ -0.000000,   0.000000,   0.238131]
    |<r_e - r_h>| [Ang]:                  0.199652
    Hole size [Ang]:                      1.332653
      Cartesian components [Ang]:       [  0.600647,   0.437400,   1.106286]
    Electron size [Ang]:                  1.898223
      Cartesian components [Ang]:       [  0.736231,   1.163631,   1.306590]
    RMS electron-hole separation [Ang]:   2.300887
      Cartesian components [Ang]:       [  0.950707,   1.239715,   1.689185]
    Covariance(r_h, r_e) [Ang^2]:         0.062498
    Correlation coefficient:              0.024706
    Center-of-mass size [Ang]:            1.173053
      Cartesian components [Ang]:       [  0.474811,   0.623261,   0.873013]

  Decomposition into state-averaged NTOs
    H- 2 -> L+ 0: -0.6164 ( 76.0%)
    H- 1 -> L+ 7:  0.1093 (  2.4%)
                   omega =  80.3%
  ----------------------------------------------------------------------------


--------------------------------------------------------------------------------
  Time of ADC calculation:  CPU 625.34 s  wall 156.05 s
================================================================================
 
 --------------------------------------------------------------
             Orbital Energies (a.u.) and Symmetries
 --------------------------------------------------------------
 
 Alpha MOs, Restricted
 -- Occupied --                  
-11.075 -11.071  -0.882  -0.620  -0.501  -0.405  -0.353  -0.219
  1 A1    2 A1    3 A1    4 A1    1 B1    5 A1    2 B1    1 B2                 
 -0.034
  6 A1                                                                         
 -- Virtual --                   
  0.163   0.183   0.190   0.234   0.234   0.253   0.315   0.325
  7 A1    3 B1    2 B2    3 B2    4 B1    8 A1    9 A1    4 B2                 
  0.336   0.404   0.430   0.446   0.466   0.473   0.495   0.507
 10 A1   11 A1    5 B1   12 A1    5 B2    6 B1    7 B1   13 A1                 
  0.564   0.583   0.702   0.766   0.984   1.009   1.077   1.091
  6 B2   14 A1    8 B1   15 A1   16 A1    9 B1   17 A1   18 A1                 
  1.122   1.157   1.189   1.212   1.232   1.273   1.284   1.325
 19 A1   10 B1   11 B1   20 A1    7 B2    1 A2    8 B2   21 A1                 
  1.446   1.449   1.480   1.584   1.764   1.789   1.852   1.884
  2 A2    9 B2   22 A1   12 B1   23 A1   13 B1   14 B1   10 B2                 
  1.984   2.029   2.058   2.107   2.177   2.225   2.256   2.300
 15 B1   11 B2   24 A1   12 B2    3 A2   25 A1   16 B1   26 A1                 
  2.344   2.525   2.573   2.630   2.744   2.744   2.990   2.996
 13 B2   27 A1    4 A2   28 A1   29 A1   17 B1   18 B1   30 A1                 
  3.441   3.505
 31 A1   19 B1                                                                 
 
 Beta MOs, Restricted
 -- Occupied --                  
-11.075 -11.071  -0.882  -0.620  -0.501  -0.405  -0.353  -0.219
  1 A1    2 A1    3 A1    4 A1    1 B1    5 A1    2 B1    1 B2                 
 -0.034
  6 A1                                                                         
 -- Virtual --                   
  0.163   0.183   0.190   0.234   0.234   0.253   0.315   0.325
  7 A1    3 B1    2 B2    3 B2    4 B1    8 A1    9 A1    4 B2                 
  0.336   0.404   0.430   0.446   0.466   0.473   0.495   0.507
 10 A1   11 A1    5 B1   12 A1    5 B2    6 B1    7 B1   13 A1                 
  0.564   0.583   0.702   0.766   0.984   1.009   1.077   1.091
  6 B2   14 A1    8 B1   15 A1   16 A1    9 B1   17 A1   18 A1                 
  1.122   1.157   1.189   1.212   1.232   1.273   1.284   1.325
 19 A1   10 B1   11 B1   20 A1    7 B2    1 A2    8 B2   21 A1                 
  1.446   1.449   1.480   1.584   1.764   1.789   1.852   1.884
  2 A2    9 B2   22 A1   12 B1   23 A1   13 B1   14 B1   10 B2                 
  1.984   2.029   2.058   2.107   2.177   2.225   2.256   2.300
 15 B1   11 B2   24 A1   12 B2    3 A2   25 A1   16 B1   26 A1                 
  2.344   2.525   2.573   2.630   2.744   2.744   2.990   2.996
 13 B2   27 A1    4 A2   28 A1   29 A1   17 B1   18 B1   30 A1                 
  3.441   3.505
 31 A1   19 B1                                                                 
 --------------------------------------------------------------
 
          Ground-State Mulliken Net Atomic Charges

     Atom                 Charge (a.u.)
  ----------------------------------------
      1 C                    -0.980909
      2 C                    -0.126692
      3 H                     0.048377
      4 H                     0.163805
      5 H                     0.048377
      6 H                     0.163805
      7 H                    -0.316764
  ----------------------------------------
  Sum of atomic charges =    -1.000000

 -----------------------------------------------------------------
                    Cartesian Multipole Moments
 -----------------------------------------------------------------
    Charge (ESU x 10^10)
                -4.8032
    Dipole Moment (Debye)
         X      -0.0000      Y       0.0000      Z      12.3759
       Tot      12.3759
    Quadrupole Moments (Debye-Ang)
        XX     -19.6498     XY       0.0000     YY     -24.0080
        XZ       0.0000     YZ       0.0000     ZZ     -62.0631
    Octopole Moments (Debye-Ang^2)
       XXX      -0.0000    XXY       0.0000    XYY      -0.0000
       YYY       0.0000    XXZ      17.0982    XYZ      -0.0000
       YYZ      16.9902    XZZ      -0.0000    YZZ      -0.0000
       ZZZ     161.7611
    Hexadecapole Moments (Debye-Ang^3)
      XXXX     -61.4149   XXXY       0.0000   XXYY     -20.7680
      XYYY      -0.0000   YYYY     -57.9096   XXXZ       0.0000
      XXYZ       0.0000   XYYZ       0.0000   YYYZ       0.0000
      XXZZ     -86.1839   XYZZ      -0.0000   YYZZ     -89.7032
      XZZZ       0.0000   YZZZ       0.0000   ZZZZ    -750.7346
 -----------------------------------------------------------------
 Total job time:  239.07s(wall), 672.33s(cpu) 
 Sun Mar 27 12:55:36 2022

        *************************************************************
        *                                                           *
        *  Thank you very much for using Q-Chem.  Have a nice day.  *
        *                                                           *
        *************************************************************


