/src/tsommerfeld/qchem/exe/qcprog.exe .input1.305556.30663.qcin.1 /src/jdavis/qchem.scratch/qchem30663/

                  Welcome to Q-Chem
     A Quantum Leap Into The Future Of Chemistry


 Q-Chem 5.4 (devel), Q-Chem, Inc., Pleasanton, CA (2021)

 E. Epifanovsky,  A. T. B. Gilbert,  Xintian Feng,  Joonho Lee,  Yuezhi Mao,  
 N. Mardirossian,  P. Pokhilko,  A. White,  M. Wormit,  M. P. Coons,  
 A. L. Dempwolff,  Zhengting Gan,  D. Hait,  P. R. Horn,  L. D. Jacobson,  
 I. Kaliman,  J. Kussmann,  A. W. Lange,  Ka Un Lao,  D. S. Levine,  Jie Liu,  
 S. C. McKenzie,  A. F. Morrison,  K. Nanda,  F. Plasser,  D. R. Rehn,  
 M. L. Vidal,  Zhi-Qiang You,  Ying Zhu,  B. Alam,  B. Albrecht,  
 A. Aldossary,  E. Alguire,  J. H. Andersen,  D. Barton,  K. Begam,  A. Behn,  
 Y. A. Bernard,  E. J. Berquist,  H. Burton,  A. Carreras,  K. Carter-Fenk,  
 R. Chakraborty,  A. D. Chien,  K. D. Closser,  V. Cofer-Shabica,  
 S. Dasgupta,  Jia Deng,  M. de Wergifosse,  M. Diedenhofen,  Hainam Do,  
 S. Ehlert,  Po-Tung Fang,  S. Fatehi,  Qingguo Feng,  T. Friedhoff,  
 J. Gayvert,  Qinghui Ge,  G. Gidofalvi,  M. Goldey,  J. Gomes,  
 C. Gonzalez-Espinoza,  S. Gulania,  A. Gunina,  M. W. D. Hanson-Heine,  
 P. H. P. Harbach,  A. W. Hauser,  M. F. Herbst,  M. Hernandez Vera,  
 M. Hodecker,  Z. C. Holden,  S. Houck,  Xunkun Huang,  Kerwin Hui,  
 B. C. Huynh,  M. Ivanov,  Hyunjun Ji,  Hanjie Jiang,  B. Kaduk,  S. Kaehler,  
 K. Khistyaev,  Jaehoon Kim,  P. Klunzinger,  Z. Koczor-Benda,  
 Joong Hoon Koh,  D. Kosenkov,  L. Koulias,  T. Kowalczyk,  C. M. Krauter,  
 K. Kue,  A. Kunitsa,  T. Kus,  A. Landau,  K. V. Lawler,  D. Lefrancois,  
 S. Lehtola,  Rain Li,  Yi-Pei Li,  Jiashu Liang,  M. Liebenthal,  
 Hung-Hsuan Lin,  You-Sheng Lin,  Fenglai Liu,  Kuan-Yu Liu,  
 M. Loipersberger,  A. Luenser,  A. Manjanath,  P. Manohar,  E. Mansoor,  
 S. F. Manzer,  Shan-Ping Mao,  A. V. Marenich,  T. Markovich,  S. Mason,  
 S. A. Maurer,  P. F. McLaughlin,  M. F. S. J. Menger,  J.-M. Mewes,  
 S. A. Mewes,  P. Morgante,  J. W. Mullinax,  K. J. Oosterbaan,  G. Paran,  
 Alexander C. Paul,  Suranjan K. Paul,  F. Pavosevic,  Zheng Pei,  S. Prager,  
 E. I. Proynov,  E. Ramos,  B. Rana,  A. E. Rask,  A. Rettig,  R. M. Richard,  
 F. Rob,  E. Rossomme,  T. Scheele,  M. Scheurer,  M. Schneider,  
 N. Sergueev,  S. M. Sharada,  W. Skomorowski,  D. W. Small,  C. J. Stein,  
 Yu-Chuan Su,  E. J. Sundstrom,  Zhen Tao,  J. Thirman,  T. Tsuchimochi,  
 N. M. Tubman,  S. P. Veccham,  O. Vydrov,  J. Wenzel,  J. Witte,  A. Yamada,  
 Kun Yao,  S. Yeganeh,  S. R. Yost,  A. Zech,  Igor Ying Zhang,  Xing Zhang,  
 Yu Zhang,  D. Zuev,  A. Aspuru-Guzik,  A. T. Bell,  N. A. Besley,  
 K. B. Bravaya,  B. R. Brooks,  D. Casanova,  Jeng-Da Chai,  S. Coriani,  
 C. J. Cramer,  A. E. DePrince, III,  R. A. DiStasio Jr.,  A. Dreuw,  
 B. D. Dunietz,  T. R. Furlani,  W. A. Goddard III,  S. Grimme,  
 S. Hammes-Schiffer,  T. Head-Gordon,  W. J. Hehre,  Chao-Ping Hsu,  
 T.-C. Jagau,  Yousung Jung,  A. Klamt,  Jing Kong,  D. S. Lambrecht,  
 WanZhen Liang,  N. J. Mayhall,  C. W. McCurdy,  J. B. Neaton,  
 C. Ochsenfeld,  J. A. Parkhill,  R. Peverati,  V. A. Rassolov,  Yihan Shao,  
 L. V. Slipchenko,  T. Stauch,  R. P. Steele,  J. E. Subotnik,  
 A. J. W. Thom,  A. Tkatchenko,  D. G. Truhlar,  T. Van Voorhis,  
 T. A. Wesolowski,  K. B. Whaley,  H. L. Woodcock III,  P. M. Zimmerman,  
 S. Faraji,  P. M. W. Gill,  M. Head-Gordon,  J. M. Herbert,  A. I. Krylov

 Additional authors for Version 5.4.1: 
 S. Kotaru,  Shaozhi Li,  Xiangyuan Li,  F. Matz,  A. Molle,  Haisheng Ren,  
 Yingli Su,  Hung-Yi Tsai,  C. Utku,  Fang Wang

 Contributors to earlier versions of Q-Chem not listed above: 
 R. D. Adamson,  B. Austin,  R. Baer,  J. Baker,  G. J. O. Beran,  
 K. Brandhorst,  S. T. Brown,  E. F. C. Byrd,  A. K. Chakraborty,  
 G. K. L. Chan,  Chun-Min Chang,  Yunqing Chen,  C.-L. Cheng,  
 Siu Hung Chien,  D. M. Chipman,  D. L. Crittenden,  H. Dachsel,  
 R. J. Doerksen,  A. D. Dutoi,  R. G. Edgar,  J. Fosso-Tande,  
 L. Fusti-Molnar,  D. Ghosh,  A. Ghysels,  A. Golubeva-Zadorozhnaya,  
 J. Gonthier,  M. S. Gordon,  S. R. Gwaltney,  G. Hawkins,  J. E. Herr,  
 A. Heyden,  S. Hirata,  E. G. Hohenstein,  G. Kedziora,  F. J. Keil,  
 C. Kelley,  Jihan Kim,  R. A. King,  R. Z. Khaliullin,  P. P. Korambath,  
 W. Kurlancheek,  A. Laurent,  A. M. Lee,  M. S. Lee,  S. V. Levchenko,  
 Ching Yeh Lin,  D. Liotard,  E. Livshits,  R. C. Lochan,  I. Lotan,  
 L. A. Martinez-Martinez,  P. E. Maslen,  N. Nair,  D. P. O'Neill,  
 D. Neuhauser,  E. Neuscamman,  C. M. Oana,  R. Olivares-Amaya,  R. Olson,  
 T. M. Perrine,  B. Peters,  P. A. Pieniazek,  A. Prociuk,  Y. M. Rhee,  
 J. Ritchie,  M. A. Rohrdanz,  E. Rosta,  N. J. Russ,  H. F. Schaefer III,  
 M. W. Schmidt,  N. E. Schultz,  S. Sharma,  N. Shenvi,  C. D. Sherrill,  
 A. C. Simmonett,  A. Sodt,  T. Stein,  D. Stuck,  K. S. Thanthiriwatte,  
 V. Vanovschi,  L. Vogt,  Tao Wang,  A. Warshel,  M. A. Watson,  
 C. F. Williams,  Q. Wu,  X. Xu,  Jun Yang,  W. Zhang,  Yan Zhao

 Please cite Q-Chem as follows:
 Y. Shao et al., Mol. Phys. 113, 184-215 (2015)
 DOI: 10.1080/00268976.2014.952696

 Q-Chem 5.4.1 for Intel X86 EM64T Linux

 Parts of Q-Chem use Armadillo 9.900.5 (Nocturnal Misbehaviour).
 http://arma.sourceforge.net/

 Q-Chem begins on Sun Mar 27 13:03:33 2022  

 Host: node01
0

     Scratch files written to /src/jdavis/qchem.scratch/qchem30663//
 Processing $rem in /src/tsommerfeld/qchem/config/preferences:
 Processing $rem in /home/jdavis/.qchemrc:

 Checking the input file for inconsistencies... 	...done.

--------------------------------------------------------------
User input:
--------------------------------------------------------------
$molecule
-1 1
C         0.0000000000    0.0000000000    0.8417902907
C         0.0000000000    0.0000000000   -0.4872097093
H         0.9623488518    0.0000000000    1.3363703127
H         0.9623489048    0.0000000000   -0.9817896873
H        -0.9623488518    0.0000000000    1.3363703127
H        -0.9623489048    0.0000000000   -0.9817896873
H         0.0000000000    0.0000000000   -2.8366446508
$end

$rem
   METHOD adc(3)
   BASIS gen
   PURECART 11
   EE_STATES [0,0,0,10]
   scf_convergence 8
   ADC_DAVIDSON_MAXITER 120
   ADC_DAVIDSON_MAXSUBSPACE 200
   adc_nguess_singles 100
   THRESH 14
   S2THRESH 14
   adc_davidson_conv 5
   adc_davidson_thresh 14
   THREADS 10
   MEM_TOTAL 95000
   STATE_ANALYSIS TRUE
$end
$basis
C 1
S   9   1.00
      6.665000D+03           6.920000D-04
      1.000000D+03           5.329000D-03
      2.280000D+02           2.707700D-02
      6.471000D+01           1.017180D-01
      2.106000D+01           2.747400D-01
      7.495000D+00           4.485640D-01
      2.797000D+00           2.850740D-01
      5.215000D-01           1.520400D-02
      1.596000D-01          -3.191000D-03
S   9   1.00
      6.665000D+03          -1.460000D-04
      1.000000D+03          -1.154000D-03
      2.280000D+02          -5.725000D-03
      6.471000D+01          -2.331200D-02
      2.106000D+01          -6.395500D-02
      7.495000D+00          -1.499810D-01
      2.797000D+00          -1.272620D-01
      5.215000D-01           5.445290D-01
      1.596000D-01           5.804960D-01
S   1   1.00
      1.596000D-01           1.000000D+00
S   1   1.00
      0.0469000              1.0000000
P   4   1.00
      9.439000D+00           3.810900D-02
      2.002000D+00           2.094800D-01
      5.456000D-01           5.085570D-01
      1.517000D-01           4.688420D-01
P   1   1.00
      1.517000D-01           1.000000D+00
P   1   1.00
      0.0792211      1.0000000
P   1   1.00
      0.0396106      1.0000000
D   1   1.00
      5.500000D-01           1.0000000
****
C 2
S   9   1.00
      6.665000D+03           6.920000D-04
      1.000000D+03           5.329000D-03
      2.280000D+02           2.707700D-02
      6.471000D+01           1.017180D-01
      2.106000D+01           2.747400D-01
      7.495000D+00           4.485640D-01
      2.797000D+00           2.850740D-01
      5.215000D-01           1.520400D-02
      1.596000D-01          -3.191000D-03
S   9   1.00
      6.665000D+03          -1.460000D-04
      1.000000D+03          -1.154000D-03
      2.280000D+02          -5.725000D-03
      6.471000D+01          -2.331200D-02
      2.106000D+01          -6.395500D-02
      7.495000D+00          -1.499810D-01
      2.797000D+00          -1.272620D-01
      5.215000D-01           5.445290D-01
      1.596000D-01           5.804960D-01
S   1   1.00
      1.596000D-01           1.000000D+00
S   1   1.00
      0.0469000              1.0000000
P   4   1.00
      9.439000D+00           3.810900D-02
      2.002000D+00           2.094800D-01
      5.456000D-01           5.085570D-01
      1.517000D-01           4.688420D-01
P   1   1.00
      1.517000D-01           1.000000D+00
P   1   1.00
      0.0792211      1.0000000
P   1   1.00
      0.0396106      1.0000000
D   1   1.00
      5.500000D-01           1.0000000
****
H 3
cc-pVDZ
****
H 4
cc-pVDZ
****
H 5
cc-pVDZ
****
H 6
cc-pVDZ
****
H 7
aug-cc-pVDZ
****
$end
--------------------------------------------------------------
 ----------------------------------------------------------------
             Standard Nuclear Orientation (Angstroms)
    I     Atom           X                Y                Z
 ----------------------------------------------------------------
    1      C       0.0000000000     0.0000000000     0.8417902855
    2      C       0.0000000000     0.0000000000    -0.4872097145
    3      H       0.9623488518     0.0000000000     1.3363703075
    4      H       0.9623489048     0.0000000000    -0.9817896925
    5      H      -0.9623488518     0.0000000000     1.3363703075
    6      H      -0.9623489048     0.0000000000    -0.9817896925
    7      H       0.0000000000     0.0000000000    -2.8366446560
 ----------------------------------------------------------------
 Molecular Point Group                 C2v   NOp =  4
 Largest Abelian Subgroup              C2v   NOp =  4
 Nuclear Repulsion Energy =          36.55739271 hartrees
 There are        9 alpha and        9 beta electrons
 Requested basis set is non-standard
 There are 33 shells and 67 basis functions
 Total memory of 95000 MB is distributed as follows: 
   MEM_STATIC is set to 192 MB
   QALLOC/CCMAN JOB total memory use is  94808 MB
 Warning: actual memory use might exceed 95000 MB

 Total QAlloc Memory Limit  95000 MB
 Mega-Array Size       188 MB
 MEM_STATIC part       192 MB

                       Distance Matrix (Angstroms)
             C (  1)   C (  2)   H (  3)   H (  4)   H (  5)   H (  6)
   C (  2)  1.329000
   H (  3)  1.082000  2.061931
   H (  4)  2.061931  1.082000  2.318160
   H (  5)  1.082000  2.061931  1.924698  3.013026
   H (  6)  2.061931  1.082000  3.013026  1.924698  2.318160
   H (  7)  3.678435  2.349435  4.282542  2.089642  4.282542  2.089642

 
 A cutoff of  1.0D-14 yielded    561 shell pairs
 There are      2337 function pairs (      2484 Cartesian)
 Smallest overlap matrix eigenvalue = 1.70E-04

 Scale SEOQF with 1.000000e-01/1.000000e-01/1.000000e-01

 Standard Electronic Orientation quadrupole field applied
 Nucleus-field energy     =    -0.0000000019 hartrees
 ================ Generating on-the-fly SAD Guess ================
Attempting to make child job directory: /src/jdavis/qchem.scratch/qchem30663//Frg1/
Attempting to make child job directory: /src/jdavis/qchem.scratch/qchem30663//Frg2/
Creating input file /src/jdavis/qchem.scratch/qchem30663/Frg1.input
using default PutDataFrgm: nothing
calling putenv with: QCSCRATCH=/src/jdavis/qchem.scratch/qchem30663/ 
Spawning Job For Fragment 0
Done Job For Fragment 0
calling putenv with: QCSCRATCH=/src/jdavis/qchem.scratch 
calling putenv with: QCTHREADS=1 
Creating input file /src/jdavis/qchem.scratch/qchem30663/Frg2.input
using default PutDataFrgm: nothing
calling putenv with: QCSCRATCH=/src/jdavis/qchem.scratch/qchem30663/ 
Spawning Job For Fragment 1
Done Job For Fragment 1
calling putenv with: QCSCRATCH=/src/jdavis/qchem.scratch 
calling putenv with: QCTHREADS=1 
 Time for running child jobs:  CPU 1.77 s  wall 54.45 s
 ============= Method Specific SAD Guess Constructed =============
 Guess from on-the-fly superposition of atomic densities
 Warning: Energy on first SCF cycle will be non-variational
 A restricted Hartree-Fock SCF calculation will be
 performed using Pulay DIIS extrapolation
 SCF converges when DIIS error is below 1.0E-08
 using 10 threads for integral computing
 -------------------------------------------------------
 OpenMP Integral computing Module                
 Release: version 1.0, May 2013, Q-Chem Inc. Pittsburgh 
 -------------------------------------------------------
 ---------------------------------------
  Cycle       Energy         DIIS Error
 ---------------------------------------
    1     -78.8396220029      7.39E-02
    2     -78.4382926275      7.16E-03
    3     -78.4954934456      2.34E-03
    4     -78.4996451956      8.98E-04
    5     -78.5004112668      2.37E-04
    6     -78.5004945723      7.53E-05
    7     -78.5005063852      3.64E-05
    8     -78.5005089622      7.39E-06
    9     -78.5005090978      1.43E-06
   10     -78.5005091030      2.44E-07
   11     -78.5005091032      4.91E-08
   12     -78.5005091032      1.11E-08
   13     -78.5005091032      1.91E-09 Convergence criterion met
 ---------------------------------------
 SCF time:  CPU 12.83 s  wall 1.29 s
 SCF   energy in the final basis set = -78.50050910
 Total energy in the final basis set = -78.50050910
================================================================================
|                                                                              |
|                                 A D C  M A N                                 |
|                                                                              |
 ------------------------------------------------------------------------------ 
|                                                                              |
| Components:                                                                  |
|                                                                              |
| - libvmm - 1.3-trunk                                                         |
|   Authors:                                                                   |
|   Evgeny Epifanovsky, Ilya Kaliman                                           |
|                                                                              |
| - libtensor - 2.5-trunk                                                      |
|   Authors:                                                                   |
|   Evgeny Epifanovsky, Michael Wormit, Dmitry Zuev, Sam Manzer,               |
|   Ilya Kaliman                                                               |
|                                                                              |
| - libwfa - 1.1-trunk                                                         |
|   Authors:                                                                   |
|   Felix Plasser, Stefanie Mewes (Baeppler), Benjamin Thomitzni,              |
|   Michael Wormit, Feng Chen, Anna I. Krylov, Pavel Pokhilko                  |
|                                                                              |
| - libadc - 1.1-trunk                                                         |
|   Authors:                                                                   |
|   Michael Wormit, Adrian L. Dempwolff, Philipp H. P. Harbach,                |
|   Caroline Krauter, Dirk Rehn, Matthias Schneider, Jan Wenzel                |
|                                                                              |
| - adcman - 2.6-trunk                                                         |
|   Authors:                                                                   |
|   Michael Wormit, Adrian L. Dempwolff, Philipp H. P. Harbach,                |
|   Caroline Krauter, Daniel Lefrancois, Jan-Michael Mewes, Dirk Rehn,         |
|   Matthias Schneider, Jan Wenzel, Andreas Dreuw                              |
|                                                                              |
| Authors of earlier versions of ADCMAN:                                       |
| Andreas Dreuw, Jan Hendrik Starcke, Dirk Rehn, Michael Wormit                |
|                                                                              |
================================================================================

 
 Alpha MOs, Restricted
 -- Occupied --                  
-11.074 -11.070  -0.882  -0.619  -0.501  -0.405  -0.352  -0.218
  1 A1    2 A1    3 A1    4 A1    1 B1    5 A1    2 B1    1 B2                 
 -0.033
  6 A1                                                                         
 -- Virtual --                   
  0.169   0.190   0.197   0.241   0.244   0.257   0.326   0.332
  7 A1    3 B1    2 B2    3 B2    4 B1    8 A1    9 A1    4 B2                 
  0.344   0.405   0.448   0.459   0.486   0.490   0.508   0.508
 10 A1   11 A1    5 B1   12 A1    5 B2    6 B1    7 B1   13 A1                 
  0.585   0.593   0.700   0.770   0.990   1.007   1.089   1.103
  6 B2   14 A1    8 B1   15 A1   16 A1    9 B1   17 A1   18 A1                 
  1.132   1.180   1.193   1.222   1.263   1.274   1.315   1.333
 19 A1   10 B1   11 B1   20 A1    7 B2    1 A2    8 B2   21 A1                 
  1.447   1.451   1.490   1.605   1.766   1.805   1.858   1.887
  2 A2    9 B2   22 A1   12 B1   23 A1   13 B1   14 B1   10 B2                 
  1.991   2.032   2.061   2.109   2.178   2.233   2.261   2.303
 15 B1   11 B2   24 A1   12 B2    3 A2   25 A1   16 B1   26 A1                 
  2.346   2.529   2.573   2.634   2.739   2.745   3.000   3.005
 13 B2   27 A1    4 A2   28 A1   17 B1   29 A1   18 B1   30 A1                 
  3.447   3.507
 31 A1   19 B1                                                                 
 
 Beta MOs, Restricted
 -- Occupied --                  
-11.074 -11.070  -0.882  -0.619  -0.501  -0.405  -0.352  -0.218
  1 A1    2 A1    3 A1    4 A1    1 B1    5 A1    2 B1    1 B2                 
 -0.033
  6 A1                                                                         
 -- Virtual --                   
  0.169   0.190   0.197   0.241   0.244   0.257   0.326   0.332
  7 A1    3 B1    2 B2    3 B2    4 B1    8 A1    9 A1    4 B2                 
  0.344   0.405   0.448   0.459   0.486   0.490   0.508   0.508
 10 A1   11 A1    5 B1   12 A1    5 B2    6 B1    7 B1   13 A1                 
  0.585   0.593   0.700   0.770   0.990   1.007   1.089   1.103
  6 B2   14 A1    8 B1   15 A1   16 A1    9 B1   17 A1   18 A1                 
  1.132   1.180   1.193   1.222   1.263   1.274   1.315   1.333
 19 A1   10 B1   11 B1   20 A1    7 B2    1 A2    8 B2   21 A1                 
  1.447   1.451   1.490   1.605   1.766   1.805   1.858   1.887
  2 A2    9 B2   22 A1   12 B1   23 A1   13 B1   14 B1   10 B2                 
  1.991   2.032   2.061   2.109   2.178   2.233   2.261   2.303
 15 B1   11 B2   24 A1   12 B2    3 A2   25 A1   16 B1   26 A1                 
  2.346   2.529   2.573   2.634   2.739   2.745   3.000   3.005
 13 B2   27 A1    4 A2   28 A1   17 B1   29 A1   18 B1   30 A1                 
  3.447   3.507
 31 A1   19 B1                                                                 

--------------------------------------------------------------------------------
                                   HF Summary                                   
--------------------------------------------------------------------------------
  Energy:                                                  -78.5005091032 a.u.
  Dip. moment [a.u.]:                  [   0.000000,    0.000000,    4.839465]
  Total dipole [Debye]:                                              12.300695
  <r^2> [a.u.]:                        [  27.714746,   17.720096,  114.377261]
  Total <r^2> [a.u.]:                                               159.812103
--------------------------------------------------------------------------------

--------------------------------------------------------------------------------
                                 MP(2) Summary                                  
--------------------------------------------------------------------------------
  MP energy contribution:                                   -0.3079076686 a.u.
  Total energy:                                            -78.8084167718 a.u.
  Dip. moment [a.u.]:                  [   0.000000,   -0.000000,    4.830566]
  Total dipole [Debye]:                                              12.278076
  <r^2> [a.u.]:                        [  27.994797,   17.784418,  114.238073]
  Total <r^2> [a.u.]:                                               160.017288

  Density matrix analysis:
  ------------------------
  NOs
    Occupation of frontier NOs:
       0.0436   1.9373
    Number of electrons: 18.000000
    Number of unpaired electrons: n_u =  0.47299, n_u,nl =  0.05173
    NO participation ratio (PR_NO): 16.620759
  
  
  Mulliken Population Analysis
  Atom      Charge (e)              h+              e-           Del q
  --------------------------------------------------------------------
   1 C       -1.106307        0.120013       -0.117320        0.002693
   2 C       -0.088834        0.060217       -0.120992       -0.060775
   3 H        0.060683        0.019540       -0.012333        0.007207
   4 H        0.170708        0.016351       -0.013586        0.002765
   5 H        0.060683        0.019540       -0.012333        0.007207
   6 H        0.170708        0.016351       -0.013586        0.002765
   7 H       -0.267641        0.051824       -0.013686        0.038138
  --------------------------------------------------------------------
  Sum:       -1.000000        0.303836       -0.303836        0.000000
  
  Multipole moment analysis of the density matrix
    Molecular charge:                      -1.000000
    Number of electrons:                   18.000000
      Center of electronic charge [Ang]: [ -0.000000,   0.000000,  -0.142013]
    Total nuclear charge:                  17.000000
      Center of nuclear charge [Ang]:    [ -0.000000,   0.000000,  -0.000000]
    Dipole moment [D]:                     12.278073
      Cartesian components [D]:          [  0.000000,  -0.000000,  12.278073]
    RMS size of the density [Ang]:         1.571383
      Cartesian components [Ang]:        [  0.659939,   0.525999,   1.325538]
  
  Exciton analysis of the difference density matrix
    <r_h> [Ang]:                  [  0.000000,   0.000000,  -0.202018]
    <r_e> [Ang]:                  [ -0.000000,   0.000000,  -0.186520]
    |<r_e - r_h>| [Ang]:            0.015499
    Hole size [Ang]:                1.899081
      Cartesian components [Ang]: [  0.759629,   0.767050,   1.562405]
    Electron size [Ang]:            1.949779
      Cartesian components [Ang]: [  0.913862,   0.804765,   1.522776]
--------------------------------------------------------------------------------

--------------------------------------------------------------------------------
                                 MP(3) Summary                                  
--------------------------------------------------------------------------------
  MP energy contribution:                                   -0.0294582805 a.u.
  Total energy:                                            -78.8378750523 a.u.
--------------------------------------------------------------------------------
  Starting Davidson for singlet states of irrep B2 ... 
--------------------------------------------------------------------------------
   It NVec Conv  Avg. Norm  Max. Norm  Conv. states           Remark
--------------------------------------------------------------------------------
       100    0  9.684e-02  3.964e-01  0.1549 n n n n n n n n Guess.
    1  110    0  4.330e-02  2.419e-01  0.0892 n n n n n n n n 
    2  120    0  3.428e-02  1.731e-01  0.0828 n n n n n n n n 
    3  130    0  1.542e-02  8.753e-02  0.0823 n n n n n n n n 
    4  140    0  6.452e-03  4.186e-02  0.0823 n n n n n n n n 
    5  150    0  9.678e-03  9.234e-02  0.0823 n n n n n n n n 
    6  160    0  4.802e-03  4.410e-02  0.0823 n n n n n n n n 
    7  170    0  2.138e-03  1.945e-02  0.0823 n n n n n n n n 
    8  180    2  8.385e-04  7.469e-03  0.0823 y y n n n n n n 
    9  190    4  3.492e-04  3.027e-03  0.0823 y y y y n n n n 
   10  200    5  1.519e-04  1.189e-03  0.0823 y y y y n n y n 
   11   20    6  5.592e-05  4.260e-04  0.0823 y y y y y n y n Subspace collapsed.
   12   30    7  4.208e-05  3.008e-04  0.0823 y y y y y y y n 
   13   40    7  3.409e-05  2.856e-04  0.0823 y y y y y y y n 
   14   50    7  3.123e-05  2.854e-04  0.0823 y y y y y y y n 
   15   60    7  2.869e-05  2.750e-04  0.0823 y y y y y y y n 
   16   70    7  1.880e-05  1.812e-04  0.0823 y y y y y y y n 
   17   80    8  1.237e-05  1.184e-04  0.0823 y y y y y y y y 
   18   90    8  7.574e-06  7.063e-05  0.0823 y y y y y y y y 
   19  100    8  4.780e-06  4.444e-05  0.0823 y y y y y y y y 
   20  110    9  2.738e-06  2.613e-05  0.0823 y y y y y y y y 
   21  120    9  1.384e-06  1.334e-05  0.0823 y y y y y y y y 
   22  130   10  7.476e-07  7.275e-06  0.0823 y y y y y y y y Converged.
--------------------------------------------------------------------------------
  Davidson Summary: 
 ------------------------------------------------------------
  State  0: excitation energy =   0.0823 a.u.   (converged)
  State  1: excitation energy =   0.0877 a.u.   (converged)
  State  2: excitation energy =   0.1512 a.u.   (converged)
  State  3: excitation energy =   0.2320 a.u.   (converged)
  State  4: excitation energy =   0.2450 a.u.   (converged)
  State  5: excitation energy =   0.2634 a.u.   (converged)
  State  6: excitation energy =   0.2790 a.u.   (converged)
  State  7: excitation energy =   0.3234 a.u.   (converged)
  State  8: excitation energy =   0.3336 a.u.   (converged)
  State  9: excitation energy =   0.3433 a.u.   (converged)
 ------------------------------------------------------------


--------------------------------------------------------------------------------
                   State-averaged natural transition orbitals
--------------------------------------------------------------------------------
--------------------------------------------------------------------------------

--------------------------------------------------------------------------------
                             Excited State Summary
--------------------------------------------------------------------------------
--------------------------------------------------------------------------------

  Excited state 1 (singlet, B2)                                    [converged]
  ----------------------------------------------------------------------------
  Term symbol:  1 (1) B2                                    R^2 =  2.84640e-14

  Total energy:                                            -78.7555949321 a.u.
  Excitation energy:                                               2.238956 eV

  Osc. strength:                                                      0.061461
  Trans. dip. moment [a.u.]:           [   0.000000,   -1.058520,   -0.000000]
  <i|r^2|0> [a.u.]:                    [  -0.000000,   -0.000000,   -0.000000]

  Dip. moment [a.u.]:                  [   0.000000,   -0.000000,   -0.123123]
  Total dipole [Debye]:                                               0.312946
  <r^2> [a.u.]:                        [  28.821168,   27.362010,   96.075646]
  Total <r^2> [a.u.]:                                               152.258824

  V1^2 = 0.8533, V2^2 = 0.1467

  Important amplitudes:
      occ i      occ j       vir a       vir b          v   
    ---------------------------------------------------------
     6 (A1) A               3 (B2) A                  0.5179
     6 (A1) A               2 (B2) A                 -0.2963
    ---------------------------------------------------------

  Density matrix analysis:
  ------------------------
  NOs
    Occupation of frontier NOs:
       0.9871   0.9878
    Number of electrons: 18.000000
    Number of unpaired electrons: n_u =  2.43485, n_u,nl =  2.05014
    NO participation ratio (PR_NO):  3.019684
  
  
  Mulliken Population Analysis
  Atom      Charge (e)              h+              e-           Del q
  --------------------------------------------------------------------
   1 C       -0.634308        0.986135       -0.514135        0.472000
   2 C       -0.670059        0.037494       -0.618718       -0.581225
   3 H        0.067664        0.011947       -0.004966        0.006981
   4 H        0.081900       -0.006331       -0.082477       -0.088808
   5 H        0.067664        0.011947       -0.004966        0.006981
   6 H        0.081900       -0.006331       -0.082477       -0.088808
   7 H        0.005239        0.381177       -0.108297        0.272880
  --------------------------------------------------------------------
  Sum:       -1.000000        1.416036       -1.416036       -0.000000
  
  Multipole moment analysis of the density matrix
    Molecular charge:                      -1.000000
    Number of electrons:                   18.000000
      Center of electronic charge [Ang]: [ -0.000000,   0.000000,   0.003620]
    Total nuclear charge:                  17.000000
      Center of nuclear charge [Ang]:    [ -0.000000,   0.000000,  -0.000000]
    Dipole moment [D]:                     0.312946
      Cartesian components [D]:          [  0.000000,  -0.000000,  -0.312946]
    RMS size of the density [Ang]:         1.539058
      Cartesian components [Ang]:        [  0.669608,   0.652437,   1.222558]
  
  Exciton analysis of the difference density matrix
    <r_h> [Ang]:                  [  0.000000,   0.000000,  -2.295668]
    <r_e> [Ang]:                  [ -0.000000,   0.000000,  -0.444458]
    |<r_e - r_h>| [Ang]:            1.851209
    Hole size [Ang]:                2.234632
      Cartesian components [Ang]: [  1.084946,   1.112266,   1.606032]
    Electron size [Ang]:            2.920933
      Cartesian components [Ang]: [  1.157811,   1.769507,   2.014986]

  Transition density matrix analysis:
  -----------------------------------
  
  CT numbers (Mulliken)
    omega =     0.8343
    <Phe> =    -0.0167
  
  Exciton analysis of the transition density matrix
    Trans. dipole moment [D]:             1.345244
      Cartesian components [D]:         [  0.000000,  -1.345244,  -0.000000]
    <r_h> [Ang]:                        [  0.000000,  -0.000000,  -2.819312]
    <r_e> [Ang]:                        [  0.000000,   0.000000,   0.027789]
    |<r_e - r_h>| [Ang]:                  2.847101
    Hole size [Ang]:                      1.622762
      Cartesian components [Ang]:       [  0.907576,   0.912125,   0.988782]
    Electron size [Ang]:                  3.008250
      Cartesian components [Ang]:       [  1.125482,   1.939906,   2.004900]
    RMS electron-hole separation [Ang]:   4.447241
      Cartesian components [Ang]:       [  1.445706,   2.143420,   3.618513]
    Covariance(r_h, r_e) [Ang^2]:         0.005478
    Correlation coefficient:              0.001122
    Center-of-mass size [Ang]:            1.709816
      Cartesian components [Ang]:       [  0.722970,   1.071933,   1.118814]

  Decomposition into state-averaged NTOs
    H- 0 -> L+ 0: -0.5633 ( 63.5%)
    H- 0 -> L+ 4: -0.2745 ( 15.1%)
    H- 0 -> L+ 3: -0.1504 (  4.5%)
                   omega =  83.4%
  ----------------------------------------------------------------------------


  Excited state 2 (singlet, B2)                                    [converged]
  ----------------------------------------------------------------------------
  Term symbol:  2 (1) B2                                    R^2 =  1.83049e-14

  Total energy:                                            -78.7501663153 a.u.
  Excitation energy:                                               2.386676 eV

  Osc. strength:                                                      0.023000
  Trans. dip. moment [a.u.]:           [  -0.000000,    0.627181,   -0.000000]
  <i|r^2|0> [a.u.]:                    [  -0.000000,   -0.000000,   -0.000000]

  Dip. moment [a.u.]:                  [   0.000000,   -0.000000,   -0.471723]
  Total dipole [Debye]:                                               1.198999
  <r^2> [a.u.]:                        [  33.340306,   42.463822,   91.427443]
  Total <r^2> [a.u.]:                                               167.231571

  V1^2 = 0.8632, V2^2 = 0.1368

  Important amplitudes:
      occ i      occ j       vir a       vir b          v   
    ---------------------------------------------------------
     6 (A1) A               2 (B2) A                 -0.5537
     6 (A1) A               3 (B2) A                 -0.3450
    ---------------------------------------------------------

  Density matrix analysis:
  ------------------------
  NOs
    Occupation of frontier NOs:
       0.9891   0.9935
    Number of electrons: 18.000000
    Number of unpaired electrons: n_u =  2.42772, n_u,nl =  2.05143
    NO participation ratio (PR_NO):  2.978293
  
  
  Mulliken Population Analysis
  Atom      Charge (e)              h+              e-           Del q
  --------------------------------------------------------------------
   1 C       -0.712072        1.062219       -0.667984        0.394235
   2 C       -0.636642       -0.032052       -0.515756       -0.547807
   3 H        0.081406        0.025221       -0.004498        0.020723
   4 H        0.092360       -0.012488       -0.065860       -0.078348
   5 H        0.081406        0.025221       -0.004498        0.020723
   6 H        0.092360       -0.012488       -0.065860       -0.078348
   7 H        0.001182        0.387951       -0.119129        0.268822
  --------------------------------------------------------------------
  Sum:       -1.000000        1.443584       -1.443584       -0.000000
  
  Multipole moment analysis of the density matrix
    Molecular charge:                      -1.000000
    Number of electrons:                   18.000000
      Center of electronic charge [Ang]: [ -0.000000,   0.000000,   0.013868]
    Total nuclear charge:                  17.000000
      Center of nuclear charge [Ang]:    [ -0.000000,   0.000000,  -0.000000]
    Dipole moment [D]:                     1.198999
      Cartesian components [D]:          [  0.000000,  -0.000000,  -1.198999]
    RMS size of the density [Ang]:         1.612902
      Cartesian components [Ang]:        [  0.720194,   0.812783,   1.192542]
  
  Exciton analysis of the difference density matrix
    <r_h> [Ang]:                  [  0.000000,   0.000000,  -2.220814]
    <r_e> [Ang]:                  [ -0.000000,   0.000000,  -0.277144]
    |<r_e - r_h>| [Ang]:            1.943670
    Hole size [Ang]:                2.307177
      Cartesian components [Ang]: [  1.088169,   1.091968,   1.716554]
    Electron size [Ang]:            3.402604
      Cartesian components [Ang]: [  1.490316,   2.445351,   1.837641]

  Transition density matrix analysis:
  -----------------------------------
  
  CT numbers (Mulliken)
    omega =     0.8503
    <Phe> =    -0.0051
  
  Exciton analysis of the transition density matrix
    Trans. dipole moment [D]:             0.797067
      Cartesian components [D]:         [ -0.000000,   0.797067,  -0.000000]
    <r_h> [Ang]:                        [  0.000000,  -0.000000,  -2.843688]
    <r_e> [Ang]:                        [  0.000000,   0.000000,   0.242824]
    |<r_e - r_h>| [Ang]:                  3.086512
    Hole size [Ang]:                      1.608278
      Cartesian components [Ang]:       [  0.911539,   0.916715,   0.956707]
    Electron size [Ang]:                  3.724524
      Cartesian components [Ang]:       [  1.656037,   2.868412,   1.703478]
    RMS electron-hole separation [Ang]:   5.095948
      Cartesian components [Ang]:       [  1.890322,   3.011231,   3.650734]
    Covariance(r_h, r_e) [Ang^2]:         0.008253
    Correlation coefficient:              0.001378
    Center-of-mass size [Ang]:            2.029479
      Cartesian components [Ang]:       [  0.945173,   1.505721,   0.978896]

  Decomposition into state-averaged NTOs
    H- 0 -> L+ 3:  0.6309 ( 79.6%)
    H- 0 -> L+ 4: -0.1186 (  2.8%)
    H- 0 -> L+ 0: -0.1104 (  2.4%)
                   omega =  85.0%
  ----------------------------------------------------------------------------


  Excited state 3 (singlet, B2)                                    [converged]
  ----------------------------------------------------------------------------
  Term symbol:  3 (1) B2                                    R^2 =  1.19283e-12

  Total energy:                                            -78.6867164876 a.u.
  Excitation energy:                                               4.113234 eV

  Osc. strength:                                                      0.101976
  Trans. dip. moment [a.u.]:           [   0.000000,   -1.005957,    0.000000]
  <i|r^2|0> [a.u.]:                    [   0.000000,    0.000000,    0.000000]

  Dip. moment [a.u.]:                  [   0.000000,   -0.000000,   -0.273873]
  Total dipole [Debye]:                                               0.696116
  <r^2> [a.u.]:                        [  30.368285,   31.592287,   99.893523]
  Total <r^2> [a.u.]:                                               161.854096

  V1^2 = 0.8341, V2^2 = 0.1659

  Important amplitudes:
      occ i      occ j       vir a       vir b          v   
    ---------------------------------------------------------
     6 (A1) A               4 (B2) A                 -0.5750
     6 (A1) A               3 (B2) A                  0.2045
    ---------------------------------------------------------

  Density matrix analysis:
  ------------------------
  NOs
    Occupation of frontier NOs:
       0.9692   0.9842
    Number of electrons: 18.000000
    Number of unpaired electrons: n_u =  2.48091, n_u,nl =  2.06989
    NO participation ratio (PR_NO):  3.193953
  
  
  Mulliken Population Analysis
  Atom      Charge (e)              h+              e-           Del q
  --------------------------------------------------------------------
   1 C       -0.641531        0.991912       -0.527135        0.464777
   2 C       -0.635765        0.067458       -0.614389       -0.546931
   3 H        0.056547        0.008379       -0.012515       -0.004136
   4 H        0.069054       -0.007582       -0.094072       -0.101654
   5 H        0.056547        0.008379       -0.012515       -0.004136
   6 H        0.069054       -0.007582       -0.094072       -0.101654
   7 H        0.026093        0.392744       -0.099010        0.293734
  --------------------------------------------------------------------
  Sum:       -1.000000        1.453708       -1.453708       -0.000000
  
  Multipole moment analysis of the density matrix
    Molecular charge:                      -1.000000
    Number of electrons:                   18.000000
      Center of electronic charge [Ang]: [ -0.000000,   0.000000,   0.008052]
    Total nuclear charge:                  17.000000
      Center of nuclear charge [Ang]:    [ -0.000000,   0.000000,  -0.000000]
    Dipole moment [D]:                     0.696116
      Cartesian components [D]:          [  0.000000,  -0.000000,  -0.696116]
    RMS size of the density [Ang]:         1.586796
      Cartesian components [Ang]:        [  0.687345,   0.701060,   1.246592]
  
  Exciton analysis of the difference density matrix
    <r_h> [Ang]:                  [  0.000000,   0.000000,  -2.252402]
    <r_e> [Ang]:                  [ -0.000000,   0.000000,  -0.394290]
    |<r_e - r_h>| [Ang]:            1.858113
    Hole size [Ang]:                2.202266
      Cartesian components [Ang]: [  1.060875,   1.090063,   1.592571]
    Electron size [Ang]:            3.181455
      Cartesian components [Ang]: [  1.258039,   1.961646,   2.165857]

  Transition density matrix analysis:
  -----------------------------------
  
  CT numbers (Mulliken)
    omega =     0.8155
    <Phe> =    -0.0060
  
  Exciton analysis of the transition density matrix
    Trans. dipole moment [D]:             1.278443
      Cartesian components [D]:         [  0.000000,  -1.278443,   0.000000]
    <r_h> [Ang]:                        [  0.000000,  -0.000000,  -2.821676]
    <r_e> [Ang]:                        [  0.000000,   0.000000,   0.153746]
    |<r_e - r_h>| [Ang]:                  2.975421
    Hole size [Ang]:                      1.621960
      Cartesian components [Ang]:       [  0.907265,   0.912051,   0.987819]
    Electron size [Ang]:                  3.420969
      Cartesian components [Ang]:       [  1.284697,   2.216795,   2.266805]
    RMS electron-hole separation [Ang]:   4.814073
      Cartesian components [Ang]:       [  1.572683,   2.396224,   3.867827]
    Covariance(r_h, r_e) [Ang^2]:         0.005807
    Correlation coefficient:              0.001047
    Center-of-mass size [Ang]:            1.893766
      Cartesian components [Ang]:       [  0.786419,   1.198973,   1.237077]

  Decomposition into state-averaged NTOs
    H- 0 -> L+ 4: -0.5706 ( 65.1%)
    H- 0 -> L+ 0:  0.2758 ( 15.2%)
                   omega =  81.6%
  ----------------------------------------------------------------------------


  Excited state 4 (singlet, B2)                                    [converged]
  ----------------------------------------------------------------------------
  Term symbol:  4 (1) B2                                    R^2 =  3.00429e-12

  Total energy:                                            -78.6059007771 a.u.
  Excitation energy:                                               6.312341 eV

  Osc. strength:                                                      0.058592
  Trans. dip. moment [a.u.]:           [  -0.000000,   -0.615526,    0.000000]
  <i|r^2|0> [a.u.]:                    [  -0.000000,   -0.000000,   -0.000000]

  Dip. moment [a.u.]:                  [  -0.000000,   -0.000000,    0.138169]
  Total dipole [Debye]:                                               0.351192
  <r^2> [a.u.]:                        [  33.156289,   22.017301,  141.551372]
  Total <r^2> [a.u.]:                                               196.724962

  V1^2 = 0.9343, V2^2 = 0.0657

  Important amplitudes:
      occ i      occ j       vir a       vir b          v   
    ---------------------------------------------------------
     1 (B2) A               7 (A1) A                  0.6294
     1 (B2) A               8 (A1) A                  0.2392
    ---------------------------------------------------------

  Density matrix analysis:
  ------------------------
  NOs
    Occupation of frontier NOs:
       0.9842   0.9933
    Number of electrons: 18.000000
    Number of unpaired electrons: n_u =  2.37274, n_u,nl =  2.03298
    NO participation ratio (PR_NO):  2.866639
  
  
  Mulliken Population Analysis
  Atom      Charge (e)              h+              e-           Del q
  --------------------------------------------------------------------
   1 C       -0.235609        0.700872        0.169827        0.870698
   2 C       -1.286167        0.388824       -1.586157       -1.197333
   3 H        0.173967        0.126844       -0.013560        0.113284
   4 H        0.243203        0.063476        0.009019        0.072495
   5 H        0.173967        0.126844       -0.013560        0.113284
   6 H        0.243203        0.063476        0.009019        0.072495
   7 H       -0.312562        0.017256       -0.062178       -0.044922
  --------------------------------------------------------------------
  Sum:       -1.000000        1.487591       -1.487591        0.000000
  
  Multipole moment analysis of the density matrix
    Molecular charge:                      -1.000000
    Number of electrons:                   18.000000
      Center of electronic charge [Ang]: [  0.000000,   0.000000,  -0.004062]
    Total nuclear charge:                  17.000000
      Center of nuclear charge [Ang]:    [ -0.000000,   0.000000,  -0.000000]
    Dipole moment [D]:                     0.351192
      Cartesian components [D]:          [ -0.000000,  -0.000000,   0.351192]
    RMS size of the density [Ang]:         1.749417
      Cartesian components [Ang]:        [  0.718204,   0.585257,   1.483953]
  
  Exciton analysis of the difference density matrix
    <r_h> [Ang]:                  [ -0.000000,   0.000000,   0.141447]
    <r_e> [Ang]:                  [  0.000000,   0.000000,   1.810662]
    |<r_e - r_h>| [Ang]:            1.669215
    Hole size [Ang]:                1.932377
      Cartesian components [Ang]: [  0.867428,   0.943299,   1.446318]
    Electron size [Ang]:            2.717637
      Cartesian components [Ang]: [  1.313029,   1.298700,   1.993711]

  Transition density matrix analysis:
  -----------------------------------
  
  CT numbers (Mulliken)
    omega =     0.9039
    <Phe> =    -0.0068
  
  Exciton analysis of the transition density matrix
    Trans. dipole moment [D]:             0.782255
      Cartesian components [D]:         [ -0.000000,  -0.782255,   0.000000]
    <r_h> [Ang]:                        [  0.000000,  -0.000000,   0.280886]
    <r_e> [Ang]:                        [  0.000000,   0.000000,   2.799986]
    |<r_e - r_h>| [Ang]:                  2.519100
    Hole size [Ang]:                      1.279341
      Cartesian components [Ang]:       [  0.522540,   0.885927,   0.760788]
    Electron size [Ang]:                  2.535621
      Cartesian components [Ang]:       [  1.508823,   1.515264,   1.362644]
    RMS electron-hole separation [Ang]:   3.792115
      Cartesian components [Ang]:       [  1.596178,   1.747899,   2.962635]
    Covariance(r_h, r_e) [Ang^2]:         0.015905
    Correlation coefficient:              0.004903
    Center-of-mass size [Ang]:            1.422840
      Cartesian components [Ang]:       [  0.798656,   0.881282,   0.781002]

  Decomposition into state-averaged NTOs
    H- 1 -> L+ 1:  0.6679 ( 89.2%)
    H- 1 -> L+ 2:  0.0738 (  1.1%)
                   omega =  90.4%
  ----------------------------------------------------------------------------


  Excited state 5 (singlet, B2)                                    [converged]
  ----------------------------------------------------------------------------
  Term symbol:  5 (1) B2                                    R^2 =  1.28955e-10

  Total energy:                                            -78.5928657738 a.u.
  Excitation energy:                                               6.667042 eV

  Osc. strength:                                                      0.000067
  Trans. dip. moment [a.u.]:           [   0.000000,    0.020259,    0.000000]
  <i|r^2|0> [a.u.]:                    [   0.000000,    0.000000,    0.000000]

  Dip. moment [a.u.]:                  [   0.000000,   -0.000000,    1.771167]
  Total dipole [Debye]:                                               4.501859
  <r^2> [a.u.]:                        [  32.787712,   37.079361,  101.393770]
  Total <r^2> [a.u.]:                                               171.260843

  V1^2 = 0.0175, V2^2 = 0.9825

  Important amplitudes:
      occ i      occ j       vir a       vir b          v   
    ---------------------------------------------------------
     6 (A1) A   1 (B2) B    4 (B2) A    3 (B2) B     -0.2195
     6 (A1) A   1 (B2) B    3 (B2) A    3 (B2) B     -0.1761
    ---------------------------------------------------------

  Density matrix analysis:
  ------------------------
  NOs
    Occupation of frontier NOs:
       0.9685   0.9697
    Number of electrons: 18.000000
    Number of unpaired electrons: n_u =  3.15707, n_u,nl =  2.90507
    NO participation ratio (PR_NO):  4.454871
  
  
  Mulliken Population Analysis
  Atom      Charge (e)              h+              e-           Del q
  --------------------------------------------------------------------
   1 C       -0.399724        0.937559       -0.230975        0.706583
   2 C       -1.401589        0.421934       -1.734690       -1.312755
   3 H        0.059163        0.006753       -0.008273       -0.001520
   4 H        0.160252       -0.003146       -0.007311       -0.010456
   5 H        0.059163        0.006753       -0.008273       -0.001520
   6 H        0.160252       -0.003146       -0.007311       -0.010456
   7 H        0.362483        0.634791       -0.004667        0.630124
  --------------------------------------------------------------------
  Sum:       -1.000000        2.001499       -2.001499       -0.000000
  
  Multipole moment analysis of the density matrix
    Molecular charge:                      -1.000000
    Number of electrons:                   18.000000
      Center of electronic charge [Ang]: [ -0.000000,   0.000000,  -0.052070]
    Total nuclear charge:                  17.000000
      Center of nuclear charge [Ang]:    [ -0.000000,   0.000000,  -0.000000]
    Dipole moment [D]:                     4.501858
      Cartesian components [D]:          [  0.000000,  -0.000000,   4.501858]
    RMS size of the density [Ang]:         1.631446
      Cartesian components [Ang]:        [  0.714201,   0.759506,   1.254865]
  
  Exciton analysis of the difference density matrix
    <r_h> [Ang]:                  [  0.000000,   0.000000,  -1.297739]
    <r_e> [Ang]:                  [ -0.000000,   0.000000,  -0.488863]
    |<r_e - r_h>| [Ang]:            0.808876
    Hole size [Ang]:                2.114154
      Cartesian components [Ang]: [  0.726415,   0.892266,   1.773648]
    Electron size [Ang]:            2.736396
      Cartesian components [Ang]: [  1.094647,   1.869675,   1.671505]

  Transition density matrix analysis:
  -----------------------------------
  
  CT numbers (Mulliken)
    omega =     0.0179
    <Phe> =     0.0077
  
  Exciton analysis of the transition density matrix
    Trans. dipole moment [D]:             0.025746
      Cartesian components [D]:         [  0.000000,   0.025746,   0.000000]
    <r_h> [Ang]:                        [ -0.000000,   0.000000,  -1.987675]
    <r_e> [Ang]:                        [  0.000000,   0.000000,   0.082937]
    |<r_e - r_h>| [Ang]:                  2.070612
    Hole size [Ang]:                      2.037936
      Cartesian components [Ang]:       [  0.820117,   0.873627,   1.648443]
    Electron size [Ang]:                  2.689260
      Cartesian components [Ang]:       [  1.040575,   1.638340,   1.861495]
    RMS electron-hole separation [Ang]:   4.137502
      Cartesian components [Ang]:       [  1.324647,   1.843304,   3.459258]
    Covariance(r_h, r_e) [Ang^2]:        -0.723095
    Correlation coefficient:             -0.131939
    Center-of-mass size [Ang]:            1.576318
      Cartesian components [Ang]:       [  0.662587,   0.935012,   1.082362]

  Decomposition into state-averaged NTOs
                   omega =   1.8%
  ----------------------------------------------------------------------------


  Excited state 6 (singlet, B2)                                    [converged]
  ----------------------------------------------------------------------------
  Term symbol:  6 (1) B2                                    R^2 =  2.95624e-10

  Total energy:                                            -78.5745120966 a.u.
  Excitation energy:                                               7.166470 eV

  Osc. strength:                                                      0.000597
  Trans. dip. moment [a.u.]:           [  -0.000000,    0.058324,    0.000000]
  <i|r^2|0> [a.u.]:                    [  -0.000000,   -0.000000,    0.000000]

  Dip. moment [a.u.]:                  [   0.000000,   -0.000000,   -2.745727]
  Total dipole [Debye]:                                               6.978942
  <r^2> [a.u.]:                        [  34.646639,   42.615495,   98.945857]
  Total <r^2> [a.u.]:                                               176.207991

  V1^2 = 0.0203, V2^2 = 0.9797

  Important amplitudes:
      occ i      occ j       vir a       vir b          v   
    ---------------------------------------------------------
     6 (A1) A   1 (B2) B    4 (B2) A    2 (B2) B      0.2294
     6 (A1) A   1 (B2) B    2 (B2) A    4 (B2) B      0.1238
    ---------------------------------------------------------

  Density matrix analysis:
  ------------------------
  NOs
    Occupation of frontier NOs:
       0.9590   0.9704
    Number of electrons: 18.000000
    Number of unpaired electrons: n_u =  3.63737, n_u,nl =  3.59252
    NO participation ratio (PR_NO):  4.824413
  
  
  Mulliken Population Analysis
  Atom      Charge (e)              h+              e-           Del q
  --------------------------------------------------------------------
   1 C       -1.702010        0.966797       -1.562500       -0.595703
   2 C       -0.090703        0.391456       -0.393325       -0.001869
   3 H        0.058469        0.004795       -0.007009       -0.002214
   4 H        0.156674       -0.001830       -0.012205       -0.014034
   5 H        0.058469        0.004795       -0.007009       -0.002214
   6 H        0.156674       -0.001830       -0.012205       -0.014034
   7 H        0.362428        0.630890       -0.000821        0.630068
  --------------------------------------------------------------------
  Sum:       -1.000000        1.995072       -1.995072       -0.000000
  
  Multipole moment analysis of the density matrix
    Molecular charge:                      -1.000000
    Number of electrons:                   18.000000
      Center of electronic charge [Ang]: [ -0.000000,   0.000000,   0.080721]
    Total nuclear charge:                  17.000000
      Center of nuclear charge [Ang]:    [ -0.000000,   0.000000,  -0.000000]
    Dipole moment [D]:                     6.978940
      Cartesian components [D]:          [  0.000000,  -0.000000,  -6.978940]
    RMS size of the density [Ang]:         1.653716
      Cartesian components [Ang]:        [  0.734168,   0.814233,   1.238062]
  
  Exciton analysis of the difference density matrix
    <r_h> [Ang]:                  [  0.000000,  -0.000000,  -1.284199]
    <r_e> [Ang]:                  [ -0.000000,   0.000000,   0.725353]
    |<r_e - r_h>| [Ang]:            2.009552
    Hole size [Ang]:                2.121009
      Cartesian components [Ang]: [  0.725963,   0.896823,   1.779710]
    Electron size [Ang]:            2.809669
      Cartesian components [Ang]: [  1.208584,   2.071131,   1.464234]

  Transition density matrix analysis:
  -----------------------------------
  
  CT numbers (Mulliken)
    omega =     0.0202
    <Phe> =    -0.0039
  
  Exciton analysis of the transition density matrix
    Trans. dipole moment [D]:             0.074123
      Cartesian components [D]:         [ -0.000000,   0.074123,   0.000000]
    <r_h> [Ang]:                        [  0.000000,  -0.000000,  -2.478610]
    <r_e> [Ang]:                        [  0.000000,  -0.000000,  -0.006130]
    |<r_e - r_h>| [Ang]:                  2.472479
    Hole size [Ang]:                      1.856820
      Cartesian components [Ang]:       [  0.898323,   0.898742,   1.353906]
    Electron size [Ang]:                  3.241199
      Cartesian components [Ang]:       [  1.232916,   2.079256,   2.159161]
    RMS electron-hole separation [Ang]:   4.448005
      Cartesian components [Ang]:       [  1.525316,   2.266882,   3.509901]
    Covariance(r_h, r_e) [Ang^2]:         0.140780
    Correlation coefficient:              0.023392
    Center-of-mass size [Ang]:            1.886446
      Cartesian components [Ang]:       [  0.762815,   1.131739,   1.302289]

  Decomposition into state-averaged NTOs
                   omega =   2.0%
  ----------------------------------------------------------------------------


  Excited state 7 (singlet, B2)                                    [converged]
  ----------------------------------------------------------------------------
  Term symbol:  7 (1) B2                                    R^2 =  6.48943e-11

  Total energy:                                            -78.5588763677 a.u.
  Excitation energy:                                               7.591940 eV

  Osc. strength:                                                      0.152226
  Trans. dip. moment [a.u.]:           [  -0.000000,    0.904667,    0.000000]
  <i|r^2|0> [a.u.]:                    [  -0.000000,    0.000000,    0.000000]

  Dip. moment [a.u.]:                  [  -0.000000,   -0.000000,    3.512649]
  Total dipole [Debye]:                                               8.928265
  <r^2> [a.u.]:                        [  35.290173,   23.847717,  123.782994]
  Total <r^2> [a.u.]:                                               182.920883

  V1^2 = 0.9281, V2^2 = 0.0719

  Important amplitudes:
      occ i      occ j       vir a       vir b          v   
    ---------------------------------------------------------
     1 (B2) A               8 (A1) A                 -0.6049
     1 (B2) A               7 (A1) A                  0.2329
    ---------------------------------------------------------

  Density matrix analysis:
  ------------------------
  NOs
    Occupation of frontier NOs:
       0.9774   0.9811
    Number of electrons: 18.000000
    Number of unpaired electrons: n_u =  2.39248, n_u,nl =  2.03729
    NO participation ratio (PR_NO):  2.968912
  
  
  Mulliken Population Analysis
  Atom      Charge (e)              h+              e-           Del q
  --------------------------------------------------------------------
   1 C       -5.267940        0.420249       -4.581881       -4.161632
   2 C        3.797782        0.655994        3.230622        3.886616
   3 H        0.149643        0.091525       -0.002565        0.088960
   4 H        0.237629        0.072367       -0.005446        0.066921
   5 H        0.149643        0.091525       -0.002565        0.088960
   6 H        0.237629        0.072367       -0.005446        0.066921
   7 H       -0.304387        0.015316       -0.052062       -0.036746
  --------------------------------------------------------------------
  Sum:       -1.000000        1.419342       -1.419342        0.000000
  
  Multipole moment analysis of the density matrix
    Molecular charge:                      -1.000000
    Number of electrons:                   18.000000
      Center of electronic charge [Ang]: [  0.000000,   0.000000,  -0.103267]
    Total nuclear charge:                  17.000000
      Center of nuclear charge [Ang]:    [ -0.000000,   0.000000,  -0.000000]
    Dipole moment [D]:                     8.928262
      Cartesian components [D]:          [ -0.000000,  -0.000000,   8.928262]
    RMS size of the density [Ang]:         1.683764
      Cartesian components [Ang]:        [  0.740955,   0.609100,   1.383852]
  
  Exciton analysis of the difference density matrix
    <r_h> [Ang]:                  [ -0.000000,   0.000000,   0.049507]
    <r_e> [Ang]:                  [ -0.000000,   0.000000,   0.540870]
    |<r_e - r_h>| [Ang]:            0.491363
    Hole size [Ang]:                1.857374
      Cartesian components [Ang]: [  0.842138,   0.945649,   1.358819]
    Electron size [Ang]:            2.771012
      Cartesian components [Ang]: [  1.465788,   1.445859,   1.854578]

  Transition density matrix analysis:
  -----------------------------------
  
  CT numbers (Mulliken)
    omega =     0.8979
    <Phe> =    -0.0148
  
  Exciton analysis of the transition density matrix
    Trans. dipole moment [D]:             1.149717
      Cartesian components [D]:         [ -0.000000,   1.149717,   0.000000]
    <r_h> [Ang]:                        [ -0.000000,  -0.000000,   0.265642]
    <r_e> [Ang]:                        [ -0.000000,   0.000000,   0.843824]
    |<r_e - r_h>| [Ang]:                  0.578182
    Hole size [Ang]:                      1.281845
      Cartesian components [Ang]:       [  0.522614,   0.885666,   0.765244]
    Electron size [Ang]:                  3.037801
      Cartesian components [Ang]:       [  1.669300,   1.658416,   1.921283]
    RMS electron-hole separation [Ang]:   3.335182
      Cartesian components [Ang]:       [  1.748257,   1.870625,   2.137241]
    Covariance(r_h, r_e) [Ang^2]:         0.041110
    Correlation coefficient:              0.010557
    Center-of-mass size [Ang]:            1.654810
      Cartesian components [Ang]:       [  0.875068,   0.944756,   1.039272]

  Decomposition into state-averaged NTOs
    H- 1 -> L+ 2: -0.6654 ( 88.5%)
    H- 1 -> L+ 1:  0.0738 (  1.1%)
                   omega =  89.8%
  ----------------------------------------------------------------------------


  Excited state 8 (singlet, B2)                                    [converged]
  ----------------------------------------------------------------------------
  Term symbol:  8 (1) B2                                    R^2 =  1.78388e-07

  Total energy:                                            -78.5144819102 a.u.
  Excitation energy:                                               8.799975 eV

  Osc. strength:                                                      0.000081
  Trans. dip. moment [a.u.]:           [   0.000000,    0.019414,    0.000000]
  <i|r^2|0> [a.u.]:                    [  -0.000000,    0.000000,    0.000000]

  Dip. moment [a.u.]:                  [   0.000000,   -0.000000,    0.321468]
  Total dipole [Debye]:                                               0.817091
  <r^2> [a.u.]:                        [  36.334809,   33.651500,   99.545768]
  Total <r^2> [a.u.]:                                               169.532076

  V1^2 = 0.4542, V2^2 = 0.5458

  Important amplitudes:
      occ i      occ j       vir a       vir b          v   
    ---------------------------------------------------------
     6 (A1) A               5 (B2) A                  0.4629
     6 (A1) A   1 (B2) B    8 (A1) A    8 (A1) B      0.1290
    ---------------------------------------------------------

  Density matrix analysis:
  ------------------------
  NOs
    Occupation of frontier NOs:
       0.6068   0.9718
    Number of electrons: 18.000000
    Number of unpaired electrons: n_u =  3.38525, n_u,nl =  3.13386
    NO participation ratio (PR_NO):  5.921411
  
  
  Mulliken Population Analysis
  Atom      Charge (e)              h+              e-           Del q
  --------------------------------------------------------------------
   1 C       -1.723813        0.973525       -1.591031       -0.617506
   2 C        0.145742        0.149108        0.085468        0.234576
   3 H        0.086343        0.003158        0.022502        0.025660
   4 H        0.138296       -0.010803       -0.021610       -0.032413
   5 H        0.086343        0.003158        0.022502        0.025660
   6 H        0.138296       -0.010803       -0.021610       -0.032413
   7 H        0.128794        0.524005       -0.127571        0.396434
  --------------------------------------------------------------------
  Sum:       -1.000000        1.631347       -1.631347       -0.000000
  
  Multipole moment analysis of the density matrix
    Molecular charge:                      -1.000000
    Number of electrons:                   18.000000
      Center of electronic charge [Ang]: [ -0.000000,   0.000000,  -0.009451]
    Total nuclear charge:                  17.000000
      Center of nuclear charge [Ang]:    [ -0.000000,   0.000000,  -0.000000]
    Dipole moment [D]:                     0.817090
      Cartesian components [D]:          [  0.000000,  -0.000000,   0.817090]
    RMS size of the density [Ang]:         1.623990
      Cartesian components [Ang]:        [  0.751842,   0.723548,   1.244411]
  
  Exciton analysis of the difference density matrix
    <r_h> [Ang]:                  [  0.000000,  -0.000000,  -1.732117]
    <r_e> [Ang]:                  [ -0.000000,   0.000000,  -0.269454]
    |<r_e - r_h>| [Ang]:            1.462663
    Hole size [Ang]:                2.190522
      Cartesian components [Ang]: [  0.862548,   0.938202,   1.781622]
    Electron size [Ang]:            3.059293
      Cartesian components [Ang]: [  1.474989,   1.898389,   1.892035]

  Transition density matrix analysis:
  -----------------------------------
  
  CT numbers (Mulliken)
    omega =     0.4469
    <Phe> =    -0.0002
  
  Exciton analysis of the transition density matrix
    Trans. dipole moment [D]:             0.024673
      Cartesian components [D]:         [  0.000000,   0.024673,   0.000000]
    <r_h> [Ang]:                        [  0.000000,  -0.000000,  -2.817692]
    <r_e> [Ang]:                        [ -0.000000,   0.000000,   0.148853]
    |<r_e - r_h>| [Ang]:                  2.966546
    Hole size [Ang]:                      1.623168
      Cartesian components [Ang]:       [  0.906021,   0.910984,   0.991922]
    Electron size [Ang]:                  2.979260
      Cartesian components [Ang]:       [  1.332391,   2.300975,   1.343964]
    RMS electron-hole separation [Ang]:   4.504409
      Cartesian components [Ang]:       [  1.611213,   2.473095,   3.402572]
    Covariance(r_h, r_e) [Ang^2]:         0.010678
    Correlation coefficient:              0.002208
    Center-of-mass size [Ang]:            1.697941
      Cartesian components [Ang]:       [  0.805648,   1.238200,   0.837137]

  Decomposition into state-averaged NTOs
    H- 0 -> L+ 5:  0.4703 ( 44.2%)
                   omega =  44.7%
  ----------------------------------------------------------------------------


  Excited state 9 (singlet, B2)                                    [converged]
  ----------------------------------------------------------------------------
  Term symbol:  9 (1) B2                                    R^2 =  1.71170e-06

  Total energy:                                            -78.5043130788 a.u.
  Excitation energy:                                               9.076683 eV

  Osc. strength:                                                      0.000310
  Trans. dip. moment [a.u.]:           [  -0.000000,   -0.037311,   -0.000000]
  <i|r^2|0> [a.u.]:                    [   0.000000,   -0.000000,   -0.000000]

  Dip. moment [a.u.]:                  [   0.000000,    0.000000,    0.323744]
  Total dipole [Debye]:                                               0.822875
  <r^2> [a.u.]:                        [  38.346800,   31.101831,  113.058158]
  Total <r^2> [a.u.]:                                               182.506789

  V1^2 = 0.3276, V2^2 = 0.6724

  Important amplitudes:
      occ i      occ j       vir a       vir b          v   
    ---------------------------------------------------------
     6 (A1) A               5 (B2) A                 -0.3920
     6 (A1) A   1 (B2) B    7 (A1) A    9 (A1) B     -0.1388
    ---------------------------------------------------------

  Density matrix analysis:
  ------------------------
  NOs
    Occupation of frontier NOs:
       0.6665   0.9729
    Number of electrons: 18.000000
    Number of unpaired electrons: n_u =  3.67288, n_u,nl =  3.54976
    NO participation ratio (PR_NO):  6.051734
  
  
  Mulliken Population Analysis
  Atom      Charge (e)              h+              e-           Del q
  --------------------------------------------------------------------
   1 C       -1.680146        0.935770       -1.509609       -0.573839
   2 C        0.174546        0.232399        0.030980        0.263380
   3 H        0.065385        0.002242        0.002460        0.004702
   4 H        0.124100       -0.011073       -0.035535       -0.046608
   5 H        0.065385        0.002242        0.002460        0.004702
   6 H        0.124100       -0.011073       -0.035535       -0.046608
   7 H        0.126631        0.571388       -0.177117        0.394272
  --------------------------------------------------------------------
  Sum:       -1.000000        1.721896       -1.721896        0.000000
  
  Multipole moment analysis of the density matrix
    Molecular charge:                      -1.000000
    Number of electrons:                   18.000000
      Center of electronic charge [Ang]: [ -0.000000,  -0.000000,  -0.009518]
    Total nuclear charge:                  17.000000
      Center of nuclear charge [Ang]:    [ -0.000000,   0.000000,  -0.000000]
    Dipole moment [D]:                     0.822875
      Cartesian components [D]:          [  0.000000,   0.000000,   0.822875]
    RMS size of the density [Ang]:         1.684991
      Cartesian components [Ang]:        [  0.772377,   0.695597,   1.326187]
  
  Exciton analysis of the difference density matrix
    <r_h> [Ang]:                  [  0.000000,   0.000000,  -1.607077]
    <r_e> [Ang]:                  [ -0.000000,  -0.000000,  -0.222030]
    |<r_e - r_h>| [Ang]:            1.385047
    Hole size [Ang]:                2.157671
      Cartesian components [Ang]: [  0.810091,   0.922765,   1.774204]
    Electron size [Ang]:            3.293382
      Cartesian components [Ang]: [  1.529632,   1.737032,   2.342928]

  Transition density matrix analysis:
  -----------------------------------
  
  CT numbers (Mulliken)
    omega =     0.3224
    <Phe> =    -0.0001
  
  Exciton analysis of the transition density matrix
    Trans. dipole moment [D]:             0.047417
      Cartesian components [D]:         [ -0.000000,  -0.047417,  -0.000000]
    <r_h> [Ang]:                        [  0.000000,  -0.000000,  -2.802934]
    <r_e> [Ang]:                        [  0.000000,   0.000000,   0.070807]
    |<r_e - r_h>| [Ang]:                  2.873742
    Hole size [Ang]:                      1.634063
      Cartesian components [Ang]:       [  0.905266,   0.909461,   1.011699]
    Electron size [Ang]:                  2.923736
      Cartesian components [Ang]:       [  1.306358,   2.256969,   1.322027]
    RMS electron-hole separation [Ang]:   4.415182
      Cartesian components [Ang]:       [  1.589293,   2.433137,   3.323827]
    Covariance(r_h, r_e) [Ang^2]:        -0.008524
    Correlation coefficient:             -0.001784
    Center-of-mass size [Ang]:            1.673421
      Cartesian components [Ang]:       [  0.794717,   1.216747,   0.829631]

  Decomposition into state-averaged NTOs
    H- 0 -> L+ 5: -0.3994 ( 31.9%)
                   omega =  32.2%
  ----------------------------------------------------------------------------


  Excited state 10 (singlet, B2)                                    [converged]
  ----------------------------------------------------------------------------
  Term symbol:  10 (1) B2                                   R^2 =  7.27478e-06

  Total energy:                                            -78.4946076928 a.u.
  Excitation energy:                                               9.340780 eV

  Osc. strength:                                                      0.000114
  Trans. dip. moment [a.u.]:           [   0.000000,   -0.022326,    0.000000]
  <i|r^2|0> [a.u.]:                    [   0.000000,    0.000000,    0.000000]

  Dip. moment [a.u.]:                  [  -0.000000,   -0.000000,    4.147132]
  Total dipole [Debye]:                                              10.540961
  <r^2> [a.u.]:                        [  28.696842,   21.990553,  113.826385]
  Total <r^2> [a.u.]:                                               164.513780

  V1^2 = 0.8660, V2^2 = 0.1340

  Important amplitudes:
      occ i      occ j       vir a       vir b          v   
    ---------------------------------------------------------
     5 (A1) A               4 (B2) A                 -0.4907
     5 (A1) A               3 (B2) A                 -0.2994
    ---------------------------------------------------------

  Density matrix analysis:
  ------------------------
  NOs
    Occupation of frontier NOs:
       0.9663   1.0914
    Number of electrons: 18.000000
    Number of unpaired electrons: n_u =  2.60716, n_u,nl =  2.16341
    NO participation ratio (PR_NO):  3.753495
  
  
  Mulliken Population Analysis
  Atom      Charge (e)              h+              e-           Del q
  --------------------------------------------------------------------
   1 C       -1.322688        0.404970       -0.621350       -0.216380
   2 C       -0.141796        0.458974       -0.511936       -0.052962
   3 H        0.116068        0.065481       -0.010096        0.055385
   4 H        0.217002        0.059487       -0.013193        0.046294
   5 H        0.116068        0.065481       -0.010096        0.055385
   6 H        0.217002        0.059487       -0.013193        0.046294
   7 H       -0.201656        0.088745       -0.022760        0.065985
  --------------------------------------------------------------------
  Sum:       -1.000000        1.202625       -1.202625        0.000000
  
  Multipole moment analysis of the density matrix
    Molecular charge:                      -1.000000
    Number of electrons:                   18.000000
      Center of electronic charge [Ang]: [  0.000000,   0.000000,  -0.121920]
    Total nuclear charge:                  17.000000
      Center of nuclear charge [Ang]:    [ -0.000000,   0.000000,  -0.000000]
    Dipole moment [D]:                     10.540958
      Cartesian components [D]:          [ -0.000000,  -0.000000,  10.540958]
    RMS size of the density [Ang]:         1.595149
      Cartesian components [Ang]:        [  0.668162,   0.584902,   1.325122]
  
  Exciton analysis of the difference density matrix
    <r_h> [Ang]:                  [ -0.000000,  -0.000000,  -0.237357]
    <r_e> [Ang]:                  [  0.000000,   0.000000,   0.063367]
    |<r_e - r_h>| [Ang]:            0.300723
    Hole size [Ang]:                1.734729
      Cartesian components [Ang]: [  0.707163,   0.587998,   1.470872]
    Electron size [Ang]:            2.026969
      Cartesian components [Ang]: [  0.814585,   1.151143,   1.455996]

  Transition density matrix analysis:
  -----------------------------------
  
  CT numbers (Mulliken)
    omega =     0.8377
    <Phe> =    -0.0177
  
  Exciton analysis of the transition density matrix
    Trans. dipole moment [D]:             0.028374
      Cartesian components [D]:         [  0.000000,  -0.028374,   0.000000]
    <r_h> [Ang]:                        [ -0.000000,   0.000000,   0.047603]
    <r_e> [Ang]:                        [  0.000000,   0.000000,   0.234777]
    |<r_e - r_h>| [Ang]:                  0.187173
    Hole size [Ang]:                      1.317109
      Cartesian components [Ang]:       [  0.599174,   0.427030,   1.092434]
    Electron size [Ang]:                  1.853573
      Cartesian components [Ang]:       [  0.709032,   1.143615,   1.274813]
    RMS electron-hole separation [Ang]:   2.255626
      Cartesian components [Ang]:       [  0.928822,   1.218613,   1.655331]
    Covariance(r_h, r_e) [Ang^2]:         0.058847
    Correlation coefficient:              0.024104
    Center-of-mass size [Ang]:            1.149804
      Cartesian components [Ang]:       [  0.463886,   0.611433,   0.856160]

  Decomposition into state-averaged NTOs
    H- 2 -> L+ 0:  0.6352 ( 80.7%)
    H- 1 -> L+ 7: -0.0929 (  1.7%)
                   omega =  83.8%
  ----------------------------------------------------------------------------


--------------------------------------------------------------------------------
  Time of ADC calculation:  CPU 543.20 s  wall 134.36 s
================================================================================
 
 --------------------------------------------------------------
             Orbital Energies (a.u.) and Symmetries
 --------------------------------------------------------------
 
 Alpha MOs, Restricted
 -- Occupied --                  
-11.074 -11.070  -0.882  -0.619  -0.501  -0.405  -0.352  -0.218
  1 A1    2 A1    3 A1    4 A1    1 B1    5 A1    2 B1    1 B2                 
 -0.033
  6 A1                                                                         
 -- Virtual --                   
  0.169   0.190   0.197   0.241   0.244   0.257   0.326   0.332
  7 A1    3 B1    2 B2    3 B2    4 B1    8 A1    9 A1    4 B2                 
  0.344   0.405   0.448   0.459   0.486   0.490   0.508   0.508
 10 A1   11 A1    5 B1   12 A1    5 B2    6 B1    7 B1   13 A1                 
  0.585   0.593   0.700   0.770   0.990   1.007   1.089   1.103
  6 B2   14 A1    8 B1   15 A1   16 A1    9 B1   17 A1   18 A1                 
  1.132   1.180   1.193   1.222   1.263   1.274   1.315   1.333
 19 A1   10 B1   11 B1   20 A1    7 B2    1 A2    8 B2   21 A1                 
  1.447   1.451   1.490   1.605   1.766   1.805   1.858   1.887
  2 A2    9 B2   22 A1   12 B1   23 A1   13 B1   14 B1   10 B2                 
  1.991   2.032   2.061   2.109   2.178   2.233   2.261   2.303
 15 B1   11 B2   24 A1   12 B2    3 A2   25 A1   16 B1   26 A1                 
  2.346   2.529   2.573   2.634   2.739   2.745   3.000   3.005
 13 B2   27 A1    4 A2   28 A1   17 B1   29 A1   18 B1   30 A1                 
  3.447   3.507
 31 A1   19 B1                                                                 
 
 Beta MOs, Restricted
 -- Occupied --                  
-11.074 -11.070  -0.882  -0.619  -0.501  -0.405  -0.352  -0.218
  1 A1    2 A1    3 A1    4 A1    1 B1    5 A1    2 B1    1 B2                 
 -0.033
  6 A1                                                                         
 -- Virtual --                   
  0.169   0.190   0.197   0.241   0.244   0.257   0.326   0.332
  7 A1    3 B1    2 B2    3 B2    4 B1    8 A1    9 A1    4 B2                 
  0.344   0.405   0.448   0.459   0.486   0.490   0.508   0.508
 10 A1   11 A1    5 B1   12 A1    5 B2    6 B1    7 B1   13 A1                 
  0.585   0.593   0.700   0.770   0.990   1.007   1.089   1.103
  6 B2   14 A1    8 B1   15 A1   16 A1    9 B1   17 A1   18 A1                 
  1.132   1.180   1.193   1.222   1.263   1.274   1.315   1.333
 19 A1   10 B1   11 B1   20 A1    7 B2    1 A2    8 B2   21 A1                 
  1.447   1.451   1.490   1.605   1.766   1.805   1.858   1.887
  2 A2    9 B2   22 A1   12 B1   23 A1   13 B1   14 B1   10 B2                 
  1.991   2.032   2.061   2.109   2.178   2.233   2.261   2.303
 15 B1   11 B2   24 A1   12 B2    3 A2   25 A1   16 B1   26 A1                 
  2.346   2.529   2.573   2.634   2.739   2.745   3.000   3.005
 13 B2   27 A1    4 A2   28 A1   17 B1   29 A1   18 B1   30 A1                 
  3.447   3.507
 31 A1   19 B1                                                                 
 --------------------------------------------------------------
 
          Ground-State Mulliken Net Atomic Charges

     Atom                 Charge (a.u.)
  ----------------------------------------
      1 C                    -1.109001
      2 C                    -0.028059
      3 H                     0.053476
      4 H                     0.167944
      5 H                     0.053476
      6 H                     0.167944
      7 H                    -0.305779
  ----------------------------------------
  Sum of atomic charges =    -1.000000

 -----------------------------------------------------------------
                    Cartesian Multipole Moments
 -----------------------------------------------------------------
    Charge (ESU x 10^10)
                -4.8032
    Dipole Moment (Debye)
         X       0.0000      Y       0.0000      Z      12.3007
       Tot      12.3007
    Quadrupole Moments (Debye-Ang)
        XX     -19.4840     XY      -0.0000     YY     -23.8341
        XZ      -0.0000     YZ      -0.0000     ZZ     -61.5139
    Octopole Moments (Debye-Ang^2)
       XXX       0.0000    XXY       0.0000    XYY       0.0000
       YYY       0.0000    XXZ      16.6486    XYZ      -0.0000
       YYZ      16.4892    XZZ       0.0000    YZZ       0.0000
       ZZZ     158.4482
    Hexadecapole Moments (Debye-Ang^3)
      XXXX     -58.6702   XXXY      -0.0000   XXYY     -19.8588
      XYYY      -0.0000   YYYY     -55.1437   XXXZ      -0.0000
      XXYZ      -0.0000   XYYZ      -0.0000   YYYZ      -0.0000
      XXZZ     -83.3102   XYZZ      -0.0000   YYZZ     -86.7684
      XZZZ      -0.0000   YZZZ      -0.0000   ZZZZ    -732.5430
 -----------------------------------------------------------------
 Total job time:  217.43s(wall), 590.20s(cpu) 
 Sun Mar 27 13:07:10 2022

        *************************************************************
        *                                                           *
        *  Thank you very much for using Q-Chem.  Have a nice day.  *
        *                                                           *
        *************************************************************


