/src/tsommerfeld/qchem/exe/qcprog.exe .input1.388889.30893.qcin.1 /src/jdavis/qchem.scratch/qchem30893/

                  Welcome to Q-Chem
     A Quantum Leap Into The Future Of Chemistry


 Q-Chem 5.4 (devel), Q-Chem, Inc., Pleasanton, CA (2021)

 E. Epifanovsky,  A. T. B. Gilbert,  Xintian Feng,  Joonho Lee,  Yuezhi Mao,  
 N. Mardirossian,  P. Pokhilko,  A. White,  M. Wormit,  M. P. Coons,  
 A. L. Dempwolff,  Zhengting Gan,  D. Hait,  P. R. Horn,  L. D. Jacobson,  
 I. Kaliman,  J. Kussmann,  A. W. Lange,  Ka Un Lao,  D. S. Levine,  Jie Liu,  
 S. C. McKenzie,  A. F. Morrison,  K. Nanda,  F. Plasser,  D. R. Rehn,  
 M. L. Vidal,  Zhi-Qiang You,  Ying Zhu,  B. Alam,  B. Albrecht,  
 A. Aldossary,  E. Alguire,  J. H. Andersen,  D. Barton,  K. Begam,  A. Behn,  
 Y. A. Bernard,  E. J. Berquist,  H. Burton,  A. Carreras,  K. Carter-Fenk,  
 R. Chakraborty,  A. D. Chien,  K. D. Closser,  V. Cofer-Shabica,  
 S. Dasgupta,  Jia Deng,  M. de Wergifosse,  M. Diedenhofen,  Hainam Do,  
 S. Ehlert,  Po-Tung Fang,  S. Fatehi,  Qingguo Feng,  T. Friedhoff,  
 J. Gayvert,  Qinghui Ge,  G. Gidofalvi,  M. Goldey,  J. Gomes,  
 C. Gonzalez-Espinoza,  S. Gulania,  A. Gunina,  M. W. D. Hanson-Heine,  
 P. H. P. Harbach,  A. W. Hauser,  M. F. Herbst,  M. Hernandez Vera,  
 M. Hodecker,  Z. C. Holden,  S. Houck,  Xunkun Huang,  Kerwin Hui,  
 B. C. Huynh,  M. Ivanov,  Hyunjun Ji,  Hanjie Jiang,  B. Kaduk,  S. Kaehler,  
 K. Khistyaev,  Jaehoon Kim,  P. Klunzinger,  Z. Koczor-Benda,  
 Joong Hoon Koh,  D. Kosenkov,  L. Koulias,  T. Kowalczyk,  C. M. Krauter,  
 K. Kue,  A. Kunitsa,  T. Kus,  A. Landau,  K. V. Lawler,  D. Lefrancois,  
 S. Lehtola,  Rain Li,  Yi-Pei Li,  Jiashu Liang,  M. Liebenthal,  
 Hung-Hsuan Lin,  You-Sheng Lin,  Fenglai Liu,  Kuan-Yu Liu,  
 M. Loipersberger,  A. Luenser,  A. Manjanath,  P. Manohar,  E. Mansoor,  
 S. F. Manzer,  Shan-Ping Mao,  A. V. Marenich,  T. Markovich,  S. Mason,  
 S. A. Maurer,  P. F. McLaughlin,  M. F. S. J. Menger,  J.-M. Mewes,  
 S. A. Mewes,  P. Morgante,  J. W. Mullinax,  K. J. Oosterbaan,  G. Paran,  
 Alexander C. Paul,  Suranjan K. Paul,  F. Pavosevic,  Zheng Pei,  S. Prager,  
 E. I. Proynov,  E. Ramos,  B. Rana,  A. E. Rask,  A. Rettig,  R. M. Richard,  
 F. Rob,  E. Rossomme,  T. Scheele,  M. Scheurer,  M. Schneider,  
 N. Sergueev,  S. M. Sharada,  W. Skomorowski,  D. W. Small,  C. J. Stein,  
 Yu-Chuan Su,  E. J. Sundstrom,  Zhen Tao,  J. Thirman,  T. Tsuchimochi,  
 N. M. Tubman,  S. P. Veccham,  O. Vydrov,  J. Wenzel,  J. Witte,  A. Yamada,  
 Kun Yao,  S. Yeganeh,  S. R. Yost,  A. Zech,  Igor Ying Zhang,  Xing Zhang,  
 Yu Zhang,  D. Zuev,  A. Aspuru-Guzik,  A. T. Bell,  N. A. Besley,  
 K. B. Bravaya,  B. R. Brooks,  D. Casanova,  Jeng-Da Chai,  S. Coriani,  
 C. J. Cramer,  A. E. DePrince, III,  R. A. DiStasio Jr.,  A. Dreuw,  
 B. D. Dunietz,  T. R. Furlani,  W. A. Goddard III,  S. Grimme,  
 S. Hammes-Schiffer,  T. Head-Gordon,  W. J. Hehre,  Chao-Ping Hsu,  
 T.-C. Jagau,  Yousung Jung,  A. Klamt,  Jing Kong,  D. S. Lambrecht,  
 WanZhen Liang,  N. J. Mayhall,  C. W. McCurdy,  J. B. Neaton,  
 C. Ochsenfeld,  J. A. Parkhill,  R. Peverati,  V. A. Rassolov,  Yihan Shao,  
 L. V. Slipchenko,  T. Stauch,  R. P. Steele,  J. E. Subotnik,  
 A. J. W. Thom,  A. Tkatchenko,  D. G. Truhlar,  T. Van Voorhis,  
 T. A. Wesolowski,  K. B. Whaley,  H. L. Woodcock III,  P. M. Zimmerman,  
 S. Faraji,  P. M. W. Gill,  M. Head-Gordon,  J. M. Herbert,  A. I. Krylov

 Additional authors for Version 5.4.1: 
 S. Kotaru,  Shaozhi Li,  Xiangyuan Li,  F. Matz,  A. Molle,  Haisheng Ren,  
 Yingli Su,  Hung-Yi Tsai,  C. Utku,  Fang Wang

 Contributors to earlier versions of Q-Chem not listed above: 
 R. D. Adamson,  B. Austin,  R. Baer,  J. Baker,  G. J. O. Beran,  
 K. Brandhorst,  S. T. Brown,  E. F. C. Byrd,  A. K. Chakraborty,  
 G. K. L. Chan,  Chun-Min Chang,  Yunqing Chen,  C.-L. Cheng,  
 Siu Hung Chien,  D. M. Chipman,  D. L. Crittenden,  H. Dachsel,  
 R. J. Doerksen,  A. D. Dutoi,  R. G. Edgar,  J. Fosso-Tande,  
 L. Fusti-Molnar,  D. Ghosh,  A. Ghysels,  A. Golubeva-Zadorozhnaya,  
 J. Gonthier,  M. S. Gordon,  S. R. Gwaltney,  G. Hawkins,  J. E. Herr,  
 A. Heyden,  S. Hirata,  E. G. Hohenstein,  G. Kedziora,  F. J. Keil,  
 C. Kelley,  Jihan Kim,  R. A. King,  R. Z. Khaliullin,  P. P. Korambath,  
 W. Kurlancheek,  A. Laurent,  A. M. Lee,  M. S. Lee,  S. V. Levchenko,  
 Ching Yeh Lin,  D. Liotard,  E. Livshits,  R. C. Lochan,  I. Lotan,  
 L. A. Martinez-Martinez,  P. E. Maslen,  N. Nair,  D. P. O'Neill,  
 D. Neuhauser,  E. Neuscamman,  C. M. Oana,  R. Olivares-Amaya,  R. Olson,  
 T. M. Perrine,  B. Peters,  P. A. Pieniazek,  A. Prociuk,  Y. M. Rhee,  
 J. Ritchie,  M. A. Rohrdanz,  E. Rosta,  N. J. Russ,  H. F. Schaefer III,  
 M. W. Schmidt,  N. E. Schultz,  S. Sharma,  N. Shenvi,  C. D. Sherrill,  
 A. C. Simmonett,  A. Sodt,  T. Stein,  D. Stuck,  K. S. Thanthiriwatte,  
 V. Vanovschi,  L. Vogt,  Tao Wang,  A. Warshel,  M. A. Watson,  
 C. F. Williams,  Q. Wu,  X. Xu,  Jun Yang,  W. Zhang,  Yan Zhao

 Please cite Q-Chem as follows:
 Y. Shao et al., Mol. Phys. 113, 184-215 (2015)
 DOI: 10.1080/00268976.2014.952696

 Q-Chem 5.4.1 for Intel X86 EM64T Linux

 Parts of Q-Chem use Armadillo 9.900.5 (Nocturnal Misbehaviour).
 http://arma.sourceforge.net/

 Q-Chem begins on Sun Mar 27 13:14:21 2022  

 Host: node01
0

     Scratch files written to /src/jdavis/qchem.scratch/qchem30893//
 Processing $rem in /src/tsommerfeld/qchem/config/preferences:
 Processing $rem in /home/jdavis/.qchemrc:

 Checking the input file for inconsistencies... 	...done.

--------------------------------------------------------------
User input:
--------------------------------------------------------------
$molecule
-1 1
C         0.0000000000    0.0000000000    0.8417902907
C         0.0000000000    0.0000000000   -0.4872097093
H         0.9623488518    0.0000000000    1.3363703127
H         0.9623489048    0.0000000000   -0.9817896873
H        -0.9623488518    0.0000000000    1.3363703127
H        -0.9623489048    0.0000000000   -0.9817896873
H         0.0000000000    0.0000000000   -2.8366446508
$end

$rem
   METHOD adc(3)
   BASIS gen
   PURECART 11
   EE_STATES [0,0,0,10]
   scf_convergence 8
   ADC_DAVIDSON_MAXITER 120
   ADC_DAVIDSON_MAXSUBSPACE 200
   adc_nguess_singles 100
   THRESH 14
   S2THRESH 14
   adc_davidson_conv 5
   adc_davidson_thresh 14
   THREADS 10
   MEM_TOTAL 95000
   STATE_ANALYSIS TRUE
$end
$basis
C 1
S   9   1.00
      6.665000D+03           6.920000D-04
      1.000000D+03           5.329000D-03
      2.280000D+02           2.707700D-02
      6.471000D+01           1.017180D-01
      2.106000D+01           2.747400D-01
      7.495000D+00           4.485640D-01
      2.797000D+00           2.850740D-01
      5.215000D-01           1.520400D-02
      1.596000D-01          -3.191000D-03
S   9   1.00
      6.665000D+03          -1.460000D-04
      1.000000D+03          -1.154000D-03
      2.280000D+02          -5.725000D-03
      6.471000D+01          -2.331200D-02
      2.106000D+01          -6.395500D-02
      7.495000D+00          -1.499810D-01
      2.797000D+00          -1.272620D-01
      5.215000D-01           5.445290D-01
      1.596000D-01           5.804960D-01
S   1   1.00
      1.596000D-01           1.000000D+00
S   1   1.00
      0.0469000              1.0000000
P   4   1.00
      9.439000D+00           3.810900D-02
      2.002000D+00           2.094800D-01
      5.456000D-01           5.085570D-01
      1.517000D-01           4.688420D-01
P   1   1.00
      1.517000D-01           1.000000D+00
P   1   1.00
      0.0842778      1.0000000
P   1   1.00
      0.0421389      1.0000000
D   1   1.00
      5.500000D-01           1.0000000
****
C 2
S   9   1.00
      6.665000D+03           6.920000D-04
      1.000000D+03           5.329000D-03
      2.280000D+02           2.707700D-02
      6.471000D+01           1.017180D-01
      2.106000D+01           2.747400D-01
      7.495000D+00           4.485640D-01
      2.797000D+00           2.850740D-01
      5.215000D-01           1.520400D-02
      1.596000D-01          -3.191000D-03
S   9   1.00
      6.665000D+03          -1.460000D-04
      1.000000D+03          -1.154000D-03
      2.280000D+02          -5.725000D-03
      6.471000D+01          -2.331200D-02
      2.106000D+01          -6.395500D-02
      7.495000D+00          -1.499810D-01
      2.797000D+00          -1.272620D-01
      5.215000D-01           5.445290D-01
      1.596000D-01           5.804960D-01
S   1   1.00
      1.596000D-01           1.000000D+00
S   1   1.00
      0.0469000              1.0000000
P   4   1.00
      9.439000D+00           3.810900D-02
      2.002000D+00           2.094800D-01
      5.456000D-01           5.085570D-01
      1.517000D-01           4.688420D-01
P   1   1.00
      1.517000D-01           1.000000D+00
P   1   1.00
      0.0842778      1.0000000
P   1   1.00
      0.0421389      1.0000000
D   1   1.00
      5.500000D-01           1.0000000
****
H 3
cc-pVDZ
****
H 4
cc-pVDZ
****
H 5
cc-pVDZ
****
H 6
cc-pVDZ
****
H 7
aug-cc-pVDZ
****
$end
--------------------------------------------------------------
 ----------------------------------------------------------------
             Standard Nuclear Orientation (Angstroms)
    I     Atom           X                Y                Z
 ----------------------------------------------------------------
    1      C       0.0000000000     0.0000000000     0.8417902855
    2      C       0.0000000000     0.0000000000    -0.4872097145
    3      H       0.9623488518     0.0000000000     1.3363703075
    4      H       0.9623489048     0.0000000000    -0.9817896925
    5      H      -0.9623488518     0.0000000000     1.3363703075
    6      H      -0.9623489048     0.0000000000    -0.9817896925
    7      H       0.0000000000     0.0000000000    -2.8366446560
 ----------------------------------------------------------------
 Molecular Point Group                 C2v   NOp =  4
 Largest Abelian Subgroup              C2v   NOp =  4
 Nuclear Repulsion Energy =          36.55739271 hartrees
 There are        9 alpha and        9 beta electrons
 Requested basis set is non-standard
 There are 33 shells and 67 basis functions
 Total memory of 95000 MB is distributed as follows: 
   MEM_STATIC is set to 192 MB
   QALLOC/CCMAN JOB total memory use is  94808 MB
 Warning: actual memory use might exceed 95000 MB

 Total QAlloc Memory Limit  95000 MB
 Mega-Array Size       188 MB
 MEM_STATIC part       192 MB

                       Distance Matrix (Angstroms)
             C (  1)   C (  2)   H (  3)   H (  4)   H (  5)   H (  6)
   C (  2)  1.329000
   H (  3)  1.082000  2.061931
   H (  4)  2.061931  1.082000  2.318160
   H (  5)  1.082000  2.061931  1.924698  3.013026
   H (  6)  2.061931  1.082000  3.013026  1.924698  2.318160
   H (  7)  3.678435  2.349435  4.282542  2.089642  4.282542  2.089642

 
 A cutoff of  1.0D-14 yielded    561 shell pairs
 There are      2337 function pairs (      2484 Cartesian)
 Smallest overlap matrix eigenvalue = 1.49E-04

 Scale SEOQF with 1.000000e-01/1.000000e-01/1.000000e-01

 Standard Electronic Orientation quadrupole field applied
 Nucleus-field energy     =    -0.0000000019 hartrees
 ================ Generating on-the-fly SAD Guess ================
Attempting to make child job directory: /src/jdavis/qchem.scratch/qchem30893//Frg1/
Attempting to make child job directory: /src/jdavis/qchem.scratch/qchem30893//Frg2/
Creating input file /src/jdavis/qchem.scratch/qchem30893/Frg1.input
using default PutDataFrgm: nothing
calling putenv with: QCSCRATCH=/src/jdavis/qchem.scratch/qchem30893/ 
Spawning Job For Fragment 0
Done Job For Fragment 0
calling putenv with: QCSCRATCH=/src/jdavis/qchem.scratch 
calling putenv with: QCTHREADS=1 
Creating input file /src/jdavis/qchem.scratch/qchem30893/Frg2.input
using default PutDataFrgm: nothing
calling putenv with: QCSCRATCH=/src/jdavis/qchem.scratch/qchem30893/ 
Spawning Job For Fragment 1
Done Job For Fragment 1
calling putenv with: QCSCRATCH=/src/jdavis/qchem.scratch 
calling putenv with: QCTHREADS=1 
 Time for running child jobs:  CPU 1.77 s  wall 54.45 s
 ============= Method Specific SAD Guess Constructed =============
 Guess from on-the-fly superposition of atomic densities
 Warning: Energy on first SCF cycle will be non-variational
 A restricted Hartree-Fock SCF calculation will be
 performed using Pulay DIIS extrapolation
 SCF converges when DIIS error is below 1.0E-08
 using 10 threads for integral computing
 -------------------------------------------------------
 OpenMP Integral computing Module                
 Release: version 1.0, May 2013, Q-Chem Inc. Pittsburgh 
 -------------------------------------------------------
 ---------------------------------------
  Cycle       Energy         DIIS Error
 ---------------------------------------
    1     -78.8399650761      7.39E-02
    2     -78.4382124257      7.16E-03
    3     -78.4949948977      2.34E-03
    4     -78.4991347360      8.98E-04
    5     -78.4999031313      2.37E-04
    6     -78.4999878418      7.63E-05
    7     -78.5000002127      3.68E-05
    8     -78.5000028749      7.30E-06
    9     -78.5000030050      1.41E-06
   10     -78.5000030099      2.48E-07
   11     -78.5000030101      5.13E-08
   12     -78.5000030101      1.11E-08
   13     -78.5000030101      1.86E-09 Convergence criterion met
 ---------------------------------------
 SCF time:  CPU 12.80 s  wall 1.29 s
 SCF   energy in the final basis set = -78.50000301
 Total energy in the final basis set = -78.50000301
================================================================================
|                                                                              |
|                                 A D C  M A N                                 |
|                                                                              |
 ------------------------------------------------------------------------------ 
|                                                                              |
| Components:                                                                  |
|                                                                              |
| - libvmm - 1.3-trunk                                                         |
|   Authors:                                                                   |
|   Evgeny Epifanovsky, Ilya Kaliman                                           |
|                                                                              |
| - libtensor - 2.5-trunk                                                      |
|   Authors:                                                                   |
|   Evgeny Epifanovsky, Michael Wormit, Dmitry Zuev, Sam Manzer,               |
|   Ilya Kaliman                                                               |
|                                                                              |
| - libwfa - 1.1-trunk                                                         |
|   Authors:                                                                   |
|   Felix Plasser, Stefanie Mewes (Baeppler), Benjamin Thomitzni,              |
|   Michael Wormit, Feng Chen, Anna I. Krylov, Pavel Pokhilko                  |
|                                                                              |
| - libadc - 1.1-trunk                                                         |
|   Authors:                                                                   |
|   Michael Wormit, Adrian L. Dempwolff, Philipp H. P. Harbach,                |
|   Caroline Krauter, Dirk Rehn, Matthias Schneider, Jan Wenzel                |
|                                                                              |
| - adcman - 2.6-trunk                                                         |
|   Authors:                                                                   |
|   Michael Wormit, Adrian L. Dempwolff, Philipp H. P. Harbach,                |
|   Caroline Krauter, Daniel Lefrancois, Jan-Michael Mewes, Dirk Rehn,         |
|   Matthias Schneider, Jan Wenzel, Andreas Dreuw                              |
|                                                                              |
| Authors of earlier versions of ADCMAN:                                       |
| Andreas Dreuw, Jan Hendrik Starcke, Dirk Rehn, Michael Wormit                |
|                                                                              |
================================================================================

 
 Alpha MOs, Restricted
 -- Occupied --                  
-11.074 -11.069  -0.881  -0.618  -0.500  -0.404  -0.351  -0.217
  1 A1    2 A1    3 A1    4 A1    1 B1    5 A1    2 B1    1 B2                 
 -0.032
  6 A1                                                                         
 -- Virtual --                   
  0.175   0.198   0.205   0.248   0.254   0.260   0.332   0.339
  7 A1    3 B1    2 B2    3 B2    4 B1    8 A1    9 A1    4 B2                 
  0.357   0.406   0.462   0.471   0.500   0.506   0.508   0.533
 10 A1   11 A1    5 B1   12 A1    6 B1    5 B2   13 A1    7 B1                 
  0.599   0.607   0.696   0.774   0.994   1.006   1.092   1.119
 14 A1    6 B2    8 B1   15 A1   16 A1    9 B1   17 A1   18 A1                 
  1.147   1.182   1.224   1.235   1.275   1.293   1.340   1.347
 19 A1   10 B1   11 B1   20 A1    1 A2    7 B2   21 A1    8 B2                 
  1.448   1.454   1.500   1.624   1.768   1.823   1.866   1.889
  2 A2    9 B2   22 A1   12 B1   23 A1   13 B1   14 B1   10 B2                 
  1.999   2.035   2.063   2.110   2.179   2.242   2.265   2.307
 15 B1   11 B2   24 A1   12 B2    3 A2   25 A1   16 B1   26 A1                 
  2.348   2.532   2.574   2.639   2.734   2.747   3.012   3.015
 13 B2   27 A1    4 A2   28 A1   17 B1   29 A1   18 B1   30 A1                 
  3.452   3.511
 31 A1   19 B1                                                                 
 
 Beta MOs, Restricted
 -- Occupied --                  
-11.074 -11.069  -0.881  -0.618  -0.500  -0.404  -0.351  -0.217
  1 A1    2 A1    3 A1    4 A1    1 B1    5 A1    2 B1    1 B2                 
 -0.032
  6 A1                                                                         
 -- Virtual --                   
  0.175   0.198   0.205   0.248   0.254   0.260   0.332   0.339
  7 A1    3 B1    2 B2    3 B2    4 B1    8 A1    9 A1    4 B2                 
  0.357   0.406   0.462   0.471   0.500   0.506   0.508   0.533
 10 A1   11 A1    5 B1   12 A1    6 B1    5 B2   13 A1    7 B1                 
  0.599   0.607   0.696   0.774   0.994   1.006   1.092   1.119
 14 A1    6 B2    8 B1   15 A1   16 A1    9 B1   17 A1   18 A1                 
  1.147   1.182   1.224   1.235   1.275   1.293   1.340   1.347
 19 A1   10 B1   11 B1   20 A1    1 A2    7 B2   21 A1    8 B2                 
  1.448   1.454   1.500   1.624   1.768   1.823   1.866   1.889
  2 A2    9 B2   22 A1   12 B1   23 A1   13 B1   14 B1   10 B2                 
  1.999   2.035   2.063   2.110   2.179   2.242   2.265   2.307
 15 B1   11 B2   24 A1   12 B2    3 A2   25 A1   16 B1   26 A1                 
  2.348   2.532   2.574   2.639   2.734   2.747   3.012   3.015
 13 B2   27 A1    4 A2   28 A1   17 B1   29 A1   18 B1   30 A1                 
  3.452   3.511
 31 A1   19 B1                                                                 

--------------------------------------------------------------------------------
                                   HF Summary                                   
--------------------------------------------------------------------------------
  Energy:                                                  -78.5000030101 a.u.
  Dip. moment [a.u.]:                  [   0.000000,   -0.000000,    4.806489]
  Total dipole [Debye]:                                              12.216879
  <r^2> [a.u.]:                        [  27.569066,   17.569495,  113.914609]
  Total <r^2> [a.u.]:                                               159.053169
--------------------------------------------------------------------------------

--------------------------------------------------------------------------------
                                 MP(2) Summary                                  
--------------------------------------------------------------------------------
  MP energy contribution:                                   -0.3079834216 a.u.
  Total energy:                                            -78.8079864318 a.u.
  Dip. moment [a.u.]:                  [  -0.000000,   -0.000000,    4.796703]
  Total dipole [Debye]:                                              12.192006
  <r^2> [a.u.]:                        [  27.816939,   17.602100,  113.719008]
  Total <r^2> [a.u.]:                                               159.138047

  Density matrix analysis:
  ------------------------
  NOs
    Occupation of frontier NOs:
       0.0435   1.9374
    Number of electrons: 18.000000
    Number of unpaired electrons: n_u =  0.47145, n_u,nl =  0.05141
    NO participation ratio (PR_NO): 16.616272
  
  
  Mulliken Population Analysis
  Atom      Charge (e)              h+              e-           Del q
  --------------------------------------------------------------------
   1 C       -1.254057        0.122962       -0.121405        0.001557
   2 C        0.031100        0.056874       -0.115227       -0.058352
   3 H        0.065763        0.019622       -0.012314        0.007309
   4 H        0.174548        0.016508       -0.013715        0.002792
   5 H        0.065763        0.019622       -0.012314        0.007309
   6 H        0.174548        0.016508       -0.013715        0.002792
   7 H       -0.257665        0.050187       -0.013594        0.036593
  --------------------------------------------------------------------
  Sum:       -1.000000        0.302283       -0.302283        0.000000
  
  Multipole moment analysis of the density matrix
    Molecular charge:                      -1.000000
    Number of electrons:                   18.000000
      Center of electronic charge [Ang]: [  0.000000,   0.000000,  -0.141017]
    Total nuclear charge:                  17.000000
      Center of nuclear charge [Ang]:    [ -0.000000,   0.000000,  -0.000000]
    Dipole moment [D]:                     12.192002
      Cartesian components [D]:          [ -0.000000,  -0.000000,  12.192002]
    RMS size of the density [Ang]:         1.567114
      Cartesian components [Ang]:        [  0.657839,   0.523296,   1.322595]
  
  Exciton analysis of the difference density matrix
    <r_h> [Ang]:                  [ -0.000000,   0.000000,  -0.193233]
    <r_e> [Ang]:                  [  0.000000,   0.000000,  -0.176102]
    |<r_e - r_h>| [Ang]:            0.017131
    Hole size [Ang]:                1.887262
      Cartesian components [Ang]: [  0.757443,   0.765269,   1.549968]
    Electron size [Ang]:            1.909637
      Cartesian components [Ang]: [  0.896295,   0.784756,   1.492490]
--------------------------------------------------------------------------------

--------------------------------------------------------------------------------
                                 MP(3) Summary                                  
--------------------------------------------------------------------------------
  MP energy contribution:                                   -0.0294126399 a.u.
  Total energy:                                            -78.8373990716 a.u.
--------------------------------------------------------------------------------
  Starting Davidson for singlet states of irrep B2 ... 
--------------------------------------------------------------------------------
   It NVec Conv  Avg. Norm  Max. Norm  Conv. states           Remark
--------------------------------------------------------------------------------
       100    0  9.734e-02  3.822e-01  0.1590 n n n n n n n n Guess.
    1  110    0  4.171e-02  2.519e-01  0.0904 n n n n n n n n 
    2  120    0  2.825e-02  1.745e-01  0.0837 n n n n n n n n 
    3  130    0  2.187e-02  1.401e-01  0.0831 n n n n n n n n 
    4  140    0  8.938e-03  5.476e-02  0.0830 n n n n n n n n 
    5  150    0  6.995e-03  5.925e-02  0.0830 n n n n n n n n 
    6  160    0  4.385e-03  3.812e-02  0.0830 n n n n n n n n 
    7  170    0  2.679e-03  2.293e-02  0.0830 n n n n n n n n 
    8  180    2  1.724e-03  1.497e-02  0.0830 y y n n n n n n 
    9  190    4  9.449e-04  8.451e-03  0.0830 y y y y n n n n 
   10  200    5  4.281e-04  3.969e-03  0.0830 y y y y n n y n 
   11   20    5  1.574e-04  1.462e-03  0.0830 y y y y n n y n Subspace collapsed.
   12   30    6  1.051e-04  9.865e-04  0.0830 y y y y y n y n 
   13   40    7  8.033e-05  7.700e-04  0.0830 y y y y y y y n 
   14   50    7  6.063e-05  5.856e-04  0.0830 y y y y y y y n 
   15   60    7  4.835e-05  4.730e-04  0.0830 y y y y y y y n 
   16   70    7  3.328e-05  3.274e-04  0.0830 y y y y y y y n 
   17   80    7  2.137e-05  2.103e-04  0.0830 y y y y y y y n 
   18   90    8  1.551e-05  1.525e-04  0.0830 y y y y y y y y 
   19  100    8  1.399e-05  1.377e-04  0.0830 y y y y y y y y 
   20  110    8  1.076e-05  1.062e-04  0.0830 y y y y y y y y 
   21  120    9  6.589e-06  6.516e-05  0.0830 y y y y y y y y 
   22  130    9  3.364e-06  3.330e-05  0.0830 y y y y y y y y 
   23  140    9  1.588e-06  1.573e-05  0.0830 y y y y y y y y 
   24  148   10  7.004e-07  6.937e-06  0.0830 y y y y y y y y Converged.
--------------------------------------------------------------------------------
  Davidson Summary: 
 ------------------------------------------------------------
  State  0: excitation energy =   0.0830 a.u.   (converged)
  State  1: excitation energy =   0.0923 a.u.   (converged)
  State  2: excitation energy =   0.1573 a.u.   (converged)
  State  3: excitation energy =   0.2330 a.u.   (converged)
  State  4: excitation energy =   0.2476 a.u.   (converged)
  State  5: excitation energy =   0.2683 a.u.   (converged)
  State  6: excitation energy =   0.2810 a.u.   (converged)
  State  7: excitation energy =   0.3290 a.u.   (converged)
  State  8: excitation energy =   0.3436 a.u.   (converged)
  State  9: excitation energy =   0.3453 a.u.   (converged)
 ------------------------------------------------------------


--------------------------------------------------------------------------------
                   State-averaged natural transition orbitals
--------------------------------------------------------------------------------
--------------------------------------------------------------------------------

--------------------------------------------------------------------------------
                             Excited State Summary
--------------------------------------------------------------------------------
--------------------------------------------------------------------------------

  Excited state 1 (singlet, B2)                                    [converged]
  ----------------------------------------------------------------------------
  Term symbol:  1 (1) B2                                    R^2 =  9.09990e-15

  Total energy:                                            -78.7543567300 a.u.
  Excitation energy:                                               2.259697 eV

  Osc. strength:                                                      0.051114
  Trans. dip. moment [a.u.]:           [   0.000000,    0.960873,   -0.000000]
  <i|r^2|0> [a.u.]:                    [  -0.000000,    0.000000,   -0.000000]

  Dip. moment [a.u.]:                  [  -0.000000,    0.000000,   -0.186274]
  Total dipole [Debye]:                                               0.473461
  <r^2> [a.u.]:                        [  28.462144,   26.165322,   94.980639]
  Total <r^2> [a.u.]:                                               149.608104

  V1^2 = 0.8550, V2^2 = 0.1450

  Important amplitudes:
      occ i      occ j       vir a       vir b          v   
    ---------------------------------------------------------
     6 (A1) A               3 (B2) A                 -0.5121
     6 (A1) A               2 (B2) A                  0.3111
    ---------------------------------------------------------

  Density matrix analysis:
  ------------------------
  NOs
    Occupation of frontier NOs:
       0.9869   0.9883
    Number of electrons: 18.000000
    Number of unpaired electrons: n_u =  2.43505, n_u,nl =  2.04989
    NO participation ratio (PR_NO):  3.019132
  
  
  Mulliken Population Analysis
  Atom      Charge (e)              h+              e-           Del q
  --------------------------------------------------------------------
   1 C       -0.676707        1.140561       -0.563211        0.577350
   2 C       -0.640853       -0.100391       -0.571563       -0.671953
   3 H        0.071699        0.011966       -0.006030        0.005936
   4 H        0.083661       -0.003805       -0.087082       -0.090887
   5 H        0.071699        0.011966       -0.006030        0.005936
   6 H        0.083661       -0.003805       -0.087082       -0.090887
   7 H        0.006841        0.368248       -0.103741        0.264507
  --------------------------------------------------------------------
  Sum:       -1.000000        1.424739       -1.424739       -0.000000
  
  Multipole moment analysis of the density matrix
    Molecular charge:                      -1.000000
    Number of electrons:                   18.000000
      Center of electronic charge [Ang]: [  0.000000,  -0.000000,   0.005476]
    Total nuclear charge:                  17.000000
      Center of nuclear charge [Ang]:    [ -0.000000,   0.000000,  -0.000000]
    Dipole moment [D]:                     0.473461
      Cartesian components [D]:          [ -0.000000,   0.000000,  -0.473461]
    RMS size of the density [Ang]:         1.525596
      Cartesian components [Ang]:        [  0.665424,   0.638011,   1.215565]
  
  Exciton analysis of the difference density matrix
    <r_h> [Ang]:                  [ -0.000000,   0.000000,  -2.256539]
    <r_e> [Ang]:                  [  0.000000,  -0.000000,  -0.405759]
    |<r_e - r_h>| [Ang]:            1.850780
    Hole size [Ang]:                2.204093
      Cartesian components [Ang]: [  1.062164,   1.088017,   1.595635]
    Electron size [Ang]:            2.812876
      Cartesian components [Ang]: [  1.120271,   1.693180,   1.946896]

  Transition density matrix analysis:
  -----------------------------------
  
  CT numbers (Mulliken)
    omega =     0.8356
    <Phe> =    -0.0160
  
  Exciton analysis of the transition density matrix
    Trans. dipole moment [D]:             1.221148
      Cartesian components [D]:         [  0.000000,   1.221148,  -0.000000]
    <r_h> [Ang]:                        [ -0.000000,   0.000000,  -2.808461]
    <r_e> [Ang]:                        [ -0.000000,  -0.000000,   0.065904]
    |<r_e - r_h>| [Ang]:                  2.874365
    Hole size [Ang]:                      1.594070
      Cartesian components [Ang]:       [  0.890532,   0.894105,   0.973955]
    Electron size [Ang]:                  2.870462
      Cartesian components [Ang]:       [  1.071857,   1.845755,   1.919339]
    RMS electron-hole separation [Ang]:   4.362796
      Cartesian components [Ang]:       [  1.393402,   2.050659,   3.589877]
    Covariance(r_h, r_e) [Ang^2]:         0.004298
    Correlation coefficient:              0.000939
    Center-of-mass size [Ang]:            1.642346
      Cartesian components [Ang]:       [  0.696828,   1.025581,   1.076993]

  Decomposition into state-averaged NTOs
    H- 0 -> L+ 0: -0.5767 ( 66.5%)
    H- 0 -> L+ 4:  0.2511 ( 12.6%)
    H- 0 -> L+ 3:  0.1425 (  4.1%)
                   omega =  83.6%
  ----------------------------------------------------------------------------


  Excited state 2 (singlet, B2)                                    [converged]
  ----------------------------------------------------------------------------
  Term symbol:  2 (1) B2                                    R^2 =  4.20808e-15

  Total energy:                                            -78.7451148039 a.u.
  Excitation energy:                                               2.511183 eV

  Osc. strength:                                                      0.027289
  Trans. dip. moment [a.u.]:           [   0.000000,    0.666003,   -0.000000]
  <i|r^2|0> [a.u.]:                    [   0.000000,    0.000000,   -0.000000]

  Dip. moment [a.u.]:                  [  -0.000000,    0.000000,   -0.392891]
  Total dipole [Debye]:                                               0.998631
  <r^2> [a.u.]:                        [  32.869948,   41.056280,   90.898923]
  Total <r^2> [a.u.]:                                               164.825151

  V1^2 = 0.8656, V2^2 = 0.1344

  Important amplitudes:
      occ i      occ j       vir a       vir b          v   
    ---------------------------------------------------------
     6 (A1) A               2 (B2) A                 -0.5450
     6 (A1) A               3 (B2) A                 -0.3601
    ---------------------------------------------------------

  Density matrix analysis:
  ------------------------
  NOs
    Occupation of frontier NOs:
       0.9898   0.9929
    Number of electrons: 18.000000
    Number of unpaired electrons: n_u =  2.42871, n_u,nl =  2.05177
    NO participation ratio (PR_NO):  2.980583
  
  
  Mulliken Population Analysis
  Atom      Charge (e)              h+              e-           Del q
  --------------------------------------------------------------------
   1 C       -0.694152        1.229569       -0.669664        0.559905
   2 C       -0.669052       -0.189602       -0.510551       -0.700152
   3 H        0.084683        0.023532       -0.004612        0.018920
   4 H        0.096463       -0.010394       -0.067692       -0.078085
   5 H        0.084683        0.023532       -0.004612        0.018920
   6 H        0.096463       -0.010394       -0.067692       -0.078085
   7 H        0.000912        0.374650       -0.116073        0.258578
  --------------------------------------------------------------------
  Sum:       -1.000000        1.440894       -1.440894       -0.000000
  
  Multipole moment analysis of the density matrix
    Molecular charge:                      -1.000000
    Number of electrons:                   18.000000
      Center of electronic charge [Ang]: [  0.000000,  -0.000000,   0.011551]
    Total nuclear charge:                  17.000000
      Center of nuclear charge [Ang]:    [ -0.000000,   0.000000,  -0.000000]
    Dipole moment [D]:                     0.998630
      Cartesian components [D]:          [ -0.000000,   0.000000,  -0.998630]
    RMS size of the density [Ang]:         1.601273
      Cartesian components [Ang]:        [  0.715096,   0.799199,   1.189115]
  
  Exciton analysis of the difference density matrix
    <r_h> [Ang]:                  [ -0.000000,   0.000000,  -2.204681]
    <r_e> [Ang]:                  [ -0.000000,  -0.000000,  -0.298770]
    |<r_e - r_h>| [Ang]:            1.905910
    Hole size [Ang]:                2.272673
      Cartesian components [Ang]: [  1.067538,   1.070807,   1.696697]
    Electron size [Ang]:            3.322898
      Cartesian components [Ang]: [  1.456591,   2.388471,   1.793097]

  Transition density matrix analysis:
  -----------------------------------
  
  CT numbers (Mulliken)
    omega =     0.8528
    <Phe> =    -0.0054
  
  Exciton analysis of the transition density matrix
    Trans. dipole moment [D]:             0.846405
      Cartesian components [D]:         [  0.000000,   0.846405,  -0.000000]
    <r_h> [Ang]:                        [ -0.000000,   0.000000,  -2.834584]
    <r_e> [Ang]:                        [  0.000000,  -0.000000,   0.200654]
    |<r_e - r_h>| [Ang]:                  3.035238
    Hole size [Ang]:                      1.577944
      Cartesian components [Ang]:       [  0.894752,   0.899048,   0.938637]
    Electron size [Ang]:                  3.635843
      Cartesian components [Ang]:       [  1.616122,   2.799290,   1.664777]
    RMS electron-hole separation [Ang]:   4.990577
      Cartesian components [Ang]:       [  1.847262,   2.940057,   3.584626]
    Covariance(r_h, r_e) [Ang^2]:         0.008036
    Correlation coefficient:              0.001401
    Center-of-mass size [Ang]:            1.982759
      Cartesian components [Ang]:       [  0.923646,   1.470092,   0.957623]

  Decomposition into state-averaged NTOs
    H- 0 -> L+ 3:  0.6314 ( 79.7%)
    H- 0 -> L+ 4: -0.1309 (  3.4%)
    H- 0 -> L+ 0:  0.0989 (  2.0%)
                   omega =  85.3%
  ----------------------------------------------------------------------------


  Excited state 3 (singlet, B2)                                    [converged]
  ----------------------------------------------------------------------------
  Term symbol:  3 (1) B2                                    R^2 =  9.52202e-14

  Total energy:                                            -78.6801116778 a.u.
  Excitation energy:                                               4.280008 eV

  Osc. strength:                                                      0.103092
  Trans. dip. moment [a.u.]:           [  -0.000000,   -0.991542,   -0.000000]
  <i|r^2|0> [a.u.]:                    [  -0.000000,    0.000000,   -0.000000]

  Dip. moment [a.u.]:                  [  -0.000000,   -0.000000,   -0.275466]
  Total dipole [Debye]:                                               0.700165
  <r^2> [a.u.]:                        [  30.231813,   31.307162,   99.510323]
  Total <r^2> [a.u.]:                                               161.049298

  V1^2 = 0.8345, V2^2 = 0.1655

  Important amplitudes:
      occ i      occ j       vir a       vir b          v   
    ---------------------------------------------------------
     6 (A1) A               4 (B2) A                 -0.5775
     6 (A1) A               3 (B2) A                  0.1964
    ---------------------------------------------------------

  Density matrix analysis:
  ------------------------
  NOs
    Occupation of frontier NOs:
       0.9665   0.9848
    Number of electrons: 18.000000
    Number of unpaired electrons: n_u =  2.48621, n_u,nl =  2.07293
    NO participation ratio (PR_NO):  3.212780
  
  
  Mulliken Population Analysis
  Atom      Charge (e)              h+              e-           Del q
  --------------------------------------------------------------------
   1 C       -0.653991        1.154457       -0.554391        0.600066
   2 C       -0.647737       -0.091394       -0.587444       -0.678838
   3 H        0.062680        0.008177       -0.011261       -0.003083
   4 H        0.074966       -0.006060       -0.093522       -0.099582
   5 H        0.062680        0.008177       -0.011261       -0.003083
   6 H        0.074966       -0.006060       -0.093522       -0.099582
   7 H        0.026437        0.381277       -0.097175        0.284103
  --------------------------------------------------------------------
  Sum:       -1.000000        1.448576       -1.448576       -0.000000
  
  Multipole moment analysis of the density matrix
    Molecular charge:                      -1.000000
    Number of electrons:                   18.000000
      Center of electronic charge [Ang]: [  0.000000,   0.000000,   0.008098]
    Total nuclear charge:                  17.000000
      Center of nuclear charge [Ang]:    [ -0.000000,   0.000000,  -0.000000]
    Dipole moment [D]:                     0.700164
      Cartesian components [D]:          [ -0.000000,  -0.000000,  -0.700164]
    RMS size of the density [Ang]:         1.582846
      Cartesian components [Ang]:        [  0.685799,   0.697890,   1.244199]
  
  Exciton analysis of the difference density matrix
    <r_h> [Ang]:                  [ -0.000000,  -0.000000,  -2.238723]
    <r_e> [Ang]:                  [  0.000000,   0.000000,  -0.385816]
    |<r_e - r_h>| [Ang]:            1.852907
    Hole size [Ang]:                2.170161
      Cartesian components [Ang]: [  1.039901,   1.066774,   1.578036]
    Electron size [Ang]:            3.153109
      Cartesian components [Ang]: [  1.244275,   1.946117,   2.146277]

  Transition density matrix analysis:
  -----------------------------------
  
  CT numbers (Mulliken)
    omega =     0.8165
    <Phe> =    -0.0070
  
  Exciton analysis of the transition density matrix
    Trans. dipole moment [D]:             1.260124
      Cartesian components [D]:         [ -0.000000,  -1.260124,  -0.000000]
    <r_h> [Ang]:                        [ -0.000000,   0.000000,  -2.814140]
    <r_e> [Ang]:                        [ -0.000000,   0.000000,   0.156270]
    |<r_e - r_h>| [Ang]:                  2.970410
    Hole size [Ang]:                      1.591612
      Cartesian components [Ang]:       [  0.890996,   0.895026,   0.968650]
    Electron size [Ang]:                  3.396572
      Cartesian components [Ang]:       [  1.275452,   2.201357,   2.250323]
    RMS electron-hole separation [Ang]:   4.783448
      Cartesian components [Ang]:       [  1.555770,   2.375613,   3.849340]
    Covariance(r_h, r_e) [Ang^2]:         0.005945
    Correlation coefficient:              0.001100
    Center-of-mass size [Ang]:            1.876288
      Cartesian components [Ang]:       [  0.777959,   1.188545,   1.225804]

  Decomposition into state-averaged NTOs
    H- 0 -> L+ 4: -0.5793 ( 67.1%)
    H- 0 -> L+ 0: -0.2535 ( 12.9%)
    H- 0 -> L+ 3: -0.0818 (  1.3%)
                   omega =  81.7%
  ----------------------------------------------------------------------------


  Excited state 4 (singlet, B2)                                    [converged]
  ----------------------------------------------------------------------------
  Term symbol:  4 (1) B2                                    R^2 =  2.47835e-13

  Total energy:                                            -78.6043751996 a.u.
  Excitation energy:                                               6.340902 eV

  Osc. strength:                                                      0.064681
  Trans. dip. moment [a.u.]:           [  -0.000000,   -0.645260,    0.000000]
  <i|r^2|0> [a.u.]:                    [   0.000000,    0.000000,    0.000000]

  Dip. moment [a.u.]:                  [  -0.000000,   -0.000000,    0.296948]
  Total dipole [Debye]:                                               0.754767
  <r^2> [a.u.]:                        [  32.867191,   21.707083,  139.289435]
  Total <r^2> [a.u.]:                                               193.863709

  V1^2 = 0.9348, V2^2 = 0.0652

  Important amplitudes:
      occ i      occ j       vir a       vir b          v   
    ---------------------------------------------------------
     1 (B2) A               7 (A1) A                  0.6321
     1 (B2) A               8 (A1) A                  0.2316
    ---------------------------------------------------------

  Density matrix analysis:
  ------------------------
  NOs
    Occupation of frontier NOs:
       0.9843   0.9927
    Number of electrons: 18.000000
    Number of unpaired electrons: n_u =  2.37102, n_u,nl =  2.03266
    NO participation ratio (PR_NO):  2.864055
  
  
  Mulliken Population Analysis
  Atom      Charge (e)              h+              e-           Del q
  --------------------------------------------------------------------
   1 C       -0.278265        0.719370        0.256422        0.975792
   2 C       -1.262961        0.370518       -1.664579       -1.294061
   3 H        0.176094        0.125111       -0.014780        0.110331
   4 H        0.245475        0.061509        0.009418        0.070927
   5 H        0.176094        0.125111       -0.014780        0.110331
   6 H        0.245475        0.061509        0.009418        0.070927
   7 H       -0.301911        0.014448       -0.058694       -0.044246
  --------------------------------------------------------------------
  Sum:       -1.000000        1.477576       -1.477576        0.000000
  
  Multipole moment analysis of the density matrix
    Molecular charge:                      -1.000000
    Number of electrons:                   18.000000
      Center of electronic charge [Ang]: [  0.000000,   0.000000,  -0.008730]
    Total nuclear charge:                  17.000000
      Center of nuclear charge [Ang]:    [ -0.000000,   0.000000,  -0.000000]
    Dipole moment [D]:                     0.754767
      Cartesian components [D]:          [ -0.000000,  -0.000000,   0.754767]
    RMS size of the density [Ang]:         1.736631
      Cartesian components [Ang]:        [  0.715066,   0.581120,   1.472029]
  
  Exciton analysis of the difference density matrix
    <r_h> [Ang]:                  [  0.000000,   0.000000,   0.163307]
    <r_e> [Ang]:                  [  0.000000,   0.000000,   1.774844]
    |<r_e - r_h>| [Ang]:            1.611537
    Hole size [Ang]:                1.901197
      Cartesian components [Ang]: [  0.855491,   0.935647,   1.416774]
    Electron size [Ang]:            2.659382
      Cartesian components [Ang]: [  1.299609,   1.285849,   1.931301]

  Transition density matrix analysis:
  -----------------------------------
  
  CT numbers (Mulliken)
    omega =     0.9044
    <Phe> =    -0.0074
  
  Exciton analysis of the transition density matrix
    Trans. dipole moment [D]:             0.820043
      Cartesian components [D]:         [ -0.000000,  -0.820043,   0.000000]
    <r_h> [Ang]:                        [  0.000000,  -0.000000,   0.281807]
    <r_e> [Ang]:                        [  0.000000,   0.000000,   2.711752]
    |<r_e - r_h>| [Ang]:                  2.429945
    Hole size [Ang]:                      1.279624
      Cartesian components [Ang]:       [  0.522619,   0.886082,   0.761029]
    Electron size [Ang]:                  2.501809
      Cartesian components [Ang]:       [  1.491257,   1.497662,   1.338733]
    RMS electron-hole separation [Ang]:   3.710367
      Cartesian components [Ang]:       [  1.579580,   1.732417,   2.875844]
    Covariance(r_h, r_e) [Ang^2]:         0.017146
    Correlation coefficient:              0.005356
    Center-of-mass size [Ang]:            1.408082
      Cartesian components [Ang]:       [  0.790393,   0.873928,   0.770859]

  Decomposition into state-averaged NTOs
    H- 1 -> L+ 1:  0.6649 ( 88.4%)
    H- 1 -> L+ 2:  0.0985 (  1.9%)
                   omega =  90.4%
  ----------------------------------------------------------------------------


  Excited state 5 (singlet, B2)                                    [converged]
  ----------------------------------------------------------------------------
  Term symbol:  5 (1) B2                                    R^2 =  9.88987e-12

  Total energy:                                            -78.5897707151 a.u.
  Excitation energy:                                               6.738310 eV

  Osc. strength:                                                      0.000070
  Trans. dip. moment [a.u.]:           [   0.000000,   -0.020658,    0.000000]
  <i|r^2|0> [a.u.]:                    [   0.000000,    0.000000,   -0.000000]

  Dip. moment [a.u.]:                  [  -0.000000,    0.000000,    1.490349]
  Total dipole [Debye]:                                               3.788089
  <r^2> [a.u.]:                        [  32.140962,   35.335743,  100.708544]
  Total <r^2> [a.u.]:                                               168.185249

  V1^2 = 0.0172, V2^2 = 0.9828

  Important amplitudes:
      occ i      occ j       vir a       vir b          v   
    ---------------------------------------------------------
     6 (A1) A   1 (B2) B    4 (B2) A    3 (B2) B      0.2094
     6 (A1) A   1 (B2) B    3 (B2) A    3 (B2) B      0.1875
    ---------------------------------------------------------

  Density matrix analysis:
  ------------------------
  NOs
    Occupation of frontier NOs:
       0.9674   0.9711
    Number of electrons: 18.000000
    Number of unpaired electrons: n_u =  3.08121, n_u,nl =  2.78814
    NO participation ratio (PR_NO):  4.361001
  
  
  Mulliken Population Analysis
  Atom      Charge (e)              h+              e-           Del q
  --------------------------------------------------------------------
   1 C       -0.566963        1.003540       -0.316446        0.687094
   2 C       -1.259517        0.359812       -1.650430       -1.290617
   3 H        0.064695        0.006983       -0.008052       -0.001068
   4 H        0.165542       -0.001827       -0.007179       -0.009006
   5 H        0.064695        0.006983       -0.008052       -0.001068
   6 H        0.165542       -0.001827       -0.007179       -0.009006
   7 H        0.366006        0.628410       -0.004738        0.623672
  --------------------------------------------------------------------
  Sum:       -1.000000        2.002075       -2.002075       -0.000000
  
  Multipole moment analysis of the density matrix
    Molecular charge:                      -1.000000
    Number of electrons:                   18.000000
      Center of electronic charge [Ang]: [  0.000000,  -0.000000,  -0.043814]
    Total nuclear charge:                  17.000000
      Center of nuclear charge [Ang]:    [ -0.000000,   0.000000,  -0.000000]
    Dipole moment [D]:                     3.788088
      Cartesian components [D]:          [ -0.000000,   0.000000,   3.788088]
    RMS size of the density [Ang]:         1.616961
      Cartesian components [Ang]:        [  0.707122,   0.741433,   1.250927]
  
  Exciton analysis of the difference density matrix
    <r_h> [Ang]:                  [ -0.000000,  -0.000000,  -1.292094]
    <r_e> [Ang]:                  [ -0.000000,  -0.000000,  -0.418177]
    |<r_e - r_h>| [Ang]:            0.873917
    Hole size [Ang]:                2.101962
      Cartesian components [Ang]: [  0.718160,   0.883875,   1.766708]
    Electron size [Ang]:            2.679236
      Cartesian components [Ang]: [  1.058561,   1.805997,   1.672163]

  Transition density matrix analysis:
  -----------------------------------
  
  CT numbers (Mulliken)
    omega =     0.0177
    <Phe> =     0.0095
  
  Exciton analysis of the transition density matrix
    Trans. dipole moment [D]:             0.026254
      Cartesian components [D]:         [  0.000000,  -0.026254,   0.000000]
    <r_h> [Ang]:                        [ -0.000000,   0.000000,  -1.884222]
    <r_e> [Ang]:                        [ -0.000000,   0.000000,   0.040629]
    |<r_e - r_h>| [Ang]:                  1.924851
    Hole size [Ang]:                      2.039194
      Cartesian components [Ang]:       [  0.794030,   0.855213,   1.672255]
    Electron size [Ang]:                  2.613780
      Cartesian components [Ang]:       [  1.006842,   1.557584,   1.841751]
    RMS electron-hole separation [Ang]:   4.016624
      Cartesian components [Ang]:       [  1.281986,   1.762711,   3.373816]
    Covariance(r_h, r_e) [Ang^2]:        -0.719032
    Correlation coefficient:             -0.134903
    Center-of-mass size [Ang]:            1.545323
      Cartesian components [Ang]:       [  0.641277,   0.895512,   1.083903]

  Decomposition into state-averaged NTOs
                   omega =   1.8%
  ----------------------------------------------------------------------------


  Excited state 6 (singlet, B2)                                    [converged]
  ----------------------------------------------------------------------------
  Term symbol:  6 (1) B2                                    R^2 =  1.14183e-10

  Total energy:                                            -78.5691319371 a.u.
  Excitation energy:                                               7.299920 eV

  Osc. strength:                                                      0.000573
  Trans. dip. moment [a.u.]:           [  -0.000000,   -0.056622,   -0.000000]
  <i|r^2|0> [a.u.]:                    [  -0.000000,   -0.000000,   -0.000000]

  Dip. moment [a.u.]:                  [  -0.000000,    0.000000,   -2.478052]
  Total dipole [Debye]:                                               6.298581
  <r^2> [a.u.]:                        [  34.196939,   41.410280,   97.389243]
  Total <r^2> [a.u.]:                                               172.996461

  V1^2 = 0.0230, V2^2 = 0.9770

  Important amplitudes:
      occ i      occ j       vir a       vir b          v   
    ---------------------------------------------------------
     6 (A1) A   1 (B2) B    4 (B2) A    2 (B2) B     -0.2218
     6 (A1) A   1 (B2) B    3 (B2) A    2 (B2) B     -0.1247
    ---------------------------------------------------------

  Density matrix analysis:
  ------------------------
  NOs
    Occupation of frontier NOs:
       0.9607   0.9718
    Number of electrons: 18.000000
    Number of unpaired electrons: n_u =  3.67327, n_u,nl =  3.62686
    NO participation ratio (PR_NO):  4.842557
  
  
  Mulliken Population Analysis
  Atom      Charge (e)              h+              e-           Del q
  --------------------------------------------------------------------
   1 C       -1.693026        1.034804       -1.473773       -0.438969
   2 C       -0.119106        0.328967       -0.479174       -0.150206
   3 H        0.062803        0.004793       -0.007753       -0.002960
   4 H        0.160857       -0.000701       -0.012990       -0.013691
   5 H        0.062803        0.004793       -0.007753       -0.002960
   6 H        0.160857       -0.000701       -0.012990       -0.013691
   7 H        0.364811        0.623384       -0.000908        0.622476
  --------------------------------------------------------------------
  Sum:       -1.000000        1.995340       -1.995340       -0.000000
  
  Multipole moment analysis of the density matrix
    Molecular charge:                      -1.000000
    Number of electrons:                   18.000000
      Center of electronic charge [Ang]: [  0.000000,  -0.000000,   0.072852]
    Total nuclear charge:                  17.000000
      Center of nuclear charge [Ang]:    [ -0.000000,   0.000000,  -0.000000]
    Dipole moment [D]:                     6.298579
      Cartesian components [D]:          [ -0.000000,   0.000000,  -6.298579]
    RMS size of the density [Ang]:         1.638909
      Cartesian components [Ang]:        [  0.729388,   0.802637,   1.228735]
  
  Exciton analysis of the difference density matrix
    <r_h> [Ang]:                  [ -0.000000,  -0.000000,  -1.278681]
    <r_e> [Ang]:                  [  0.000000,  -0.000000,   0.650632]
    |<r_e - r_h>| [Ang]:            1.929313
    Hole size [Ang]:                2.113123
      Cartesian components [Ang]: [  0.720571,   0.893467,   1.774200]
    Electron size [Ang]:            2.760779
      Cartesian components [Ang]: [  1.189370,   2.034589,   1.437966]

  Transition density matrix analysis:
  -----------------------------------
  
  CT numbers (Mulliken)
    omega =     0.0229
    <Phe> =    -0.0046
  
  Exciton analysis of the transition density matrix
    Trans. dipole moment [D]:             0.071959
      Cartesian components [D]:         [ -0.000000,  -0.071959,  -0.000000]
    <r_h> [Ang]:                        [ -0.000000,   0.000000,  -2.385382]
    <r_e> [Ang]:                        [ -0.000000,   0.000000,   0.067213]
    |<r_e - r_h>| [Ang]:                  2.452595
    Hole size [Ang]:                      1.871582
      Cartesian components [Ang]:       [  0.873573,   0.875845,   1.404488]
    Electron size [Ang]:                  3.156502
      Cartesian components [Ang]:       [  1.203975,   2.016145,   2.109291]
    RMS electron-hole separation [Ang]:   4.375594
      Cartesian components [Ang]:       [  1.487342,   2.198643,   3.478448]
    Covariance(r_h, r_e) [Ang^2]:         0.167861
    Correlation coefficient:              0.028414
    Center-of-mass size [Ang]:            1.857555
      Cartesian components [Ang]:       [  0.743839,   1.098847,   1.299904]

  Decomposition into state-averaged NTOs
                   omega =   2.3%
  ----------------------------------------------------------------------------


  Excited state 7 (singlet, B2)                                    [converged]
  ----------------------------------------------------------------------------
  Term symbol:  7 (1) B2                                    R^2 =  6.17289e-12

  Total energy:                                            -78.5564192477 a.u.
  Excitation energy:                                               7.645850 eV

  Osc. strength:                                                      0.148980
  Trans. dip. moment [a.u.]:           [   0.000000,    0.891810,   -0.000000]
  <i|r^2|0> [a.u.]:                    [   0.000000,    0.000000,    0.000000]

  Dip. moment [a.u.]:                  [   0.000000,    0.000000,    3.481547]
  Total dipole [Debye]:                                               8.849213
  <r^2> [a.u.]:                        [  34.769880,   23.275740,  123.305911]
  Total <r^2> [a.u.]:                                               181.351531

  V1^2 = 0.9279, V2^2 = 0.0721

  Important amplitudes:
      occ i      occ j       vir a       vir b          v   
    ---------------------------------------------------------
     1 (B2) A               8 (A1) A                 -0.6081
     1 (B2) A               7 (A1) A                  0.2282
    ---------------------------------------------------------

  Density matrix analysis:
  ------------------------
  NOs
    Occupation of frontier NOs:
       0.9771   0.9811
    Number of electrons: 18.000000
    Number of unpaired electrons: n_u =  2.39149, n_u,nl =  2.03709
    NO participation ratio (PR_NO):  2.967542
  
  
  Mulliken Population Analysis
  Atom      Charge (e)              h+              e-           Del q
  --------------------------------------------------------------------
   1 C       -5.657590        0.425097       -4.828630       -4.403533
   2 C        4.167536        0.650881        3.485554        4.136435
   3 H        0.155409        0.091880       -0.002234        0.089646
   4 H        0.236909        0.070935       -0.008573        0.062361
   5 H        0.155409        0.091880       -0.002234        0.089646
   6 H        0.236909        0.070935       -0.008573        0.062361
   7 H       -0.294583        0.013805       -0.050722       -0.036917
  --------------------------------------------------------------------
  Sum:       -1.000000        1.415412       -1.415412        0.000000
  
  Multipole moment analysis of the density matrix
    Molecular charge:                      -1.000000
    Number of electrons:                   18.000000
      Center of electronic charge [Ang]: [ -0.000000,  -0.000000,  -0.102353]
    Total nuclear charge:                  17.000000
      Center of nuclear charge [Ang]:    [ -0.000000,   0.000000,  -0.000000]
    Dipole moment [D]:                     8.849210
      Cartesian components [D]:          [  0.000000,   0.000000,   8.849210]
    RMS size of the density [Ang]:         1.676554
      Cartesian components [Ang]:        [  0.735473,   0.601751,   1.381235]
  
  Exciton analysis of the difference density matrix
    <r_h> [Ang]:                  [  0.000000,   0.000000,   0.062143]
    <r_e> [Ang]:                  [ -0.000000,  -0.000000,   0.553837]
    |<r_e - r_h>| [Ang]:            0.491695
    Hole size [Ang]:                1.834999
      Cartesian components [Ang]: [  0.834087,   0.938453,   1.338217]
    Electron size [Ang]:            2.731138
      Cartesian components [Ang]: [  1.439197,   1.415338,   1.839741]

  Transition density matrix analysis:
  -----------------------------------
  
  CT numbers (Mulliken)
    omega =     0.8978
    <Phe> =    -0.0147
  
  Exciton analysis of the transition density matrix
    Trans. dipole moment [D]:             1.133377
      Cartesian components [D]:         [  0.000000,   1.133377,  -0.000000]
    <r_h> [Ang]:                        [  0.000000,  -0.000000,   0.266481]
    <r_e> [Ang]:                        [ -0.000000,  -0.000000,   0.848854]
    |<r_e - r_h>| [Ang]:                  0.582373
    Hole size [Ang]:                      1.281756
      Cartesian components [Ang]:       [  0.522663,   0.885886,   0.764806]
    Electron size [Ang]:                  2.995457
      Cartesian components [Ang]:       [  1.636633,   1.621100,   1.914740]
    RMS electron-hole separation [Ang]:   3.297514
      Cartesian components [Ang]:       [  1.717117,   1.838059,   2.132287]
    Covariance(r_h, r_e) [Ang^2]:         0.040611
    Correlation coefficient:              0.010577
    Center-of-mass size [Ang]:            1.635305
      Cartesian components [Ang]:       [  0.859506,   0.928313,   1.036198]

  Decomposition into state-averaged NTOs
    H- 1 -> L+ 2: -0.6622 ( 87.7%)
    H- 1 -> L+ 1:  0.0983 (  1.9%)
                   omega =  89.8%
  ----------------------------------------------------------------------------


  Excited state 8 (singlet, B2)                                    [converged]
  ----------------------------------------------------------------------------
  Term symbol:  8 (1) B2                                    R^2 =  4.26933e-08

  Total energy:                                            -78.5083833638 a.u.
  Excitation energy:                                               8.952973 eV

  Osc. strength:                                                      0.000031
  Trans. dip. moment [a.u.]:           [  -0.000000,   -0.011904,   -0.000000]
  <i|r^2|0> [a.u.]:                    [  -0.000000,    0.000000,   -0.000000]

  Dip. moment [a.u.]:                  [   0.000000,   -0.000000,    0.668440]
  Total dipole [Debye]:                                               1.699004
  <r^2> [a.u.]:                        [  41.954944,   33.074318,  110.746512]
  Total <r^2> [a.u.]:                                               185.775774

  V1^2 = 0.0953, V2^2 = 0.9047

  Important amplitudes:
      occ i      occ j       vir a       vir b          v   
    ---------------------------------------------------------
     6 (A1) A               5 (B2) A                 -0.2111
     6 (A1) A   1 (B2) B    8 (A1) A    8 (A1) B     -0.1656
    ---------------------------------------------------------

  Density matrix analysis:
  ------------------------
  NOs
    Occupation of frontier NOs:
       0.9636   1.0480
    Number of electrons: 18.000000
    Number of unpaired electrons: n_u =  3.79989, n_u,nl =  3.44528
    NO participation ratio (PR_NO):  5.434331
  
  
  Mulliken Population Analysis
  Atom      Charge (e)              h+              e-           Del q
  --------------------------------------------------------------------
   1 C       -3.098240        1.088867       -2.933050       -1.844183
   2 C        1.278844        0.207463        1.040280        1.247743
   3 H        0.109904        0.004903        0.039238        0.044141
   4 H        0.187837       -0.005112        0.018402        0.013289
   5 H        0.109904        0.004903        0.039238        0.044141
   6 H        0.187837       -0.005112        0.018402        0.013289
   7 H        0.223914        0.621186       -0.139606        0.481579
  --------------------------------------------------------------------
  Sum:       -1.000000        1.917097       -1.917097        0.000000
  
  Multipole moment analysis of the density matrix
    Molecular charge:                      -1.000000
    Number of electrons:                   18.000000
      Center of electronic charge [Ang]: [ -0.000000,   0.000000,  -0.019651]
    Total nuclear charge:                  17.000000
      Center of nuclear charge [Ang]:    [ -0.000000,   0.000000,  -0.000000]
    Dipole moment [D]:                     1.699004
      Cartesian components [D]:          [  0.000000,  -0.000000,   1.699004]
    RMS size of the density [Ang]:         1.699928
      Cartesian components [Ang]:        [  0.807898,   0.717316,   1.312445]
  
  Exciton analysis of the difference density matrix
    <r_h> [Ang]:                  [ -0.000000,   0.000000,  -1.368524]
    <r_e> [Ang]:                  [ -0.000000,   0.000000,  -0.228997]
    |<r_e - r_h>| [Ang]:            1.139526
    Hole size [Ang]:                2.107693
      Cartesian components [Ang]: [  0.727670,   0.872906,   1.775078]
    Electron size [Ang]:            3.186493
      Cartesian components [Ang]: [  1.610785,   1.738383,   2.130054]

  Transition density matrix analysis:
  -----------------------------------
  
  CT numbers (Mulliken)
    omega =     0.0938
    <Phe> =    -0.0004
  
  Exciton analysis of the transition density matrix
    Trans. dipole moment [D]:             0.015128
      Cartesian components [D]:         [ -0.000000,  -0.015128,  -0.000000]
    <r_h> [Ang]:                        [ -0.000000,   0.000000,  -2.794815]
    <r_e> [Ang]:                        [ -0.000000,   0.000000,   0.211726]
    |<r_e - r_h>| [Ang]:                  3.006541
    Hole size [Ang]:                      1.605101
      Cartesian components [Ang]:       [  0.887568,   0.894004,   0.994649]
    Electron size [Ang]:                  2.979566
      Cartesian components [Ang]:       [  1.335813,   2.297343,   1.347453]
    RMS electron-hole separation [Ang]:   4.519284
      Cartesian components [Ang]:       [  1.603764,   2.462210,   3.433568]
    Covariance(r_h, r_e) [Ang^2]:         0.034758
    Correlation coefficient:              0.007268
    Center-of-mass size [Ang]:            1.697327
      Cartesian components [Ang]:       [  0.801917,   1.234056,   0.845549]

  Decomposition into state-averaged NTOs
    H- 0 -> L+ 5: -0.2144 (  9.2%)
                   omega =   9.4%
  ----------------------------------------------------------------------------


  Excited state 9 (singlet, B2)                                    [converged]
  ----------------------------------------------------------------------------
  Term symbol:  9 (1) B2                                    R^2 =  9.65100e-07

  Total energy:                                            -78.4938309356 a.u.
  Excitation energy:                                               9.348964 eV

  Osc. strength:                                                      0.000369
  Trans. dip. moment [a.u.]:           [   0.000000,    0.040158,    0.000000]
  <i|r^2|0> [a.u.]:                    [   0.000000,   -0.000000,    0.000000]

  Dip. moment [a.u.]:                  [   0.000000,    0.000000,    3.955679]
  Total dipole [Debye]:                                              10.054335
  <r^2> [a.u.]:                        [  28.537641,   21.826919,  112.923625]
  Total <r^2> [a.u.]:                                               163.288185

  V1^2 = 0.8626, V2^2 = 0.1374

  Important amplitudes:
      occ i      occ j       vir a       vir b          v   
    ---------------------------------------------------------
     5 (A1) A               4 (B2) A                  0.4697
     5 (A1) A               3 (B2) A                  0.3189
    ---------------------------------------------------------

  Density matrix analysis:
  ------------------------
  NOs
    Occupation of frontier NOs:
       0.9441   1.1130
    Number of electrons: 18.000000
    Number of unpaired electrons: n_u =  2.61427, n_u,nl =  2.17599
    NO participation ratio (PR_NO):  3.933929
  
  
  Mulliken Population Analysis
  Atom      Charge (e)              h+              e-           Del q
  --------------------------------------------------------------------
   1 C       -1.437606        0.443815       -0.627364       -0.183549
   2 C       -0.046696        0.417690       -0.495486       -0.077796
   3 H        0.117543        0.062454       -0.010674        0.051780
   4 H        0.218089        0.056841       -0.013300        0.043541
   5 H        0.117543        0.062454       -0.010674        0.051780
   6 H        0.218089        0.056841       -0.013300        0.043541
   7 H       -0.186963        0.094344       -0.023641        0.070702
  --------------------------------------------------------------------
  Sum:       -1.000000        1.194439       -1.194439        0.000000
  
  Multipole moment analysis of the density matrix
    Molecular charge:                      -1.000000
    Number of electrons:                   18.000000
      Center of electronic charge [Ang]: [ -0.000000,  -0.000000,  -0.116292]
    Total nuclear charge:                  17.000000
      Center of nuclear charge [Ang]:    [ -0.000000,   0.000000,  -0.000000]
    Dipole moment [D]:                     10.054332
      Cartesian components [D]:          [  0.000000,   0.000000,  10.054332]
    RMS size of the density [Ang]:         1.589583
      Cartesian components [Ang]:        [  0.666306,   0.582722,   1.320320]
  
  Exciton analysis of the difference density matrix
    <r_h> [Ang]:                  [  0.000000,   0.000000,  -0.284738]
    <r_e> [Ang]:                  [ -0.000000,  -0.000000,   0.087864]
    |<r_e - r_h>| [Ang]:            0.372602
    Hole size [Ang]:                1.763270
      Cartesian components [Ang]: [  0.710261,   0.595568,   1.499982]
    Electron size [Ang]:            2.038492
      Cartesian components [Ang]: [  0.820631,   1.159820,   1.461790]

  Transition density matrix analysis:
  -----------------------------------
  
  CT numbers (Mulliken)
    omega =     0.8346
    <Phe> =    -0.0157
  
  Exciton analysis of the transition density matrix
    Trans. dipole moment [D]:             0.051035
      Cartesian components [D]:         [  0.000000,   0.051035,   0.000000]
    <r_h> [Ang]:                        [  0.000000,   0.000000,  -0.016613]
    <r_e> [Ang]:                        [  0.000000,  -0.000000,   0.241837]
    |<r_e - r_h>| [Ang]:                  0.258450
    Hole size [Ang]:                      1.384763
      Cartesian components [Ang]:       [  0.607425,   0.441887,   1.163331]
    Electron size [Ang]:                  1.860253
      Cartesian components [Ang]:       [  0.716525,   1.159826,   1.265676]
    RMS electron-hole separation [Ang]:   2.338483
      Cartesian components [Ang]:       [  0.939746,   1.239085,   1.746439]
    Covariance(r_h, r_e) [Ang^2]:        -0.011798
    Correlation coefficient:             -0.004580
    Center-of-mass size [Ang]:            1.156991
      Cartesian components [Ang]:       [  0.469474,   0.621609,   0.855468]

  Decomposition into state-averaged NTOs
    H- 2 -> L+ 0:  0.6287 ( 79.1%)
    H- 0 -> L+ 5:  0.0922 (  1.7%)
    H- 1 -> L+ 6:  0.0921 (  1.7%)
                   omega =  83.5%
  ----------------------------------------------------------------------------


  Excited state 10 (singlet, B2)                                    [converged]
  ----------------------------------------------------------------------------
  Term symbol:  10 (1) B2                                   R^2 =  6.93729e-06

  Total energy:                                            -78.4921359069 a.u.
  Excitation energy:                                               9.395089 eV

  Osc. strength:                                                      0.001224
  Trans. dip. moment [a.u.]:           [  -0.000000,   -0.072908,   -0.000000]
  <i|r^2|0> [a.u.]:                    [  -0.000000,    0.000000,   -0.000000]

  Dip. moment [a.u.]:                  [  -0.000000,   -0.000000,   -0.047185]
  Total dipole [Debye]:                                               0.119934
  <r^2> [a.u.]:                        [  32.477128,   30.462023,   99.567116]
  Total <r^2> [a.u.]:                                               162.506266

  V1^2 = 0.6336, V2^2 = 0.3664

  Important amplitudes:
      occ i      occ j       vir a       vir b          v   
    ---------------------------------------------------------
     6 (A1) A               5 (B2) A                 -0.5279
     6 (A1) A               6 (B2) A                 -0.1183
    ---------------------------------------------------------

  Density matrix analysis:
  ------------------------
  NOs
    Occupation of frontier NOs:
       0.6726   1.0126
    Number of electrons: 18.000000
    Number of unpaired electrons: n_u =  3.04893, n_u,nl =  2.55115
    NO participation ratio (PR_NO):  5.552381
  
  
  Mulliken Population Analysis
  Atom      Charge (e)              h+              e-           Del q
  --------------------------------------------------------------------
   1 C       -0.925185        1.043531       -0.714659        0.328872
   2 C       -0.454262        0.002111       -0.487473       -0.485362
   3 H        0.060575        0.003449       -0.008637       -0.005188
   4 H        0.097991       -0.010305       -0.066252       -0.076557
   5 H        0.060575        0.003449       -0.008637       -0.005188
   6 H        0.097991       -0.010305       -0.066252       -0.076557
   7 H        0.062314        0.442504       -0.122524        0.319980
  --------------------------------------------------------------------
  Sum:       -1.000000        1.474435       -1.474435       -0.000000
  
  Multipole moment analysis of the density matrix
    Molecular charge:                      -1.000000
    Number of electrons:                   18.000000
      Center of electronic charge [Ang]: [  0.000000,   0.000000,   0.001387]
    Total nuclear charge:                  17.000000
      Center of nuclear charge [Ang]:    [ -0.000000,   0.000000,  -0.000000]
    Dipole moment [D]:                     0.119933
      Cartesian components [D]:          [ -0.000000,  -0.000000,  -0.119933]
    RMS size of the density [Ang]:         1.590010
      Cartesian components [Ang]:        [  0.710810,   0.688405,   1.244579]
  
  Exciton analysis of the difference density matrix
    <r_h> [Ang]:                  [ -0.000000,   0.000000,  -1.910351]
    <r_e> [Ang]:                  [ -0.000000,   0.000000,  -0.171871]
    |<r_e - r_h>| [Ang]:            1.738480
    Hole size [Ang]:                2.164978
      Cartesian components [Ang]: [  0.912497,   0.956563,   1.714487]
    Electron size [Ang]:            2.991109
      Cartesian components [Ang]: [  1.310620,   1.832322,   1.967639]

  Transition density matrix analysis:
  -----------------------------------
  
  CT numbers (Mulliken)
    omega =     0.6232
    <Phe> =    -0.0029
  
  Exciton analysis of the transition density matrix
    Trans. dipole moment [D]:             0.092657
      Cartesian components [D]:         [ -0.000000,  -0.092657,  -0.000000]
    <r_h> [Ang]:                        [ -0.000000,   0.000000,  -2.614844]
    <r_e> [Ang]:                        [  0.000000,   0.000000,   0.090745]
    |<r_e - r_h>| [Ang]:                  2.705589
    Hole size [Ang]:                      1.736074
      Cartesian components [Ang]:       [  0.872311,   0.870594,   1.222740]
    Electron size [Ang]:                  2.838781
      Cartesian components [Ang]:       [  1.263867,   2.180873,   1.305799]
    RMS electron-hole separation [Ang]:   4.272008
      Cartesian components [Ang]:       [  1.535680,   2.347377,   3.222043]
    Covariance(r_h, r_e) [Ang^2]:         0.071394
    Correlation coefficient:              0.014486
    Center-of-mass size [Ang]:            1.674471
      Cartesian components [Ang]:       [  0.767831,   1.174532,   0.913654]

  Decomposition into state-averaged NTOs
    H- 0 -> L+ 5: -0.5390 ( 58.1%)
    H- 2 -> L+ 0:  0.1336 (  3.6%)
                   omega =  62.3%
  ----------------------------------------------------------------------------


--------------------------------------------------------------------------------
  Time of ADC calculation:  CPU 608.92 s  wall 149.78 s
================================================================================
 
 --------------------------------------------------------------
             Orbital Energies (a.u.) and Symmetries
 --------------------------------------------------------------
 
 Alpha MOs, Restricted
 -- Occupied --                  
-11.074 -11.069  -0.881  -0.618  -0.500  -0.404  -0.351  -0.217
  1 A1    2 A1    3 A1    4 A1    1 B1    5 A1    2 B1    1 B2                 
 -0.032
  6 A1                                                                         
 -- Virtual --                   
  0.175   0.198   0.205   0.248   0.254   0.260   0.332   0.339
  7 A1    3 B1    2 B2    3 B2    4 B1    8 A1    9 A1    4 B2                 
  0.357   0.406   0.462   0.471   0.500   0.506   0.508   0.533
 10 A1   11 A1    5 B1   12 A1    6 B1    5 B2   13 A1    7 B1                 
  0.599   0.607   0.696   0.774   0.994   1.006   1.092   1.119
 14 A1    6 B2    8 B1   15 A1   16 A1    9 B1   17 A1   18 A1                 
  1.147   1.182   1.224   1.235   1.275   1.293   1.340   1.347
 19 A1   10 B1   11 B1   20 A1    1 A2    7 B2   21 A1    8 B2                 
  1.448   1.454   1.500   1.624   1.768   1.823   1.866   1.889
  2 A2    9 B2   22 A1   12 B1   23 A1   13 B1   14 B1   10 B2                 
  1.999   2.035   2.063   2.110   2.179   2.242   2.265   2.307
 15 B1   11 B2   24 A1   12 B2    3 A2   25 A1   16 B1   26 A1                 
  2.348   2.532   2.574   2.639   2.734   2.747   3.012   3.015
 13 B2   27 A1    4 A2   28 A1   17 B1   29 A1   18 B1   30 A1                 
  3.452   3.511
 31 A1   19 B1                                                                 
 
 Beta MOs, Restricted
 -- Occupied --                  
-11.074 -11.069  -0.881  -0.618  -0.500  -0.404  -0.351  -0.217
  1 A1    2 A1    3 A1    4 A1    1 B1    5 A1    2 B1    1 B2                 
 -0.032
  6 A1                                                                         
 -- Virtual --                   
  0.175   0.198   0.205   0.248   0.254   0.260   0.332   0.339
  7 A1    3 B1    2 B2    3 B2    4 B1    8 A1    9 A1    4 B2                 
  0.357   0.406   0.462   0.471   0.500   0.506   0.508   0.533
 10 A1   11 A1    5 B1   12 A1    6 B1    5 B2   13 A1    7 B1                 
  0.599   0.607   0.696   0.774   0.994   1.006   1.092   1.119
 14 A1    6 B2    8 B1   15 A1   16 A1    9 B1   17 A1   18 A1                 
  1.147   1.182   1.224   1.235   1.275   1.293   1.340   1.347
 19 A1   10 B1   11 B1   20 A1    1 A2    7 B2   21 A1    8 B2                 
  1.448   1.454   1.500   1.624   1.768   1.823   1.866   1.889
  2 A2    9 B2   22 A1   12 B1   23 A1   13 B1   14 B1   10 B2                 
  1.999   2.035   2.063   2.110   2.179   2.242   2.265   2.307
 15 B1   11 B2   24 A1   12 B2    3 A2   25 A1   16 B1   26 A1                 
  2.348   2.532   2.574   2.639   2.734   2.747   3.012   3.015
 13 B2   27 A1    4 A2   28 A1   17 B1   29 A1   18 B1   30 A1                 
  3.452   3.511
 31 A1   19 B1                                                                 
 --------------------------------------------------------------
 
          Ground-State Mulliken Net Atomic Charges

     Atom                 Charge (a.u.)
  ----------------------------------------
      1 C                    -1.255614
      2 C                     0.089453
      3 H                     0.058455
      4 H                     0.171755
      5 H                     0.058455
      6 H                     0.171755
      7 H                    -0.294259
  ----------------------------------------
  Sum of atomic charges =    -1.000000

 -----------------------------------------------------------------
                    Cartesian Multipole Moments
 -----------------------------------------------------------------
    Charge (ESU x 10^10)
                -4.8032
    Dipole Moment (Debye)
         X       0.0000      Y      -0.0000      Z      12.2169
       Tot      12.2169
    Quadrupole Moments (Debye-Ang)
        XX     -19.2881     XY       0.0000     YY     -23.6316
        XZ      -0.0000     YZ       0.0000     ZZ     -60.8916
    Octopole Moments (Debye-Ang^2)
       XXX       0.0000    XXY      -0.0000    XYY      -0.0000
       YYY      -0.0000    XXZ      16.1258    XYZ      -0.0000
       YYZ      15.9167    XZZ       0.0000    YZZ      -0.0000
       ZZZ     154.9885
    Hexadecapole Moments (Debye-Ang^3)
      XXXX     -55.7166   XXXY       0.0000   XXYY     -18.8787
      XYYY       0.0000   YYYY     -52.1649   XXXZ      -0.0000
      XXYZ       0.0000   XYYZ       0.0000   YYYZ       0.0000
      XXZZ     -80.1501   XYZZ       0.0000   YYZZ     -83.5560
      XZZZ      -0.0000   YZZZ       0.0000   ZZZZ    -712.9072
 -----------------------------------------------------------------
 Total job time:  232.78s(wall), 655.76s(cpu) 
 Sun Mar 27 13:18:14 2022

        *************************************************************
        *                                                           *
        *  Thank you very much for using Q-Chem.  Have a nice day.  *
        *                                                           *
        *************************************************************


