/src/tsommerfeld/qchem/exe/qcprog.exe .input1.166667.30269.qcin.1 /src/jdavis/qchem.scratch/qchem30269/

                  Welcome to Q-Chem
     A Quantum Leap Into The Future Of Chemistry


 Q-Chem 5.4 (devel), Q-Chem, Inc., Pleasanton, CA (2021)

 E. Epifanovsky,  A. T. B. Gilbert,  Xintian Feng,  Joonho Lee,  Yuezhi Mao,  
 N. Mardirossian,  P. Pokhilko,  A. White,  M. Wormit,  M. P. Coons,  
 A. L. Dempwolff,  Zhengting Gan,  D. Hait,  P. R. Horn,  L. D. Jacobson,  
 I. Kaliman,  J. Kussmann,  A. W. Lange,  Ka Un Lao,  D. S. Levine,  Jie Liu,  
 S. C. McKenzie,  A. F. Morrison,  K. Nanda,  F. Plasser,  D. R. Rehn,  
 M. L. Vidal,  Zhi-Qiang You,  Ying Zhu,  B. Alam,  B. Albrecht,  
 A. Aldossary,  E. Alguire,  J. H. Andersen,  D. Barton,  K. Begam,  A. Behn,  
 Y. A. Bernard,  E. J. Berquist,  H. Burton,  A. Carreras,  K. Carter-Fenk,  
 R. Chakraborty,  A. D. Chien,  K. D. Closser,  V. Cofer-Shabica,  
 S. Dasgupta,  Jia Deng,  M. de Wergifosse,  M. Diedenhofen,  Hainam Do,  
 S. Ehlert,  Po-Tung Fang,  S. Fatehi,  Qingguo Feng,  T. Friedhoff,  
 J. Gayvert,  Qinghui Ge,  G. Gidofalvi,  M. Goldey,  J. Gomes,  
 C. Gonzalez-Espinoza,  S. Gulania,  A. Gunina,  M. W. D. Hanson-Heine,  
 P. H. P. Harbach,  A. W. Hauser,  M. F. Herbst,  M. Hernandez Vera,  
 M. Hodecker,  Z. C. Holden,  S. Houck,  Xunkun Huang,  Kerwin Hui,  
 B. C. Huynh,  M. Ivanov,  Hyunjun Ji,  Hanjie Jiang,  B. Kaduk,  S. Kaehler,  
 K. Khistyaev,  Jaehoon Kim,  P. Klunzinger,  Z. Koczor-Benda,  
 Joong Hoon Koh,  D. Kosenkov,  L. Koulias,  T. Kowalczyk,  C. M. Krauter,  
 K. Kue,  A. Kunitsa,  T. Kus,  A. Landau,  K. V. Lawler,  D. Lefrancois,  
 S. Lehtola,  Rain Li,  Yi-Pei Li,  Jiashu Liang,  M. Liebenthal,  
 Hung-Hsuan Lin,  You-Sheng Lin,  Fenglai Liu,  Kuan-Yu Liu,  
 M. Loipersberger,  A. Luenser,  A. Manjanath,  P. Manohar,  E. Mansoor,  
 S. F. Manzer,  Shan-Ping Mao,  A. V. Marenich,  T. Markovich,  S. Mason,  
 S. A. Maurer,  P. F. McLaughlin,  M. F. S. J. Menger,  J.-M. Mewes,  
 S. A. Mewes,  P. Morgante,  J. W. Mullinax,  K. J. Oosterbaan,  G. Paran,  
 Alexander C. Paul,  Suranjan K. Paul,  F. Pavosevic,  Zheng Pei,  S. Prager,  
 E. I. Proynov,  E. Ramos,  B. Rana,  A. E. Rask,  A. Rettig,  R. M. Richard,  
 F. Rob,  E. Rossomme,  T. Scheele,  M. Scheurer,  M. Schneider,  
 N. Sergueev,  S. M. Sharada,  W. Skomorowski,  D. W. Small,  C. J. Stein,  
 Yu-Chuan Su,  E. J. Sundstrom,  Zhen Tao,  J. Thirman,  T. Tsuchimochi,  
 N. M. Tubman,  S. P. Veccham,  O. Vydrov,  J. Wenzel,  J. Witte,  A. Yamada,  
 Kun Yao,  S. Yeganeh,  S. R. Yost,  A. Zech,  Igor Ying Zhang,  Xing Zhang,  
 Yu Zhang,  D. Zuev,  A. Aspuru-Guzik,  A. T. Bell,  N. A. Besley,  
 K. B. Bravaya,  B. R. Brooks,  D. Casanova,  Jeng-Da Chai,  S. Coriani,  
 C. J. Cramer,  A. E. DePrince, III,  R. A. DiStasio Jr.,  A. Dreuw,  
 B. D. Dunietz,  T. R. Furlani,  W. A. Goddard III,  S. Grimme,  
 S. Hammes-Schiffer,  T. Head-Gordon,  W. J. Hehre,  Chao-Ping Hsu,  
 T.-C. Jagau,  Yousung Jung,  A. Klamt,  Jing Kong,  D. S. Lambrecht,  
 WanZhen Liang,  N. J. Mayhall,  C. W. McCurdy,  J. B. Neaton,  
 C. Ochsenfeld,  J. A. Parkhill,  R. Peverati,  V. A. Rassolov,  Yihan Shao,  
 L. V. Slipchenko,  T. Stauch,  R. P. Steele,  J. E. Subotnik,  
 A. J. W. Thom,  A. Tkatchenko,  D. G. Truhlar,  T. Van Voorhis,  
 T. A. Wesolowski,  K. B. Whaley,  H. L. Woodcock III,  P. M. Zimmerman,  
 S. Faraji,  P. M. W. Gill,  M. Head-Gordon,  J. M. Herbert,  A. I. Krylov

 Additional authors for Version 5.4.1: 
 S. Kotaru,  Shaozhi Li,  Xiangyuan Li,  F. Matz,  A. Molle,  Haisheng Ren,  
 Yingli Su,  Hung-Yi Tsai,  C. Utku,  Fang Wang

 Contributors to earlier versions of Q-Chem not listed above: 
 R. D. Adamson,  B. Austin,  R. Baer,  J. Baker,  G. J. O. Beran,  
 K. Brandhorst,  S. T. Brown,  E. F. C. Byrd,  A. K. Chakraborty,  
 G. K. L. Chan,  Chun-Min Chang,  Yunqing Chen,  C.-L. Cheng,  
 Siu Hung Chien,  D. M. Chipman,  D. L. Crittenden,  H. Dachsel,  
 R. J. Doerksen,  A. D. Dutoi,  R. G. Edgar,  J. Fosso-Tande,  
 L. Fusti-Molnar,  D. Ghosh,  A. Ghysels,  A. Golubeva-Zadorozhnaya,  
 J. Gonthier,  M. S. Gordon,  S. R. Gwaltney,  G. Hawkins,  J. E. Herr,  
 A. Heyden,  S. Hirata,  E. G. Hohenstein,  G. Kedziora,  F. J. Keil,  
 C. Kelley,  Jihan Kim,  R. A. King,  R. Z. Khaliullin,  P. P. Korambath,  
 W. Kurlancheek,  A. Laurent,  A. M. Lee,  M. S. Lee,  S. V. Levchenko,  
 Ching Yeh Lin,  D. Liotard,  E. Livshits,  R. C. Lochan,  I. Lotan,  
 L. A. Martinez-Martinez,  P. E. Maslen,  N. Nair,  D. P. O'Neill,  
 D. Neuhauser,  E. Neuscamman,  C. M. Oana,  R. Olivares-Amaya,  R. Olson,  
 T. M. Perrine,  B. Peters,  P. A. Pieniazek,  A. Prociuk,  Y. M. Rhee,  
 J. Ritchie,  M. A. Rohrdanz,  E. Rosta,  N. J. Russ,  H. F. Schaefer III,  
 M. W. Schmidt,  N. E. Schultz,  S. Sharma,  N. Shenvi,  C. D. Sherrill,  
 A. C. Simmonett,  A. Sodt,  T. Stein,  D. Stuck,  K. S. Thanthiriwatte,  
 V. Vanovschi,  L. Vogt,  Tao Wang,  A. Warshel,  M. A. Watson,  
 C. F. Williams,  Q. Wu,  X. Xu,  Jun Yang,  W. Zhang,  Yan Zhao

 Please cite Q-Chem as follows:
 Y. Shao et al., Mol. Phys. 113, 184-215 (2015)
 DOI: 10.1080/00268976.2014.952696

 Q-Chem 5.4.1 for Intel X86 EM64T Linux

 Parts of Q-Chem use Armadillo 9.900.5 (Nocturnal Misbehaviour).
 http://arma.sourceforge.net/

 Q-Chem begins on Sun Mar 27 12:43:12 2022  

 Host: node01
0

     Scratch files written to /src/jdavis/qchem.scratch/qchem30269//
 Processing $rem in /src/tsommerfeld/qchem/config/preferences:
 Processing $rem in /home/jdavis/.qchemrc:

 Checking the input file for inconsistencies... 	...done.

--------------------------------------------------------------
User input:
--------------------------------------------------------------
$molecule
-1 1
C         0.0000000000    0.0000000000    0.8417902907
C         0.0000000000    0.0000000000   -0.4872097093
H         0.9623488518    0.0000000000    1.3363703127
H         0.9623489048    0.0000000000   -0.9817896873
H        -0.9623488518    0.0000000000    1.3363703127
H        -0.9623489048    0.0000000000   -0.9817896873
H         0.0000000000    0.0000000000   -2.8366446508
$end

$rem
   METHOD adc(3)
   BASIS gen
   PURECART 11
   EE_STATES [0,0,0,10]
   scf_convergence 8
   ADC_DAVIDSON_MAXITER 120
   ADC_DAVIDSON_MAXSUBSPACE 200
   adc_nguess_singles 100
   THRESH 14
   S2THRESH 14
   adc_davidson_conv 5
   adc_davidson_thresh 14
   THREADS 10
   MEM_TOTAL 95000
   STATE_ANALYSIS TRUE
$end
$basis
C 1
S   9   1.00
      6.665000D+03           6.920000D-04
      1.000000D+03           5.329000D-03
      2.280000D+02           2.707700D-02
      6.471000D+01           1.017180D-01
      2.106000D+01           2.747400D-01
      7.495000D+00           4.485640D-01
      2.797000D+00           2.850740D-01
      5.215000D-01           1.520400D-02
      1.596000D-01          -3.191000D-03
S   9   1.00
      6.665000D+03          -1.460000D-04
      1.000000D+03          -1.154000D-03
      2.280000D+02          -5.725000D-03
      6.471000D+01          -2.331200D-02
      2.106000D+01          -6.395500D-02
      7.495000D+00          -1.499810D-01
      2.797000D+00          -1.272620D-01
      5.215000D-01           5.445290D-01
      1.596000D-01           5.804960D-01
S   1   1.00
      1.596000D-01           1.000000D+00
S   1   1.00
      0.0469000              1.0000000
P   4   1.00
      9.439000D+00           3.810900D-02
      2.002000D+00           2.094800D-01
      5.456000D-01           5.085570D-01
      1.517000D-01           4.688420D-01
P   1   1.00
      1.517000D-01           1.000000D+00
P   1   1.00
      0.0707933      1.0000000
P   1   1.00
      0.0353967      1.0000000
D   1   1.00
      5.500000D-01           1.0000000
****
C 2
S   9   1.00
      6.665000D+03           6.920000D-04
      1.000000D+03           5.329000D-03
      2.280000D+02           2.707700D-02
      6.471000D+01           1.017180D-01
      2.106000D+01           2.747400D-01
      7.495000D+00           4.485640D-01
      2.797000D+00           2.850740D-01
      5.215000D-01           1.520400D-02
      1.596000D-01          -3.191000D-03
S   9   1.00
      6.665000D+03          -1.460000D-04
      1.000000D+03          -1.154000D-03
      2.280000D+02          -5.725000D-03
      6.471000D+01          -2.331200D-02
      2.106000D+01          -6.395500D-02
      7.495000D+00          -1.499810D-01
      2.797000D+00          -1.272620D-01
      5.215000D-01           5.445290D-01
      1.596000D-01           5.804960D-01
S   1   1.00
      1.596000D-01           1.000000D+00
S   1   1.00
      0.0469000              1.0000000
P   4   1.00
      9.439000D+00           3.810900D-02
      2.002000D+00           2.094800D-01
      5.456000D-01           5.085570D-01
      1.517000D-01           4.688420D-01
P   1   1.00
      1.517000D-01           1.000000D+00
P   1   1.00
      0.0707933      1.0000000
P   1   1.00
      0.0353967      1.0000000
D   1   1.00
      5.500000D-01           1.0000000
****
H 3
cc-pVDZ
****
H 4
cc-pVDZ
****
H 5
cc-pVDZ
****
H 6
cc-pVDZ
****
H 7
aug-cc-pVDZ
****
$end
--------------------------------------------------------------
 ----------------------------------------------------------------
             Standard Nuclear Orientation (Angstroms)
    I     Atom           X                Y                Z
 ----------------------------------------------------------------
    1      C       0.0000000000     0.0000000000     0.8417902855
    2      C       0.0000000000     0.0000000000    -0.4872097145
    3      H       0.9623488518     0.0000000000     1.3363703075
    4      H       0.9623489048     0.0000000000    -0.9817896925
    5      H      -0.9623488518     0.0000000000     1.3363703075
    6      H      -0.9623489048     0.0000000000    -0.9817896925
    7      H       0.0000000000     0.0000000000    -2.8366446560
 ----------------------------------------------------------------
 Molecular Point Group                 C2v   NOp =  4
 Largest Abelian Subgroup              C2v   NOp =  4
 Nuclear Repulsion Energy =          36.55739271 hartrees
 There are        9 alpha and        9 beta electrons
 Requested basis set is non-standard
 There are 33 shells and 67 basis functions
 Total memory of 95000 MB is distributed as follows: 
   MEM_STATIC is set to 192 MB
   QALLOC/CCMAN JOB total memory use is  94808 MB
 Warning: actual memory use might exceed 95000 MB

 Total QAlloc Memory Limit  95000 MB
 Mega-Array Size       188 MB
 MEM_STATIC part       192 MB

                       Distance Matrix (Angstroms)
             C (  1)   C (  2)   H (  3)   H (  4)   H (  5)   H (  6)
   C (  2)  1.329000
   H (  3)  1.082000  2.061931
   H (  4)  2.061931  1.082000  2.318160
   H (  5)  1.082000  2.061931  1.924698  3.013026
   H (  6)  2.061931  1.082000  3.013026  1.924698  2.318160
   H (  7)  3.678435  2.349435  4.282542  2.089642  4.282542  2.089642

 
 A cutoff of  1.0D-14 yielded    561 shell pairs
 There are      2337 function pairs (      2484 Cartesian)
 Smallest overlap matrix eigenvalue = 1.87E-04

 Scale SEOQF with 1.000000e-01/1.000000e-01/1.000000e-01

 Standard Electronic Orientation quadrupole field applied
 Nucleus-field energy     =    -0.0000000019 hartrees
 ================ Generating on-the-fly SAD Guess ================
Attempting to make child job directory: /src/jdavis/qchem.scratch/qchem30269//Frg1/
Attempting to make child job directory: /src/jdavis/qchem.scratch/qchem30269//Frg2/
Creating input file /src/jdavis/qchem.scratch/qchem30269/Frg1.input
using default PutDataFrgm: nothing
calling putenv with: QCSCRATCH=/src/jdavis/qchem.scratch/qchem30269/ 
Spawning Job For Fragment 0
Done Job For Fragment 0
calling putenv with: QCSCRATCH=/src/jdavis/qchem.scratch 
calling putenv with: QCTHREADS=1 
Creating input file /src/jdavis/qchem.scratch/qchem30269/Frg2.input
using default PutDataFrgm: nothing
calling putenv with: QCSCRATCH=/src/jdavis/qchem.scratch/qchem30269/ 
Spawning Job For Fragment 1
Done Job For Fragment 1
calling putenv with: QCSCRATCH=/src/jdavis/qchem.scratch 
calling putenv with: QCTHREADS=1 
 Time for running child jobs:  CPU 1.77 s  wall 54.66 s
 ============= Method Specific SAD Guess Constructed =============
 Guess from on-the-fly superposition of atomic densities
 Warning: Energy on first SCF cycle will be non-variational
 A restricted Hartree-Fock SCF calculation will be
 performed using Pulay DIIS extrapolation
 SCF converges when DIIS error is below 1.0E-08
 using 10 threads for integral computing
 -------------------------------------------------------
 OpenMP Integral computing Module                
 Release: version 1.0, May 2013, Q-Chem Inc. Pittsburgh 
 -------------------------------------------------------
 ---------------------------------------
  Cycle       Energy         DIIS Error
 ---------------------------------------
    1     -78.8390938883      7.39E-02
    2     -78.4382672235      7.16E-03
    3     -78.4959853588      2.35E-03
    4     -78.5001512263      8.98E-04
    5     -78.5009137400      2.37E-04
    6     -78.5009951099      7.41E-05
    7     -78.5010061818      3.58E-05
    8     -78.5010086285      7.48E-06
    9     -78.5010087701      1.46E-06
   10     -78.5010087758      2.37E-07
   11     -78.5010087759      4.48E-08
   12     -78.5010087759      1.05E-08
   13     -78.5010087759      1.95E-09 Convergence criterion met
 ---------------------------------------
 SCF time:  CPU 12.74 s  wall 1.28 s
 SCF   energy in the final basis set = -78.50100878
 Total energy in the final basis set = -78.50100878
================================================================================
|                                                                              |
|                                 A D C  M A N                                 |
|                                                                              |
 ------------------------------------------------------------------------------ 
|                                                                              |
| Components:                                                                  |
|                                                                              |
| - libvmm - 1.3-trunk                                                         |
|   Authors:                                                                   |
|   Evgeny Epifanovsky, Ilya Kaliman                                           |
|                                                                              |
| - libtensor - 2.5-trunk                                                      |
|   Authors:                                                                   |
|   Evgeny Epifanovsky, Michael Wormit, Dmitry Zuev, Sam Manzer,               |
|   Ilya Kaliman                                                               |
|                                                                              |
| - libwfa - 1.1-trunk                                                         |
|   Authors:                                                                   |
|   Felix Plasser, Stefanie Mewes (Baeppler), Benjamin Thomitzni,              |
|   Michael Wormit, Feng Chen, Anna I. Krylov, Pavel Pokhilko                  |
|                                                                              |
| - libadc - 1.1-trunk                                                         |
|   Authors:                                                                   |
|   Michael Wormit, Adrian L. Dempwolff, Philipp H. P. Harbach,                |
|   Caroline Krauter, Dirk Rehn, Matthias Schneider, Jan Wenzel                |
|                                                                              |
| - adcman - 2.6-trunk                                                         |
|   Authors:                                                                   |
|   Michael Wormit, Adrian L. Dempwolff, Philipp H. P. Harbach,                |
|   Caroline Krauter, Daniel Lefrancois, Jan-Michael Mewes, Dirk Rehn,         |
|   Matthias Schneider, Jan Wenzel, Andreas Dreuw                              |
|                                                                              |
| Authors of earlier versions of ADCMAN:                                       |
| Andreas Dreuw, Jan Hendrik Starcke, Dirk Rehn, Michael Wormit                |
|                                                                              |
================================================================================

 
 Alpha MOs, Restricted
 -- Occupied --                  
-11.075 -11.071  -0.883  -0.620  -0.502  -0.406  -0.353  -0.219
  1 A1    2 A1    3 A1    4 A1    1 B1    5 A1    2 B1    1 B2                 
 -0.035
  6 A1                                                                         
 -- Virtual --                   
  0.160   0.177   0.185   0.228   0.229   0.251   0.307   0.320
  7 A1    3 B1    2 B2    4 B1    3 B2    8 A1    9 A1    4 B2                 
  0.332   0.403   0.416   0.436   0.452   0.456   0.492   0.507
 10 A1   11 A1    5 B1   12 A1    5 B2    6 B1    7 B1   13 A1                 
  0.549   0.575   0.702   0.763   0.978   1.011   1.065   1.086
  6 B2   14 A1    8 B1   15 A1   16 A1    9 B1   17 A1   18 A1                 
  1.117   1.135   1.195   1.208   1.211   1.263   1.273   1.319
 19 A1   10 B1   11 B1   20 A1    7 B2    8 B2    1 A2   21 A1                 
  1.446   1.448   1.474   1.568   1.763   1.780   1.849   1.883
  2 A2    9 B2   22 A1   12 B1   23 A1   13 B1   14 B1   10 B2                 
  1.980   2.027   2.056   2.106   2.177   2.219   2.252   2.298
 15 B1   11 B2   24 A1   12 B2    3 A2   25 A1   16 B1   26 A1                 
  2.343   2.523   2.572   2.627   2.743   2.746   2.983   2.990
 13 B2   27 A1    4 A2   28 A1   29 A1   17 B1   18 B1   30 A1                 
  3.436   3.504
 31 A1   19 B1                                                                 
 
 Beta MOs, Restricted
 -- Occupied --                  
-11.075 -11.071  -0.883  -0.620  -0.502  -0.406  -0.353  -0.219
  1 A1    2 A1    3 A1    4 A1    1 B1    5 A1    2 B1    1 B2                 
 -0.035
  6 A1                                                                         
 -- Virtual --                   
  0.160   0.177   0.185   0.228   0.229   0.251   0.307   0.320
  7 A1    3 B1    2 B2    4 B1    3 B2    8 A1    9 A1    4 B2                 
  0.332   0.403   0.416   0.436   0.452   0.456   0.492   0.507
 10 A1   11 A1    5 B1   12 A1    5 B2    6 B1    7 B1   13 A1                 
  0.549   0.575   0.702   0.763   0.978   1.011   1.065   1.086
  6 B2   14 A1    8 B1   15 A1   16 A1    9 B1   17 A1   18 A1                 
  1.117   1.135   1.195   1.208   1.211   1.263   1.273   1.319
 19 A1   10 B1   11 B1   20 A1    7 B2    8 B2    1 A2   21 A1                 
  1.446   1.448   1.474   1.568   1.763   1.780   1.849   1.883
  2 A2    9 B2   22 A1   12 B1   23 A1   13 B1   14 B1   10 B2                 
  1.980   2.027   2.056   2.106   2.177   2.219   2.252   2.298
 15 B1   11 B2   24 A1   12 B2    3 A2   25 A1   16 B1   26 A1                 
  2.343   2.523   2.572   2.627   2.743   2.746   2.983   2.990
 13 B2   27 A1    4 A2   28 A1   29 A1   17 B1   18 B1   30 A1                 
  3.436   3.504
 31 A1   19 B1                                                                 

--------------------------------------------------------------------------------
                                   HF Summary                                   
--------------------------------------------------------------------------------
  Energy:                                                  -78.5010087759 a.u.
  Dip. moment [a.u.]:                  [  -0.000000,    0.000000,    4.887363]
  Total dipole [Debye]:                                              12.422441
  <r^2> [a.u.]:                        [  27.910311,   17.925357,  115.040203]
  Total <r^2> [a.u.]:                                               160.875872
--------------------------------------------------------------------------------

--------------------------------------------------------------------------------
                                 MP(2) Summary                                  
--------------------------------------------------------------------------------
  MP energy contribution:                                   -0.3077212439 a.u.
  Total energy:                                            -78.8087300199 a.u.
  Dip. moment [a.u.]:                  [  -0.000000,   -0.000000,    4.882246]
  Total dipole [Debye]:                                              12.409434
  <r^2> [a.u.]:                        [  28.240129,   18.039782,  114.998687]
  Total <r^2> [a.u.]:                                               161.278599

  Density matrix analysis:
  ------------------------
  NOs
    Occupation of frontier NOs:
       0.0436   1.9373
    Number of electrons: 18.000000
    Number of unpaired electrons: n_u =  0.47497, n_u,nl =  0.05216
    NO participation ratio (PR_NO): 16.620673
  
  
  Mulliken Population Analysis
  Atom      Charge (e)              h+              e-           Del q
  --------------------------------------------------------------------
   1 C       -0.902820        0.118446       -0.110166        0.008280
   2 C       -0.246718        0.062471       -0.130700       -0.068228
   3 H        0.052305        0.019443       -0.012297        0.007146
   4 H        0.163852        0.016197       -0.013292        0.002904
   5 H        0.052305        0.019443       -0.012297        0.007146
   6 H        0.163852        0.016197       -0.013292        0.002904
   7 H       -0.282777        0.053756       -0.013909        0.039847
  --------------------------------------------------------------------
  Sum:       -1.000000        0.305954       -0.305954        0.000000
  
  Multipole moment analysis of the density matrix
    Molecular charge:                      -1.000000
    Number of electrons:                   18.000000
      Center of electronic charge [Ang]: [  0.000000,   0.000000,  -0.143532]
    Total nuclear charge:                  17.000000
      Center of nuclear charge [Ang]:    [ -0.000000,   0.000000,  -0.000000]
    Dipole moment [D]:                     12.409431
      Cartesian components [D]:          [ -0.000000,  -0.000000,  12.409431]
    RMS size of the density [Ang]:         1.577477
      Cartesian components [Ang]:        [  0.662824,   0.529762,   1.329831]
  
  Exciton analysis of the difference density matrix
    <r_h> [Ang]:                  [ -0.000000,  -0.000000,  -0.215802]
    <r_e> [Ang]:                  [  0.000000,   0.000000,  -0.206952]
    |<r_e - r_h>| [Ang]:            0.008851
    Hole size [Ang]:                1.914576
      Cartesian components [Ang]: [  0.763980,   0.770750,   1.577302]
    Electron size [Ang]:            2.009464
      Cartesian components [Ang]: [  0.941029,   0.835933,   1.566405]
--------------------------------------------------------------------------------

--------------------------------------------------------------------------------
                                 MP(3) Summary                                  
--------------------------------------------------------------------------------
  MP energy contribution:                                   -0.0295072330 a.u.
  Total energy:                                            -78.8382372528 a.u.
--------------------------------------------------------------------------------
  Starting Davidson for singlet states of irrep B2 ... 
--------------------------------------------------------------------------------
   It NVec Conv  Avg. Norm  Max. Norm  Conv. states           Remark
--------------------------------------------------------------------------------
       100    0  9.565e-02  3.785e-01  0.1469 n n n n n n n n Guess.
    1  110    0  3.820e-02  2.037e-01  0.0850 n n n n n n n n 
    2  120    0  2.143e-02  1.231e-01  0.0797 n n n n n n n n 
    3  130    0  2.867e-02  2.079e-01  0.0794 n n n n n n n n 
    4  140    0  1.302e-02  7.645e-02  0.0794 n n n n n n n n 
    5  150    0  5.930e-03  4.774e-02  0.0794 n n n n n n n n 
    6  160    0  3.934e-03  3.674e-02  0.0794 n n n n n n n n 
    7  170    0  7.630e-03  7.586e-02  0.0794 n n n n n n n n 
    8  180    2  4.216e-03  4.146e-02  0.0794 y y n n n n n n 
    9  190    4  2.011e-03  1.869e-02  0.0794 y y y y n n n n 
   10  200    4  1.001e-03  8.575e-03  0.0794 y y y y n n n n 
   11   20    4  4.293e-04  3.646e-03  0.0794 y y y y n n n n Subspace collapsed.
   12   30    5  3.410e-04  2.610e-03  0.0794 y y y y n n y n 
   13   40    7  2.232e-04  1.797e-03  0.0794 y y y y y y y n 
   14   50    7  1.784e-04  1.591e-03  0.0794 y y y y y y y n 
   15   60    8  1.342e-04  1.206e-03  0.0794 y y y y y y y y 
   16   70    8  1.037e-04  9.814e-04  0.0794 y y y y y y y y 
   17   80    8  7.607e-05  7.386e-04  0.0794 y y y y y y y y 
   18   90    8  5.324e-05  5.258e-04  0.0794 y y y y y y y y 
   19  100    8  4.067e-05  4.043e-04  0.0794 y y y y y y y y 
   20  110    8  4.523e-05  4.516e-04  0.0794 y y y y y y y y 
   21  120    8  5.513e-05  5.511e-04  0.0794 y y y y y y y y 
   22  130    9  5.448e-05  5.448e-04  0.0794 y y y y y y y y 
   23  139    9  3.746e-05  3.746e-04  0.0794 y y y y y y y y 
   24  147    9  2.111e-05  2.111e-04  0.0794 y y y y y y y y 
   25  155    9  9.663e-06  9.663e-05  0.0794 y y y y y y y y 
   26  162    9  3.822e-06  3.822e-05  0.0794 y y y y y y y y 
   27  169    9  1.351e-06  1.351e-05  0.0794 y y y y y y y y 
   28  175   10  4.440e-07  4.440e-06  0.0794 y y y y y y y y Converged.
--------------------------------------------------------------------------------
  Davidson Summary: 
 ------------------------------------------------------------
  State  0: excitation energy =   0.0794 a.u.   (converged)
  State  1: excitation energy =   0.0802 a.u.   (converged)
  State  2: excitation energy =   0.1405 a.u.   (converged)
  State  3: excitation energy =   0.2306 a.u.   (converged)
  State  4: excitation energy =   0.2396 a.u.   (converged)
  State  5: excitation energy =   0.2547 a.u.   (converged)
  State  6: excitation energy =   0.2756 a.u.   (converged)
  State  7: excitation energy =   0.2986 a.u.   (converged)
  State  8: excitation energy =   0.3268 a.u.   (converged)
  State  9: excitation energy =   0.3420 a.u.   (converged)
 ------------------------------------------------------------


--------------------------------------------------------------------------------
                   State-averaged natural transition orbitals
--------------------------------------------------------------------------------
--------------------------------------------------------------------------------

--------------------------------------------------------------------------------
                             Excited State Summary
--------------------------------------------------------------------------------
--------------------------------------------------------------------------------

  Excited state 1 (singlet, B2)                                    [converged]
  ----------------------------------------------------------------------------
  Term symbol:  1 (1) B2                                    R^2 =  7.43033e-15

  Total energy:                                            -78.7588139145 a.u.
  Excitation energy:                                               2.161219 eV

  Osc. strength:                                                      0.049758
  Trans. dip. moment [a.u.]:           [   0.000000,    0.969402,    0.000000]
  <i|r^2|0> [a.u.]:                    [  -0.000000,   -0.000000,    0.000000]

  Dip. moment [a.u.]:                  [   0.000000,   -0.000000,    1.084205]
  Total dipole [Debye]:                                               2.755775
  <r^2> [a.u.]:                        [  33.792708,   43.750618,   91.899426]
  Total <r^2> [a.u.]:                                               169.442752

  V1^2 = 0.8591, V2^2 = 0.1409

  Important amplitudes:
      occ i      occ j       vir a       vir b          v   
    ---------------------------------------------------------
     6 (A1) A               3 (B2) A                 -0.4976
     6 (A1) A               2 (B2) A                 -0.4199
    ---------------------------------------------------------

  Density matrix analysis:
  ------------------------
  NOs
    Occupation of frontier NOs:
       0.9887   0.9947
    Number of electrons: 18.000000
    Number of unpaired electrons: n_u =  2.42581, n_u,nl =  2.05048
    NO participation ratio (PR_NO):  2.971680
  
  
  Mulliken Population Analysis
  Atom      Charge (e)              h+              e-           Del q
  --------------------------------------------------------------------
   1 C       -0.169341        0.844786       -0.111307        0.733479
   2 C       -1.146632        0.149101       -1.049015       -0.899914
   3 H        0.062330        0.013854       -0.003829        0.010024
   4 H        0.098374       -0.015997       -0.049482       -0.065479
   5 H        0.062330        0.013854       -0.003829        0.010024
   6 H        0.098374       -0.015997       -0.049482       -0.065479
   7 H       -0.005433        0.405445       -0.128102        0.277343
  --------------------------------------------------------------------
  Sum:       -1.000000        1.395046       -1.395046       -0.000000
  
  Multipole moment analysis of the density matrix
    Molecular charge:                      -1.000000
    Number of electrons:                   18.000000
      Center of electronic charge [Ang]: [ -0.000000,   0.000000,  -0.031874]
    Total nuclear charge:                  17.000000
      Center of nuclear charge [Ang]:    [ -0.000000,   0.000000,  -0.000000]
    Dipole moment [D]:                     2.755775
      Cartesian components [D]:          [  0.000000,  -0.000000,   2.755775]
    RMS size of the density [Ang]:         1.623277
      Cartesian components [Ang]:        [  0.725064,   0.825006,   1.195272]
  
  Exciton analysis of the difference density matrix
    <r_h> [Ang]:                  [  0.000000,   0.000000,  -2.375273]
    <r_e> [Ang]:                  [ -0.000000,   0.000000,  -0.934578]
    |<r_e - r_h>| [Ang]:            1.440695
    Hole size [Ang]:                2.302853
      Cartesian components [Ang]: [  1.127930,   1.143862,   1.649997]
    Electron size [Ang]:            3.422048
      Cartesian components [Ang]: [  1.544927,   2.543496,   1.689451]

  Transition density matrix analysis:
  -----------------------------------
  
  CT numbers (Mulliken)
    omega =     0.8459
    <Phe> =    -0.0124
  
  Exciton analysis of the transition density matrix
    Trans. dipole moment [D]:             1.231987
      Cartesian components [D]:         [  0.000000,   1.231987,   0.000000]
    <r_h> [Ang]:                        [  0.000000,   0.000000,  -2.858302]
    <r_e> [Ang]:                        [  0.000000,   0.000000,  -0.643833]
    |<r_e - r_h>| [Ang]:                  2.214469
    Hole size [Ang]:                      1.648467
      Cartesian components [Ang]:       [  0.934666,   0.941731,   0.978256]
    Electron size [Ang]:                  3.761066
      Cartesian components [Ang]:       [  1.693476,   2.932669,   1.636216]
    RMS electron-hole separation [Ang]:   4.663229
      Cartesian components [Ang]:       [  1.934259,   3.080288,   2.918248]
    Covariance(r_h, r_e) [Ang^2]:         0.010615
    Correlation coefficient:              0.001712
    Center-of-mass size [Ang]:            2.054525
      Cartesian components [Ang]:       [  0.967156,   1.540020,   0.956044]

  Decomposition into state-averaged NTOs
    H- 0 -> L+ 3:  0.6439 ( 82.9%)
    H- 0 -> L+ 0:  0.0793 (  1.3%)
                   omega =  84.6%
  ----------------------------------------------------------------------------


  Excited state 2 (singlet, B2)                                    [converged]
  ----------------------------------------------------------------------------
  Term symbol:  2 (1) B2                                    R^2 =  5.55454e-15

  Total energy:                                            -78.7580807181 a.u.
  Excitation energy:                                               2.181170 eV

  Osc. strength:                                                      0.045812
  Trans. dip. moment [a.u.]:           [  -0.000000,   -0.925900,   -0.000000]
  <i|r^2|0> [a.u.]:                    [   0.000000,    0.000000,   -0.000000]

  Dip. moment [a.u.]:                  [   0.000000,   -0.000000,   -1.708443]
  Total dipole [Debye]:                                               4.342429
  <r^2> [a.u.]:                        [  30.101891,   31.534801,   99.099097]
  Total <r^2> [a.u.]:                                               160.735789

  V1^2 = 0.8525, V2^2 = 0.1475

  Important amplitudes:
      occ i      occ j       vir a       vir b          v   
    ---------------------------------------------------------
     6 (A1) A               2 (B2) A                 -0.4692
     6 (A1) A               3 (B2) A                  0.3670
    ---------------------------------------------------------

  Density matrix analysis:
  ------------------------
  NOs
    Occupation of frontier NOs:
       0.9869   0.9894
    Number of electrons: 18.000000
    Number of unpaired electrons: n_u =  2.43465, n_u,nl =  2.05090
    NO participation ratio (PR_NO):  3.014705
  
  
  Mulliken Population Analysis
  Atom      Charge (e)              h+              e-           Del q
  --------------------------------------------------------------------
   1 C       -1.133677        0.782469       -1.013326       -0.230857
   2 C       -0.161086        0.239652       -0.154021        0.085631
   3 H        0.075957        0.024390       -0.000737        0.023652
   4 H        0.067336       -0.010233       -0.086283       -0.096516
   5 H        0.075957        0.024390       -0.000737        0.023652
   6 H        0.067336       -0.010233       -0.086283       -0.096516
   7 H        0.008176        0.401309       -0.110356        0.290953
  --------------------------------------------------------------------
  Sum:       -1.000000        1.451744       -1.451744       -0.000000
  
  Multipole moment analysis of the density matrix
    Molecular charge:                      -1.000000
    Number of electrons:                   18.000000
      Center of electronic charge [Ang]: [ -0.000000,   0.000000,   0.050226]
    Total nuclear charge:                  17.000000
      Center of nuclear charge [Ang]:    [ -0.000000,   0.000000,  -0.000000]
    Dipole moment [D]:                     4.342427
      Cartesian components [D]:          [  0.000000,  -0.000000,  -4.342427]
    RMS size of the density [Ang]:         1.580527
      Cartesian components [Ang]:        [  0.684324,   0.700422,   1.240635]
  
  Exciton analysis of the difference density matrix
    <r_h> [Ang]:                  [  0.000000,   0.000000,  -2.239759]
    <r_e> [Ang]:                  [ -0.000000,   0.000000,   0.162622]
    |<r_e - r_h>| [Ang]:            2.402382
    Hole size [Ang]:                2.322131
      Cartesian components [Ang]: [  1.103176,   1.133794,   1.699943]
    Electron size [Ang]:            3.205880
      Cartesian components [Ang]: [  1.255434,   1.971943,   2.193853]

  Transition density matrix analysis:
  -----------------------------------
  
  CT numbers (Mulliken)
    omega =     0.8348
    <Phe> =    -0.0093
  
  Exciton analysis of the transition density matrix
    Trans. dipole moment [D]:             1.176701
      Cartesian components [D]:         [ -0.000000,  -1.176701,  -0.000000]
    <r_h> [Ang]:                        [  0.000000,   0.000000,  -2.837529]
    <r_e> [Ang]:                        [ -0.000000,   0.000000,   0.936891]
    |<r_e - r_h>| [Ang]:                  3.774420
    Hole size [Ang]:                      1.661005
      Cartesian components [Ang]:       [  0.930842,   0.937079,   1.007151]
    Electron size [Ang]:                  3.269895
      Cartesian components [Ang]:       [  1.291097,   2.230059,   2.012987]
    RMS electron-hole separation [Ang]:   5.265657
      Cartesian components [Ang]:       [  1.591593,   2.418377,   4.398344]
    Covariance(r_h, r_e) [Ang^2]:        -0.014877
    Correlation coefficient:             -0.002739
    Center-of-mass size [Ang]:            1.831761
      Cartesian components [Ang]:       [  0.795869,   1.209753,   1.121802]

  Decomposition into state-averaged NTOs
    H- 0 -> L+ 0: -0.5449 ( 59.4%)
    H- 0 -> L+ 4: -0.3347 ( 22.4%)
    H- 0 -> L+ 3:  0.0843 (  1.4%)
                   omega =  83.5%
  ----------------------------------------------------------------------------


  Excited state 3 (singlet, B2)                                    [converged]
  ----------------------------------------------------------------------------
  Term symbol:  3 (1) B2                                    R^2 =  7.55302e-15

  Total energy:                                            -78.6977362173 a.u.
  Excitation energy:                                               3.823228 eV

  Osc. strength:                                                      0.089640
  Trans. dip. moment [a.u.]:           [  -0.000000,   -0.978268,    0.000000]
  <i|r^2|0> [a.u.]:                    [  -0.000000,   -0.000000,    0.000000]

  Dip. moment [a.u.]:                  [   0.000000,    0.000000,   -0.264535]
  Total dipole [Debye]:                                               0.672380
  <r^2> [a.u.]:                        [  30.536044,   31.868193,  100.349190]
  Total <r^2> [a.u.]:                                               162.753427

  V1^2 = 0.8342, V2^2 = 0.1658

  Important amplitudes:
      occ i      occ j       vir a       vir b          v   
    ---------------------------------------------------------
     6 (A1) A               4 (B2) A                 -0.5730
     6 (A1) A               3 (B2) A                  0.2124
    ---------------------------------------------------------

  Density matrix analysis:
  ------------------------
  NOs
    Occupation of frontier NOs:
       0.9736   0.9835
    Number of electrons: 18.000000
    Number of unpaired electrons: n_u =  2.47205, n_u,nl =  2.06498
    NO participation ratio (PR_NO):  3.161630
  
  
  Mulliken Population Analysis
  Atom      Charge (e)              h+              e-           Del q
  --------------------------------------------------------------------
   1 C       -0.614189        0.778305       -0.489673        0.288632
   2 C       -0.621041        0.280055       -0.654379       -0.374324
   3 H        0.046179        0.008911       -0.015037       -0.006127
   4 H        0.059144       -0.009940       -0.094768       -0.104708
   5 H        0.046179        0.008911       -0.015037       -0.006127
   6 H        0.059144       -0.009940       -0.094768       -0.104708
   7 H        0.024585        0.407967       -0.100606        0.307361
  --------------------------------------------------------------------
  Sum:       -1.000000        1.464269       -1.464269       -0.000000
  
  Multipole moment analysis of the density matrix
    Molecular charge:                      -1.000000
    Number of electrons:                   18.000000
      Center of electronic charge [Ang]: [ -0.000000,  -0.000000,   0.007777]
    Total nuclear charge:                  17.000000
      Center of nuclear charge [Ang]:    [ -0.000000,   0.000000,  -0.000000]
    Dipole moment [D]:                     0.672380
      Cartesian components [D]:          [  0.000000,   0.000000,  -0.672380]
    RMS size of the density [Ang]:         1.591200
      Cartesian components [Ang]:        [  0.689241,   0.704115,   1.249434]
  
  Exciton analysis of the difference density matrix
    <r_h> [Ang]:                  [  0.000000,   0.000000,  -2.265757]
    <r_e> [Ang]:                  [ -0.000000,  -0.000000,  -0.405744]
    |<r_e - r_h>| [Ang]:            1.860013
    Hole size [Ang]:                2.249757
      Cartesian components [Ang]: [  1.089254,   1.123306,   1.616513]
    Electron size [Ang]:            3.211305
      Cartesian components [Ang]: [  1.274970,   1.976456,   2.186448]

  Transition density matrix analysis:
  -----------------------------------
  
  CT numbers (Mulliken)
    omega =     0.8146
    <Phe> =    -0.0044
  
  Exciton analysis of the transition density matrix
    Trans. dipole moment [D]:             1.243254
      Cartesian components [D]:         [ -0.000000,  -1.243254,   0.000000]
    <r_h> [Ang]:                        [  0.000000,   0.000000,  -2.832821]
    <r_e> [Ang]:                        [ -0.000000,  -0.000000,   0.146093]
    |<r_e - r_h>| [Ang]:                  2.978915
    Hole size [Ang]:                      1.663018
      Cartesian components [Ang]:       [  0.929125,   0.935370,   1.013626]
    Electron size [Ang]:                  3.442157
      Cartesian components [Ang]:       [  1.292690,   2.229513,   2.281812]
    RMS electron-hole separation [Ang]:   4.845321
      Cartesian components [Ang]:       [  1.591870,   2.416715,   3.886203]
    Covariance(r_h, r_e) [Ang^2]:         0.005434
    Correlation coefficient:              0.000949
    Center-of-mass size [Ang]:            1.912128
      Cartesian components [Ang]:       [  0.796020,   1.209419,   1.248956]

  Decomposition into state-averaged NTOs
    H- 0 -> L+ 4: -0.5494 ( 60.4%)
    H- 0 -> L+ 0:  0.3187 ( 20.3%)
                   omega =  81.5%
  ----------------------------------------------------------------------------


  Excited state 4 (singlet, B2)                                    [converged]
  ----------------------------------------------------------------------------
  Term symbol:  4 (1) B2                                    R^2 =  5.33420e-15

  Total energy:                                            -78.6076795660 a.u.
  Excitation energy:                                               6.273794 eV

  Osc. strength:                                                      0.050147
  Trans. dip. moment [a.u.]:           [   0.000000,    0.571185,   -0.000000]
  <i|r^2|0> [a.u.]:                    [  -0.000000,   -0.000000,   -0.000000]

  Dip. moment [a.u.]:                  [  -0.000000,   -0.000000,   -0.086172]
  Total dipole [Debye]:                                               0.219027
  <r^2> [a.u.]:                        [  33.696373,   22.616934,  144.956233]
  Total <r^2> [a.u.]:                                               201.269540

  V1^2 = 0.9333, V2^2 = 0.0667

  Important amplitudes:
      occ i      occ j       vir a       vir b          v   
    ---------------------------------------------------------
     1 (B2) A               7 (A1) A                 -0.6249
     1 (B2) A               8 (A1) A                 -0.2513
    ---------------------------------------------------------

  Density matrix analysis:
  ------------------------
  NOs
    Occupation of frontier NOs:
       0.9841   0.9939
    Number of electrons: 18.000000
    Number of unpaired electrons: n_u =  2.37550, n_u,nl =  2.03354
    NO participation ratio (PR_NO):  2.871713
  
  
  Mulliken Population Analysis
  Atom      Charge (e)              h+              e-           Del q
  --------------------------------------------------------------------
   1 C       -0.347965        0.660044       -0.105188        0.554856
   2 C       -1.143178        0.430339       -1.326799       -0.896460
   3 H        0.170863        0.128514       -0.009956        0.118558
   4 H        0.238121        0.066323        0.007946        0.074269
   5 H        0.170863        0.128514       -0.009956        0.118558
   6 H        0.238121        0.066323        0.007946        0.074269
   7 H       -0.326827        0.022207       -0.066257       -0.044050
  --------------------------------------------------------------------
  Sum:       -1.000000        1.502264       -1.502264        0.000000
  
  Multipole moment analysis of the density matrix
    Molecular charge:                      -1.000000
    Number of electrons:                   18.000000
      Center of electronic charge [Ang]: [  0.000000,   0.000000,   0.002533]
    Total nuclear charge:                  17.000000
      Center of nuclear charge [Ang]:    [ -0.000000,   0.000000,  -0.000000]
    Dipole moment [D]:                     0.219027
      Cartesian components [D]:          [ -0.000000,  -0.000000,  -0.219027]
    RMS size of the density [Ang]:         1.769512
      Cartesian components [Ang]:        [  0.724030,   0.593174,   1.501698]
  
  Exciton analysis of the difference density matrix
    <r_h> [Ang]:                  [  0.000000,  -0.000000,   0.106702]
    <r_e> [Ang]:                  [  0.000000,   0.000000,   1.856842]
    |<r_e - r_h>| [Ang]:            1.750140
    Hole size [Ang]:                1.980460
      Cartesian components [Ang]: [  0.885955,   0.955674,   1.491305]
    Electron size [Ang]:            2.817841
      Cartesian components [Ang]: [  1.342380,   1.329103,   2.090868]

  Transition density matrix analysis:
  -----------------------------------
  
  CT numbers (Mulliken)
    omega =     0.9030
    <Phe> =    -0.0059
  
  Exciton analysis of the transition density matrix
    Trans. dipole moment [D]:             0.725904
      Cartesian components [D]:         [  0.000000,   0.725904,  -0.000000]
    <r_h> [Ang]:                        [  0.000000,   0.000000,   0.279532]
    <r_e> [Ang]:                        [  0.000000,   0.000000,   2.922808]
    |<r_e - r_h>| [Ang]:                  2.643275
    Hole size [Ang]:                      1.278939
      Cartesian components [Ang]:       [  0.522392,   0.885616,   0.760575]
    Electron size [Ang]:                  2.608019
      Cartesian components [Ang]:       [  1.546298,   1.554952,   1.411683]
    RMS electron-hole separation [Ang]:   3.923652
      Cartesian components [Ang]:       [  1.631642,   1.782634,   3.091117]
    Covariance(r_h, r_e) [Ang^2]:         0.014655
    Correlation coefficient:              0.004394
    Center-of-mass size [Ang]:            1.454885
      Cartesian components [Ang]:       [  0.816335,   0.898137,   0.802270]

  Decomposition into state-averaged NTOs
    H- 1 -> L+ 1: -0.6643 ( 88.3%)
    H- 1 -> L+ 2:  0.0993 (  2.0%)
                   omega =  90.3%
  ----------------------------------------------------------------------------


  Excited state 5 (singlet, B2)                                    [converged]
  ----------------------------------------------------------------------------
  Term symbol:  5 (1) B2                                    R^2 =  1.64342e-13

  Total energy:                                            -78.5986174039 a.u.
  Excitation energy:                                               6.520388 eV

  Osc. strength:                                                      0.000083
  Trans. dip. moment [a.u.]:           [   0.000000,    0.022732,    0.000000]
  <i|r^2|0> [a.u.]:                    [  -0.000000,   -0.000000,    0.000000]

  Dip. moment [a.u.]:                  [  -0.000000,   -0.000000,    2.276054]
  Total dipole [Debye]:                                               5.785154
  <r^2> [a.u.]:                        [  34.088507,   40.717787,  102.210649]
  Total <r^2> [a.u.]:                                               177.016944

  V1^2 = 0.0187, V2^2 = 0.9813

  Important amplitudes:
      occ i      occ j       vir a       vir b          v   
    ---------------------------------------------------------
     6 (A1) A   1 (B2) B    4 (B2) A    3 (B2) B     -0.2315
     6 (A1) A   1 (B2) B    3 (B2) A    3 (B2) B     -0.1507
    ---------------------------------------------------------

  Density matrix analysis:
  ------------------------
  NOs
    Occupation of frontier NOs:
       0.9676   0.9717
    Number of electrons: 18.000000
    Number of unpaired electrons: n_u =  3.31608, n_u,nl =  3.14582
    NO participation ratio (PR_NO):  4.612622
  
  
  Mulliken Population Analysis
  Atom      Charge (e)              h+              e-           Del q
  --------------------------------------------------------------------
   1 C       -0.123004        0.850566       -0.070750        0.779816
   2 C       -1.635501        0.503567       -1.892350       -1.388783
   3 H        0.050157        0.006340       -0.008488       -0.002148
   4 H        0.150785       -0.005414       -0.007653       -0.013067
   5 H        0.050157        0.006340       -0.008488       -0.002148
   6 H        0.150785       -0.005414       -0.007653       -0.013067
   7 H        0.356620        0.643739       -0.004342        0.639397
  --------------------------------------------------------------------
  Sum:       -1.000000        1.999723       -1.999723       -0.000000
  
  Multipole moment analysis of the density matrix
    Molecular charge:                      -1.000000
    Number of electrons:                   18.000000
      Center of electronic charge [Ang]: [  0.000000,   0.000000,  -0.066913]
    Total nuclear charge:                  17.000000
      Center of nuclear charge [Ang]:    [ -0.000000,   0.000000,  -0.000000]
    Dipole moment [D]:                     5.785152
      Cartesian components [D]:          [ -0.000000,  -0.000000,   5.785152]
    RMS size of the density [Ang]:         1.658131
      Cartesian components [Ang]:        [  0.728231,   0.795897,   1.259217]
  
  Exciton analysis of the difference density matrix
    <r_h> [Ang]:                  [  0.000000,   0.000000,  -1.306711]
    <r_e> [Ang]:                  [ -0.000000,   0.000000,  -0.617047]
    |<r_e - r_h>| [Ang]:            0.689664
    Hole size [Ang]:                2.131603
      Cartesian components [Ang]: [  0.737830,   0.904548,   1.783572]
    Electron size [Ang]:            2.841545
      Cartesian components [Ang]: [  1.167632,   1.998472,   1.648370]

  Transition density matrix analysis:
  -----------------------------------
  
  CT numbers (Mulliken)
    omega =     0.0189
    <Phe> =     0.0042
  
  Exciton analysis of the transition density matrix
    Trans. dipole moment [D]:             0.028890
      Cartesian components [D]:         [  0.000000,   0.028890,   0.000000]
    <r_h> [Ang]:                        [  0.000000,   0.000000,  -2.197975]
    <r_e> [Ang]:                        [ -0.000000,   0.000000,   0.198772]
    |<r_e - r_h>| [Ang]:                  2.396747
    Hole size [Ang]:                      2.011954
      Cartesian components [Ang]:       [  0.865778,   0.905066,   1.574562]
    Electron size [Ang]:                  2.869522
      Cartesian components [Ang]:       [  1.111631,   1.810278,   1.929075]
    RMS electron-hole separation [Ang]:   4.398722
      Cartesian components [Ang]:       [  1.408785,   2.012809,   3.648655]
    Covariance(r_h, r_e) [Ang^2]:        -0.661122
    Correlation coefficient:             -0.114513
    Center-of-mass size [Ang]:            1.655285
      Cartesian components [Ang]:       [  0.704613,   1.017485,   1.099188]

  Decomposition into state-averaged NTOs
                   omega =   1.9%
  ----------------------------------------------------------------------------


  Excited state 6 (singlet, B2)                                    [converged]
  ----------------------------------------------------------------------------
  Term symbol:  6 (1) B2                                    R^2 =  1.32539e-13

  Total energy:                                            -78.5835491557 a.u.
  Excitation energy:                                               6.930416 eV

  Osc. strength:                                                      0.000460
  Trans. dip. moment [a.u.]:           [   0.000000,    0.052061,    0.000000]
  <i|r^2|0> [a.u.]:                    [   0.000000,    0.000000,    0.000000]

  Dip. moment [a.u.]:                  [  -0.000000,   -0.000000,   -3.230728]
  Total dipole [Debye]:                                               8.211694
  <r^2> [a.u.]:                        [  35.414567,   44.723565,  102.370359]
  Total <r^2> [a.u.]:                                               182.508492

  V1^2 = 0.0163, V2^2 = 0.9837

  Important amplitudes:
      occ i      occ j       vir a       vir b          v   
    ---------------------------------------------------------
     6 (A1) A   1 (B2) B    4 (B2) A    2 (B2) B      0.2377
     6 (A1) A   1 (B2) B    2 (B2) A    4 (B2) B      0.1276
    ---------------------------------------------------------

  Density matrix analysis:
  ------------------------
  NOs
    Occupation of frontier NOs:
       0.9566   0.9691
    Number of electrons: 18.000000
    Number of unpaired electrons: n_u =  3.57684, n_u,nl =  3.52877
    NO participation ratio (PR_NO):  4.792503
  
  
  Mulliken Population Analysis
  Atom      Charge (e)              h+              e-           Del q
  --------------------------------------------------------------------
   1 C       -1.758117        0.875492       -1.730788       -0.855296
   2 C       -0.002458        0.473795       -0.229535        0.244260
   3 H        0.051603        0.004905       -0.005607       -0.000702
   4 H        0.149572       -0.003796       -0.010484       -0.014280
   5 H        0.051603        0.004905       -0.005607       -0.000702
   6 H        0.149572       -0.003796       -0.010484       -0.014280
   7 H        0.358226        0.641750       -0.000747        0.641002
  --------------------------------------------------------------------
  Sum:       -1.000000        1.993253       -1.993253       -0.000000
  
  Multipole moment analysis of the density matrix
    Molecular charge:                      -1.000000
    Number of electrons:                   18.000000
      Center of electronic charge [Ang]: [  0.000000,   0.000000,   0.094979]
    Total nuclear charge:                  17.000000
      Center of nuclear charge [Ang]:    [ -0.000000,   0.000000,  -0.000000]
    Dipole moment [D]:                     8.211691
      Cartesian components [D]:          [ -0.000000,  -0.000000,  -8.211691]
    RMS size of the density [Ang]:         1.682346
      Cartesian components [Ang]:        [  0.742260,   0.834129,   1.258399]
  
  Exciton analysis of the difference density matrix
    <r_h> [Ang]:                  [  0.000000,  -0.000000,  -1.293046]
    <r_e> [Ang]:                  [ -0.000000,   0.000000,   0.860821]
    |<r_e - r_h>| [Ang]:            2.153867
    Hole size [Ang]:                2.129886
      Cartesian components [Ang]: [  0.731829,   0.899127,   1.786732]
    Electron size [Ang]:            2.906875
      Cartesian components [Ang]: [  1.242376,   2.134757,   1.532722]

  Transition density matrix analysis:
  -----------------------------------
  
  CT numbers (Mulliken)
    omega =     0.0164
    <Phe> =    -0.0024
  
  Exciton analysis of the transition density matrix
    Trans. dipole moment [D]:             0.066162
      Cartesian components [D]:         [  0.000000,   0.066162,   0.000000]
    <r_h> [Ang]:                        [  0.000000,   0.000000,  -2.570848]
    <r_e> [Ang]:                        [  0.000000,   0.000000,  -0.195397]
    |<r_e - r_h>| [Ang]:                  2.375452
    Hole size [Ang]:                      1.851482
      Cartesian components [Ang]:       [  0.925971,   0.929829,   1.306132]
    Electron size [Ang]:                  3.395085
      Cartesian components [Ang]:       [  1.297570,   2.197385,   2.239288]
    RMS electron-hole separation [Ang]:   4.508734
      Cartesian components [Ang]:       [  1.593921,   2.390203,   3.474914]
    Covariance(r_h, r_e) [Ang^2]:         0.134338
    Correlation coefficient:              0.021371
    Center-of-mass size [Ang]:            1.950850
      Cartesian components [Ang]:       [  0.797126,   1.190913,   1.323681]

  Decomposition into state-averaged NTOs
                   omega =   1.6%
  ----------------------------------------------------------------------------


  Excited state 7 (singlet, B2)                                    [converged]
  ----------------------------------------------------------------------------
  Term symbol:  7 (1) B2                                    R^2 =  4.60661e-13

  Total energy:                                            -78.5626195551 a.u.
  Excitation energy:                                               7.499939 eV

  Osc. strength:                                                      0.153780
  Trans. dip. moment [a.u.]:           [  -0.000000,   -0.914834,   -0.000000]
  <i|r^2|0> [a.u.]:                    [   0.000000,    0.000000,    0.000000]

  Dip. moment [a.u.]:                  [  -0.000000,   -0.000000,    3.474609]
  Total dipole [Debye]:                                               8.831576
  <r^2> [a.u.]:                        [  36.065420,   24.723257,  124.858643]
  Total <r^2> [a.u.]:                                               185.647320

  V1^2 = 0.9282, V2^2 = 0.0718

  Important amplitudes:
      occ i      occ j       vir a       vir b          v   
    ---------------------------------------------------------
     1 (B2) A               8 (A1) A                  0.5990
     1 (B2) A               7 (A1) A                 -0.2408
    ---------------------------------------------------------

  Density matrix analysis:
  ------------------------
  NOs
    Occupation of frontier NOs:
       0.9771   0.9817
    Number of electrons: 18.000000
    Number of unpaired electrons: n_u =  2.39581, n_u,nl =  2.03796
    NO participation ratio (PR_NO):  2.976153
  
  
  Mulliken Population Analysis
  Atom      Charge (e)              h+              e-           Del q
  --------------------------------------------------------------------
   1 C       -4.823646        0.415479       -4.336305       -3.920826
   2 C        3.387084        0.661594        2.972208        3.633802
   3 H        0.140170        0.091407       -0.003543        0.087865
   4 H        0.237024        0.074063       -0.000891        0.073171
   5 H        0.140170        0.091407       -0.003543        0.087865
   6 H        0.237024        0.074063       -0.000891        0.073171
   7 H       -0.317825        0.017890       -0.052938       -0.035048
  --------------------------------------------------------------------
  Sum:       -1.000000        1.425903       -1.425903        0.000000
  
  Multipole moment analysis of the density matrix
    Molecular charge:                      -1.000000
    Number of electrons:                   18.000000
      Center of electronic charge [Ang]: [  0.000000,   0.000000,  -0.102149]
    Total nuclear charge:                  17.000000
      Center of nuclear charge [Ang]:    [ -0.000000,   0.000000,  -0.000000]
    Dipole moment [D]:                     8.831573
      Cartesian components [D]:          [ -0.000000,  -0.000000,   8.831573]
    RMS size of the density [Ang]:         1.696381
      Cartesian components [Ang]:        [  0.749049,   0.620180,   1.389967]
  
  Exciton analysis of the difference density matrix
    <r_h> [Ang]:                  [ -0.000000,  -0.000000,   0.031082]
    <r_e> [Ang]:                  [ -0.000000,   0.000000,   0.553481]
    |<r_e - r_h>| [Ang]:            0.522399
    Hole size [Ang]:                1.897548
      Cartesian components [Ang]: [  0.856821,   0.957965,   1.396011]
    Electron size [Ang]:            2.842712
      Cartesian components [Ang]: [  1.506959,   1.493400,   1.892046]

  Transition density matrix analysis:
  -----------------------------------
  
  CT numbers (Mulliken)
    omega =     0.8981
    <Phe> =    -0.0146
  
  Exciton analysis of the transition density matrix
    Trans. dipole moment [D]:             1.162638
      Cartesian components [D]:         [ -0.000000,  -1.162638,  -0.000000]
    <r_h> [Ang]:                        [  0.000000,   0.000000,   0.262411]
    <r_e> [Ang]:                        [ -0.000000,   0.000000,   0.882214]
    |<r_e - r_h>| [Ang]:                  0.619803
    Hole size [Ang]:                      1.285197
      Cartesian components [Ang]:       [  0.522958,   0.885294,   0.771038]
    Electron size [Ang]:                  3.111062
      Cartesian components [Ang]:       [  1.719706,   1.715882,   1.943468]
    RMS electron-hole separation [Ang]:   3.409065
      Cartesian components [Ang]:       [  1.796543,   1.921425,   2.168475]
    Covariance(r_h, r_e) [Ang^2]:         0.046433
    Correlation coefficient:              0.011613
    Center-of-mass size [Ang]:            1.689919
      Cartesian components [Ang]:       [  0.899191,   0.970067,   1.051785]

  Decomposition into state-averaged NTOs
    H- 1 -> L+ 2: -0.6618 ( 87.6%)
    H- 1 -> L+ 1: -0.0994 (  2.0%)
                   omega =  89.8%
  ----------------------------------------------------------------------------


  Excited state 8 (singlet, B2)                                    [converged]
  ----------------------------------------------------------------------------
  Term symbol:  8 (1) B2                                    R^2 =  2.28257e-11

  Total energy:                                            -78.5395928475 a.u.
  Excitation energy:                                               8.126528 eV

  Osc. strength:                                                      0.000390
  Trans. dip. moment [a.u.]:           [   0.000000,   -0.044276,   -0.000000]
  <i|r^2|0> [a.u.]:                    [   0.000000,   -0.000000,   -0.000000]

  Dip. moment [a.u.]:                  [   0.000000,   -0.000000,   -0.178791]
  Total dipole [Debye]:                                               0.454441
  <r^2> [a.u.]:                        [  31.335934,   33.932929,   89.605353]
  Total <r^2> [a.u.]:                                               154.874216

  V1^2 = 0.8037, V2^2 = 0.1963

  Important amplitudes:
      occ i      occ j       vir a       vir b          v   
    ---------------------------------------------------------
     6 (A1) A               5 (B2) A                  0.6155
     6 (A1) A               6 (B2) A                  0.1262
    ---------------------------------------------------------

  Density matrix analysis:
  ------------------------
  NOs
    Occupation of frontier NOs:
       0.9177   0.9823
    Number of electrons: 18.000000
    Number of unpaired electrons: n_u =  2.57989, n_u,nl =  2.13101
    NO participation ratio (PR_NO):  3.603742
  
  
  Mulliken Population Analysis
  Atom      Charge (e)              h+              e-           Del q
  --------------------------------------------------------------------
   1 C       -0.668465        0.818800       -0.584444        0.234356
   2 C       -0.619786        0.214031       -0.587100       -0.373069
   3 H        0.054238        0.002105       -0.000173        0.001933
   4 H        0.074354       -0.014137       -0.075361       -0.089498
   5 H        0.054238        0.002105       -0.000173        0.001933
   6 H        0.074354       -0.014137       -0.075361       -0.089498
   7 H        0.031067        0.415720       -0.101876        0.313844
  --------------------------------------------------------------------
  Sum:       -1.000000        1.424487       -1.424487       -0.000000
  
  Multipole moment analysis of the density matrix
    Molecular charge:                      -1.000000
    Number of electrons:                   18.000000
      Center of electronic charge [Ang]: [ -0.000000,   0.000000,   0.005256]
    Total nuclear charge:                  17.000000
      Center of nuclear charge [Ang]:    [ -0.000000,   0.000000,  -0.000000]
    Dipole moment [D]:                     0.454440
      Cartesian components [D]:          [  0.000000,  -0.000000,  -0.454440]
    RMS size of the density [Ang]:         1.552215
      Cartesian components [Ang]:        [  0.698210,   0.726567,   1.180667]
  
  Exciton analysis of the difference density matrix
    <r_h> [Ang]:                  [  0.000000,   0.000000,  -2.244877]
    <r_e> [Ang]:                  [ -0.000000,   0.000000,  -0.364771]
    |<r_e - r_h>| [Ang]:            1.880105
    Hole size [Ang]:                2.249897
      Cartesian components [Ang]: [  1.066845,   1.090283,   1.653832]
    Electron size [Ang]:            2.951180
      Cartesian components [Ang]: [  1.321642,   2.076782,   1.627791]

  Transition density matrix analysis:
  -----------------------------------
  
  CT numbers (Mulliken)
    omega =     0.7905
    <Phe> =    -0.0007
  
  Exciton analysis of the transition density matrix
    Trans. dipole moment [D]:             0.056270
      Cartesian components [D]:         [  0.000000,  -0.056270,  -0.000000]
    <r_h> [Ang]:                        [  0.000000,   0.000000,  -2.831950]
    <r_e> [Ang]:                        [ -0.000000,  -0.000000,   0.126360]
    |<r_e - r_h>| [Ang]:                  2.958311
    Hole size [Ang]:                      1.663675
      Cartesian components [Ang]:       [  0.929074,   0.935654,   1.014489]
    Electron size [Ang]:                  3.071602
      Cartesian components [Ang]:       [  1.373435,   2.372803,   1.384998]
    RMS electron-hole separation [Ang]:   4.575221
      Cartesian components [Ang]:       [  1.658125,   2.549305,   3.418233]
    Covariance(r_h, r_e) [Ang^2]:         0.010753
    Correlation coefficient:              0.002104
    Center-of-mass size [Ang]:            1.748146
      Cartesian components [Ang]:       [  0.829100,   1.275964,   0.860537]

  Decomposition into state-averaged NTOs
    H- 0 -> L+ 5:  0.6251 ( 78.2%)
                   omega =  79.1%
  ----------------------------------------------------------------------------


  Excited state 9 (singlet, B2)                                    [converged]
  ----------------------------------------------------------------------------
  Term symbol:  9 (1) B2                                    R^2 =  1.61691e-08

  Total energy:                                            -78.5113881661 a.u.
  Excitation energy:                                               8.894016 eV

  Osc. strength:                                                      0.000012
  Trans. dip. moment [a.u.]:           [  -0.000000,   -0.007434,    0.000000]
  <i|r^2|0> [a.u.]:                    [   0.000000,    0.000000,    0.000000]

  Dip. moment [a.u.]:                  [  -0.000000,   -0.000000,    1.049374]
  Total dipole [Debye]:                                               2.667244
  <r^2> [a.u.]:                        [  44.219171,   32.886450,  130.173782]
  Total <r^2> [a.u.]:                                               207.279403

  V1^2 = 0.0216, V2^2 = 0.9784

  Important amplitudes:
      occ i      occ j       vir a       vir b          v   
    ---------------------------------------------------------
     6 (A1) A   1 (B2) B    7 (A1) A    9 (A1) B     -0.1594
     6 (A1) A   1 (B2) B    8 (A1) A    9 (A1) B     -0.1513
    ---------------------------------------------------------

  Density matrix analysis:
  ------------------------
  NOs
    Occupation of frontier NOs:
       0.9672   0.9689
    Number of electrons: 18.000000
    Number of unpaired electrons: n_u =  4.14242, n_u,nl =  3.93059
    NO participation ratio (PR_NO):  5.191331
  
  
  Mulliken Population Analysis
  Atom      Charge (e)              h+              e-           Del q
  --------------------------------------------------------------------
   1 C       -2.020621        0.915648       -2.033449       -1.117801
   2 C        0.357343        0.415951        0.188109        0.604060
   3 H        0.077230        0.004442        0.020483        0.024925
   4 H        0.169049       -0.007918        0.013115        0.005197
   5 H        0.077230        0.004442        0.020483        0.024925
   6 H        0.169049       -0.007918        0.013115        0.005197
   7 H        0.170720        0.656500       -0.203003        0.453497
  --------------------------------------------------------------------
  Sum:       -1.000000        1.981146       -1.981146        0.000000
  
  Multipole moment analysis of the density matrix
    Molecular charge:                      -1.000000
    Number of electrons:                   18.000000
      Center of electronic charge [Ang]: [  0.000000,   0.000000,  -0.030850]
    Total nuclear charge:                  17.000000
      Center of nuclear charge [Ang]:    [ -0.000000,   0.000000,  -0.000000]
    Dipole moment [D]:                     2.667243
      Cartesian components [D]:          [ -0.000000,  -0.000000,   2.667243]
    RMS size of the density [Ang]:         1.795473
      Cartesian components [Ang]:        [  0.829412,   0.715276,   1.422737]
  
  Exciton analysis of the difference density matrix
    <r_h> [Ang]:                  [  0.000000,  -0.000000,  -1.329572]
    <r_e> [Ang]:                  [  0.000000,   0.000000,  -0.305787]
    |<r_e - r_h>| [Ang]:            1.023785
    Hole size [Ang]:                2.118057
      Cartesian components [Ang]: [  0.727839,   0.891039,   1.778332]
    Electron size [Ang]:            3.558438
      Cartesian components [Ang]: [  1.669831,   1.700729,   2.642285]

  Transition density matrix analysis:
  -----------------------------------
  
  CT numbers (Mulliken)
    omega =     0.0213
    <Phe> =    -0.0020
  
  Exciton analysis of the transition density matrix
    Trans. dipole moment [D]:             0.009448
      Cartesian components [D]:         [ -0.000000,  -0.009448,   0.000000]
    <r_h> [Ang]:                        [  0.000000,   0.000000,  -2.728453]
    <r_e> [Ang]:                        [ -0.000000,  -0.000000,  -0.277602]
    |<r_e - r_h>| [Ang]:                  2.450850
    Hole size [Ang]:                      1.732895
      Cartesian components [Ang]:       [  0.919745,   0.929406,   1.137189]
    Electron size [Ang]:                  2.919911
      Cartesian components [Ang]:       [  1.312438,   2.246878,   1.324737]
    RMS electron-hole separation [Ang]:   4.206644
      Cartesian components [Ang]:       [  1.602509,   2.435079,   3.032855]
    Covariance(r_h, r_e) [Ang^2]:        -0.080192
    Correlation coefficient:             -0.015849
    Center-of-mass size [Ang]:            1.685854
      Cartesian components [Ang]:       [  0.801376,   1.213971,   0.852160]

  Decomposition into state-averaged NTOs
    H- 0 -> L+ 5: -0.1004 (  2.0%)
                   omega =   2.1%
  ----------------------------------------------------------------------------


  Excited state 10 (singlet, B2)                                    [converged]
  ----------------------------------------------------------------------------
  Term symbol:  10 (1) B2                                   R^2 =  4.44035e-06

  Total energy:                                            -78.4961986704 a.u.
  Excitation energy:                                               9.307343 eV

  Osc. strength:                                                      0.000239
  Trans. dip. moment [a.u.]:           [  -0.000000,   -0.032401,   -0.000000]
  <i|r^2|0> [a.u.]:                    [   0.000000,    0.000000,    0.000000]

  Dip. moment [a.u.]:                  [  -0.000000,   -0.000000,    3.108746]
  Total dipole [Debye]:                                               7.901645
  <r^2> [a.u.]:                        [  35.071847,   26.306271,  120.717694]
  Total <r^2> [a.u.]:                                               182.095812

  V1^2 = 0.6070, V2^2 = 0.3930

  Important amplitudes:
      occ i      occ j       vir a       vir b          v   
    ---------------------------------------------------------
     5 (A1) A               4 (B2) A                 -0.4086
     5 (A1) A               3 (B2) A                 -0.2057
    ---------------------------------------------------------

  Density matrix analysis:
  ------------------------
  NOs
    Occupation of frontier NOs:
       0.6477   1.3983
    Number of electrons: 18.000000
    Number of unpaired electrons: n_u =  3.15169, n_u,nl =  2.93651
    NO participation ratio (PR_NO):  7.306780
  
  
  Mulliken Population Analysis
  Atom      Charge (e)              h+              e-           Del q
  --------------------------------------------------------------------
   1 C       -1.777497        0.488407       -1.363083       -0.874676
   2 C        0.313023        0.509391        0.050350        0.559740
   3 H        0.090395        0.046368       -0.008278        0.038090
   4 H        0.176339        0.035084       -0.022597        0.012487
   5 H        0.090395        0.046368       -0.008278        0.038090
   6 H        0.176339        0.035084       -0.022597        0.012487
   7 H       -0.068994        0.269034       -0.055251        0.213783
  --------------------------------------------------------------------
  Sum:       -1.000000        1.429735       -1.429735        0.000000
  
  Multipole moment analysis of the density matrix
    Molecular charge:                      -1.000000
    Number of electrons:                   18.000000
      Center of electronic charge [Ang]: [  0.000000,   0.000000,  -0.091393]
    Total nuclear charge:                  17.000000
      Center of nuclear charge [Ang]:    [ -0.000000,   0.000000,  -0.000000]
    Dipole moment [D]:                     7.901643
      Cartesian components [D]:          [ -0.000000,  -0.000000,   7.901643]
    RMS size of the density [Ang]:         1.680636
      Cartesian components [Ang]:        [  0.738659,   0.639727,   1.367359]
  
  Exciton analysis of the difference density matrix
    <r_h> [Ang]:                  [ -0.000000,  -0.000000,  -0.744551]
    <r_e> [Ang]:                  [  0.000000,   0.000000,  -0.088138]
    |<r_e - r_h>| [Ang]:            0.656413
    Hole size [Ang]:                2.023085
      Cartesian components [Ang]: [  0.728088,   0.754023,   1.730379]
    Electron size [Ang]:            2.952411
      Cartesian components [Ang]: [  1.366812,   1.479063,   2.158918]

  Transition density matrix analysis:
  -----------------------------------
  
  CT numbers (Mulliken)
    omega =     0.5874
    <Phe> =    -0.0198
  
  Exciton analysis of the transition density matrix
    Trans. dipole moment [D]:             0.041177
      Cartesian components [D]:         [ -0.000000,  -0.041177,  -0.000000]
    <r_h> [Ang]:                        [ -0.000000,  -0.000000,   0.010808]
    <r_e> [Ang]:                        [  0.000000,   0.000000,   0.190500]
    |<r_e - r_h>| [Ang]:                  0.179693
    Hole size [Ang]:                      1.390153
      Cartesian components [Ang]:       [  0.602978,   0.494761,   1.150719]
    Electron size [Ang]:                  2.099800
      Cartesian components [Ang]:       [  0.863737,   1.216025,   1.477973]
    RMS electron-hole separation [Ang]:   2.489596
      Cartesian components [Ang]:       [  1.053845,   1.305278,   1.839496]
    Covariance(r_h, r_e) [Ang^2]:         0.087943
    Correlation coefficient:              0.030127
    Center-of-mass size [Ang]:            1.276477
      Cartesian components [Ang]:       [  0.526464,   0.660163,   0.957295]

  Decomposition into state-averaged NTOs
    H- 2 -> L+ 0:  0.5022 ( 50.4%)
    H- 1 -> L+ 6:  0.1674 (  5.6%)
    H- 0 -> L+ 7:  0.0917 (  1.7%)
                   omega =  58.7%
  ----------------------------------------------------------------------------


--------------------------------------------------------------------------------
  Time of ADC calculation:  CPU 679.67 s  wall 169.30 s
================================================================================
 
 --------------------------------------------------------------
             Orbital Energies (a.u.) and Symmetries
 --------------------------------------------------------------
 
 Alpha MOs, Restricted
 -- Occupied --                  
-11.075 -11.071  -0.883  -0.620  -0.502  -0.406  -0.353  -0.219
  1 A1    2 A1    3 A1    4 A1    1 B1    5 A1    2 B1    1 B2                 
 -0.035
  6 A1                                                                         
 -- Virtual --                   
  0.160   0.177   0.185   0.228   0.229   0.251   0.307   0.320
  7 A1    3 B1    2 B2    4 B1    3 B2    8 A1    9 A1    4 B2                 
  0.332   0.403   0.416   0.436   0.452   0.456   0.492   0.507
 10 A1   11 A1    5 B1   12 A1    5 B2    6 B1    7 B1   13 A1                 
  0.549   0.575   0.702   0.763   0.978   1.011   1.065   1.086
  6 B2   14 A1    8 B1   15 A1   16 A1    9 B1   17 A1   18 A1                 
  1.117   1.135   1.195   1.208   1.211   1.263   1.273   1.319
 19 A1   10 B1   11 B1   20 A1    7 B2    8 B2    1 A2   21 A1                 
  1.446   1.448   1.474   1.568   1.763   1.780   1.849   1.883
  2 A2    9 B2   22 A1   12 B1   23 A1   13 B1   14 B1   10 B2                 
  1.980   2.027   2.056   2.106   2.177   2.219   2.252   2.298
 15 B1   11 B2   24 A1   12 B2    3 A2   25 A1   16 B1   26 A1                 
  2.343   2.523   2.572   2.627   2.743   2.746   2.983   2.990
 13 B2   27 A1    4 A2   28 A1   29 A1   17 B1   18 B1   30 A1                 
  3.436   3.504
 31 A1   19 B1                                                                 
 
 Beta MOs, Restricted
 -- Occupied --                  
-11.075 -11.071  -0.883  -0.620  -0.502  -0.406  -0.353  -0.219
  1 A1    2 A1    3 A1    4 A1    1 B1    5 A1    2 B1    1 B2                 
 -0.035
  6 A1                                                                         
 -- Virtual --                   
  0.160   0.177   0.185   0.228   0.229   0.251   0.307   0.320
  7 A1    3 B1    2 B2    4 B1    3 B2    8 A1    9 A1    4 B2                 
  0.332   0.403   0.416   0.436   0.452   0.456   0.492   0.507
 10 A1   11 A1    5 B1   12 A1    5 B2    6 B1    7 B1   13 A1                 
  0.549   0.575   0.702   0.763   0.978   1.011   1.065   1.086
  6 B2   14 A1    8 B1   15 A1   16 A1    9 B1   17 A1   18 A1                 
  1.117   1.135   1.195   1.208   1.211   1.263   1.273   1.319
 19 A1   10 B1   11 B1   20 A1    7 B2    8 B2    1 A2   21 A1                 
  1.446   1.448   1.474   1.568   1.763   1.780   1.849   1.883
  2 A2    9 B2   22 A1   12 B1   23 A1   13 B1   14 B1   10 B2                 
  1.980   2.027   2.056   2.106   2.177   2.219   2.252   2.298
 15 B1   11 B2   24 A1   12 B2    3 A2   25 A1   16 B1   26 A1                 
  2.343   2.523   2.572   2.627   2.743   2.746   2.983   2.990
 13 B2   27 A1    4 A2   28 A1   29 A1   17 B1   18 B1   30 A1                 
  3.436   3.504
 31 A1   19 B1                                                                 
 --------------------------------------------------------------
 
          Ground-State Mulliken Net Atomic Charges

     Atom                 Charge (a.u.)
  ----------------------------------------
      1 C                    -0.911100
      2 C                    -0.178489
      3 H                     0.045159
      4 H                     0.160948
      5 H                     0.045159
      6 H                     0.160948
      7 H                    -0.322623
  ----------------------------------------
  Sum of atomic charges =    -1.000000

 -----------------------------------------------------------------
                    Cartesian Multipole Moments
 -----------------------------------------------------------------
    Charge (ESU x 10^10)
                -4.8032
    Dipole Moment (Debye)
         X      -0.0000      Y       0.0000      Z      12.4224
       Tot      12.4224
    Quadrupole Moments (Debye-Ang)
        XX     -19.7470     XY      -0.0000     YY     -24.1102
        XZ       0.0000     YZ       0.0000     ZZ     -62.4056
    Octopole Moments (Debye-Ang^2)
       XXX      -0.0000    XXY       0.0000    XYY      -0.0000
       YYY       0.0000    XXZ      17.3763    XYZ       0.0000
       YYZ      17.3005    XZZ      -0.0000    YZZ       0.0000
       ZZZ     163.9315
    Hexadecapole Moments (Debye-Ang^3)
      XXXX     -63.1413   XXXY      -0.0000   XXYY     -21.3375
      XYYY      -0.0000   YYYY     -59.6374   XXXZ       0.0000
      XXYZ       0.0000   XYYZ       0.0000   YYYZ       0.0000
      XXZZ     -88.0165   XYZZ       0.0000   YYZZ     -91.5750
      XZZZ       0.0000   YZZZ      -0.0000   ZZZZ    -762.5865
 -----------------------------------------------------------------
 Total job time:  252.14s(wall), 726.16s(cpu) 
 Sun Mar 27 12:47:24 2022

        *************************************************************
        *                                                           *
        *  Thank you very much for using Q-Chem.  Have a nice day.  *
        *                                                           *
        *************************************************************


