/src/tsommerfeld/qchem/exe/qcprog.exe .input0.694444.28972.qcin.1 /src/jdavis/qchem.scratch/qchem28972/

                  Welcome to Q-Chem
     A Quantum Leap Into The Future Of Chemistry


 Q-Chem 5.4 (devel), Q-Chem, Inc., Pleasanton, CA (2021)

 E. Epifanovsky,  A. T. B. Gilbert,  Xintian Feng,  Joonho Lee,  Yuezhi Mao,  
 N. Mardirossian,  P. Pokhilko,  A. White,  M. Wormit,  M. P. Coons,  
 A. L. Dempwolff,  Zhengting Gan,  D. Hait,  P. R. Horn,  L. D. Jacobson,  
 I. Kaliman,  J. Kussmann,  A. W. Lange,  Ka Un Lao,  D. S. Levine,  Jie Liu,  
 S. C. McKenzie,  A. F. Morrison,  K. Nanda,  F. Plasser,  D. R. Rehn,  
 M. L. Vidal,  Zhi-Qiang You,  Ying Zhu,  B. Alam,  B. Albrecht,  
 A. Aldossary,  E. Alguire,  J. H. Andersen,  D. Barton,  K. Begam,  A. Behn,  
 Y. A. Bernard,  E. J. Berquist,  H. Burton,  A. Carreras,  K. Carter-Fenk,  
 R. Chakraborty,  A. D. Chien,  K. D. Closser,  V. Cofer-Shabica,  
 S. Dasgupta,  Jia Deng,  M. de Wergifosse,  M. Diedenhofen,  Hainam Do,  
 S. Ehlert,  Po-Tung Fang,  S. Fatehi,  Qingguo Feng,  T. Friedhoff,  
 J. Gayvert,  Qinghui Ge,  G. Gidofalvi,  M. Goldey,  J. Gomes,  
 C. Gonzalez-Espinoza,  S. Gulania,  A. Gunina,  M. W. D. Hanson-Heine,  
 P. H. P. Harbach,  A. W. Hauser,  M. F. Herbst,  M. Hernandez Vera,  
 M. Hodecker,  Z. C. Holden,  S. Houck,  Xunkun Huang,  Kerwin Hui,  
 B. C. Huynh,  M. Ivanov,  Hyunjun Ji,  Hanjie Jiang,  B. Kaduk,  S. Kaehler,  
 K. Khistyaev,  Jaehoon Kim,  P. Klunzinger,  Z. Koczor-Benda,  
 Joong Hoon Koh,  D. Kosenkov,  L. Koulias,  T. Kowalczyk,  C. M. Krauter,  
 K. Kue,  A. Kunitsa,  T. Kus,  A. Landau,  K. V. Lawler,  D. Lefrancois,  
 S. Lehtola,  Rain Li,  Yi-Pei Li,  Jiashu Liang,  M. Liebenthal,  
 Hung-Hsuan Lin,  You-Sheng Lin,  Fenglai Liu,  Kuan-Yu Liu,  
 M. Loipersberger,  A. Luenser,  A. Manjanath,  P. Manohar,  E. Mansoor,  
 S. F. Manzer,  Shan-Ping Mao,  A. V. Marenich,  T. Markovich,  S. Mason,  
 S. A. Maurer,  P. F. McLaughlin,  M. F. S. J. Menger,  J.-M. Mewes,  
 S. A. Mewes,  P. Morgante,  J. W. Mullinax,  K. J. Oosterbaan,  G. Paran,  
 Alexander C. Paul,  Suranjan K. Paul,  F. Pavosevic,  Zheng Pei,  S. Prager,  
 E. I. Proynov,  E. Ramos,  B. Rana,  A. E. Rask,  A. Rettig,  R. M. Richard,  
 F. Rob,  E. Rossomme,  T. Scheele,  M. Scheurer,  M. Schneider,  
 N. Sergueev,  S. M. Sharada,  W. Skomorowski,  D. W. Small,  C. J. Stein,  
 Yu-Chuan Su,  E. J. Sundstrom,  Zhen Tao,  J. Thirman,  T. Tsuchimochi,  
 N. M. Tubman,  S. P. Veccham,  O. Vydrov,  J. Wenzel,  J. Witte,  A. Yamada,  
 Kun Yao,  S. Yeganeh,  S. R. Yost,  A. Zech,  Igor Ying Zhang,  Xing Zhang,  
 Yu Zhang,  D. Zuev,  A. Aspuru-Guzik,  A. T. Bell,  N. A. Besley,  
 K. B. Bravaya,  B. R. Brooks,  D. Casanova,  Jeng-Da Chai,  S. Coriani,  
 C. J. Cramer,  A. E. DePrince, III,  R. A. DiStasio Jr.,  A. Dreuw,  
 B. D. Dunietz,  T. R. Furlani,  W. A. Goddard III,  S. Grimme,  
 S. Hammes-Schiffer,  T. Head-Gordon,  W. J. Hehre,  Chao-Ping Hsu,  
 T.-C. Jagau,  Yousung Jung,  A. Klamt,  Jing Kong,  D. S. Lambrecht,  
 WanZhen Liang,  N. J. Mayhall,  C. W. McCurdy,  J. B. Neaton,  
 C. Ochsenfeld,  J. A. Parkhill,  R. Peverati,  V. A. Rassolov,  Yihan Shao,  
 L. V. Slipchenko,  T. Stauch,  R. P. Steele,  J. E. Subotnik,  
 A. J. W. Thom,  A. Tkatchenko,  D. G. Truhlar,  T. Van Voorhis,  
 T. A. Wesolowski,  K. B. Whaley,  H. L. Woodcock III,  P. M. Zimmerman,  
 S. Faraji,  P. M. W. Gill,  M. Head-Gordon,  J. M. Herbert,  A. I. Krylov

 Additional authors for Version 5.4.1: 
 S. Kotaru,  Shaozhi Li,  Xiangyuan Li,  F. Matz,  A. Molle,  Haisheng Ren,  
 Yingli Su,  Hung-Yi Tsai,  C. Utku,  Fang Wang

 Contributors to earlier versions of Q-Chem not listed above: 
 R. D. Adamson,  B. Austin,  R. Baer,  J. Baker,  G. J. O. Beran,  
 K. Brandhorst,  S. T. Brown,  E. F. C. Byrd,  A. K. Chakraborty,  
 G. K. L. Chan,  Chun-Min Chang,  Yunqing Chen,  C.-L. Cheng,  
 Siu Hung Chien,  D. M. Chipman,  D. L. Crittenden,  H. Dachsel,  
 R. J. Doerksen,  A. D. Dutoi,  R. G. Edgar,  J. Fosso-Tande,  
 L. Fusti-Molnar,  D. Ghosh,  A. Ghysels,  A. Golubeva-Zadorozhnaya,  
 J. Gonthier,  M. S. Gordon,  S. R. Gwaltney,  G. Hawkins,  J. E. Herr,  
 A. Heyden,  S. Hirata,  E. G. Hohenstein,  G. Kedziora,  F. J. Keil,  
 C. Kelley,  Jihan Kim,  R. A. King,  R. Z. Khaliullin,  P. P. Korambath,  
 W. Kurlancheek,  A. Laurent,  A. M. Lee,  M. S. Lee,  S. V. Levchenko,  
 Ching Yeh Lin,  D. Liotard,  E. Livshits,  R. C. Lochan,  I. Lotan,  
 L. A. Martinez-Martinez,  P. E. Maslen,  N. Nair,  D. P. O'Neill,  
 D. Neuhauser,  E. Neuscamman,  C. M. Oana,  R. Olivares-Amaya,  R. Olson,  
 T. M. Perrine,  B. Peters,  P. A. Pieniazek,  A. Prociuk,  Y. M. Rhee,  
 J. Ritchie,  M. A. Rohrdanz,  E. Rosta,  N. J. Russ,  H. F. Schaefer III,  
 M. W. Schmidt,  N. E. Schultz,  S. Sharma,  N. Shenvi,  C. D. Sherrill,  
 A. C. Simmonett,  A. Sodt,  T. Stein,  D. Stuck,  K. S. Thanthiriwatte,  
 V. Vanovschi,  L. Vogt,  Tao Wang,  A. Warshel,  M. A. Watson,  
 C. F. Williams,  Q. Wu,  X. Xu,  Jun Yang,  W. Zhang,  Yan Zhao

 Please cite Q-Chem as follows:
 Y. Shao et al., Mol. Phys. 113, 184-215 (2015)
 DOI: 10.1080/00268976.2014.952696

 Q-Chem 5.4.1 for Intel X86 EM64T Linux

 Parts of Q-Chem use Armadillo 9.900.5 (Nocturnal Misbehaviour).
 http://arma.sourceforge.net/

 Q-Chem begins on Sun Mar 27 11:33:23 2022  

 Host: node01
0

     Scratch files written to /src/jdavis/qchem.scratch/qchem28972//
 Processing $rem in /src/tsommerfeld/qchem/config/preferences:
 Processing $rem in /home/jdavis/.qchemrc:

 Checking the input file for inconsistencies... 	...done.

--------------------------------------------------------------
User input:
--------------------------------------------------------------
$molecule
-1 1
C         0.0000000000    0.0000000000    0.8417902907
C         0.0000000000    0.0000000000   -0.4872097093
H         0.9623488518    0.0000000000    1.3363703127
H         0.9623489048    0.0000000000   -0.9817896873
H        -0.9623488518    0.0000000000    1.3363703127
H        -0.9623489048    0.0000000000   -0.9817896873
H         0.0000000000    0.0000000000   -2.8366446508
$end

$rem
   METHOD adc(3)
   BASIS gen
   PURECART 11
   EE_STATES [0,0,0,10]
   scf_convergence 8
   ADC_DAVIDSON_MAXITER 120
   ADC_DAVIDSON_MAXSUBSPACE 200
   adc_nguess_singles 100
   THRESH 14
   S2THRESH 14
   adc_davidson_conv 5
   adc_davidson_thresh 14
   THREADS 10
   MEM_TOTAL 95000
   STATE_ANALYSIS TRUE
$end
$basis
C 1
S   9   1.00
      6.665000D+03           6.920000D-04
      1.000000D+03           5.329000D-03
      2.280000D+02           2.707700D-02
      6.471000D+01           1.017180D-01
      2.106000D+01           2.747400D-01
      7.495000D+00           4.485640D-01
      2.797000D+00           2.850740D-01
      5.215000D-01           1.520400D-02
      1.596000D-01          -3.191000D-03
S   9   1.00
      6.665000D+03          -1.460000D-04
      1.000000D+03          -1.154000D-03
      2.280000D+02          -5.725000D-03
      6.471000D+01          -2.331200D-02
      2.106000D+01          -6.395500D-02
      7.495000D+00          -1.499810D-01
      2.797000D+00          -1.272620D-01
      5.215000D-01           5.445290D-01
      1.596000D-01           5.804960D-01
S   1   1.00
      1.596000D-01           1.000000D+00
S   1   1.00
      0.0469000              1.0000000
P   4   1.00
      9.439000D+00           3.810900D-02
      2.002000D+00           2.094800D-01
      5.456000D-01           5.085570D-01
      1.517000D-01           4.688420D-01
P   1   1.00
      1.517000D-01           1.000000D+00
P   1   1.00
      0.0421389      1.0000000
P   1   1.00
      0.0210694      1.0000000
D   1   1.00
      5.500000D-01           1.0000000
****
C 2
S   9   1.00
      6.665000D+03           6.920000D-04
      1.000000D+03           5.329000D-03
      2.280000D+02           2.707700D-02
      6.471000D+01           1.017180D-01
      2.106000D+01           2.747400D-01
      7.495000D+00           4.485640D-01
      2.797000D+00           2.850740D-01
      5.215000D-01           1.520400D-02
      1.596000D-01          -3.191000D-03
S   9   1.00
      6.665000D+03          -1.460000D-04
      1.000000D+03          -1.154000D-03
      2.280000D+02          -5.725000D-03
      6.471000D+01          -2.331200D-02
      2.106000D+01          -6.395500D-02
      7.495000D+00          -1.499810D-01
      2.797000D+00          -1.272620D-01
      5.215000D-01           5.445290D-01
      1.596000D-01           5.804960D-01
S   1   1.00
      1.596000D-01           1.000000D+00
S   1   1.00
      0.0469000              1.0000000
P   4   1.00
      9.439000D+00           3.810900D-02
      2.002000D+00           2.094800D-01
      5.456000D-01           5.085570D-01
      1.517000D-01           4.688420D-01
P   1   1.00
      1.517000D-01           1.000000D+00
P   1   1.00
      0.0421389      1.0000000
P   1   1.00
      0.0210694      1.0000000
D   1   1.00
      5.500000D-01           1.0000000
****
H 3
cc-pVDZ
****
H 4
cc-pVDZ
****
H 5
cc-pVDZ
****
H 6
cc-pVDZ
****
H 7
aug-cc-pVDZ
****
$end
--------------------------------------------------------------
 ----------------------------------------------------------------
             Standard Nuclear Orientation (Angstroms)
    I     Atom           X                Y                Z
 ----------------------------------------------------------------
    1      C       0.0000000000     0.0000000000     0.8417902855
    2      C       0.0000000000     0.0000000000    -0.4872097145
    3      H       0.9623488518     0.0000000000     1.3363703075
    4      H       0.9623489048     0.0000000000    -0.9817896925
    5      H      -0.9623488518     0.0000000000     1.3363703075
    6      H      -0.9623489048     0.0000000000    -0.9817896925
    7      H       0.0000000000     0.0000000000    -2.8366446560
 ----------------------------------------------------------------
 Molecular Point Group                 C2v   NOp =  4
 Largest Abelian Subgroup              C2v   NOp =  4
 Nuclear Repulsion Energy =          36.55739271 hartrees
 There are        9 alpha and        9 beta electrons
 Requested basis set is non-standard
 There are 33 shells and 67 basis functions
 Total memory of 95000 MB is distributed as follows: 
   MEM_STATIC is set to 192 MB
   QALLOC/CCMAN JOB total memory use is  94808 MB
 Warning: actual memory use might exceed 95000 MB

 Total QAlloc Memory Limit  95000 MB
 Mega-Array Size       188 MB
 MEM_STATIC part       192 MB

                       Distance Matrix (Angstroms)
             C (  1)   C (  2)   H (  3)   H (  4)   H (  5)   H (  6)
   C (  2)  1.329000
   H (  3)  1.082000  2.061931
   H (  4)  2.061931  1.082000  2.318160
   H (  5)  1.082000  2.061931  1.924698  3.013026
   H (  6)  2.061931  1.082000  3.013026  1.924698  2.318160
   H (  7)  3.678435  2.349435  4.282542  2.089642  4.282542  2.089642

 
 A cutoff of  1.0D-14 yielded    561 shell pairs
 There are      2337 function pairs (      2484 Cartesian)
 Smallest overlap matrix eigenvalue = 1.66E-04

 Scale SEOQF with 1.000000e-01/1.000000e-01/1.000000e-01

 Standard Electronic Orientation quadrupole field applied
 Nucleus-field energy     =    -0.0000000019 hartrees
 ================ Generating on-the-fly SAD Guess ================
Attempting to make child job directory: /src/jdavis/qchem.scratch/qchem28972//Frg1/
Attempting to make child job directory: /src/jdavis/qchem.scratch/qchem28972//Frg2/
Creating input file /src/jdavis/qchem.scratch/qchem28972/Frg1.input
using default PutDataFrgm: nothing
calling putenv with: QCSCRATCH=/src/jdavis/qchem.scratch/qchem28972/ 
Spawning Job For Fragment 0
Done Job For Fragment 0
calling putenv with: QCSCRATCH=/src/jdavis/qchem.scratch 
calling putenv with: QCTHREADS=1 
Creating input file /src/jdavis/qchem.scratch/qchem28972/Frg2.input
using default PutDataFrgm: nothing
calling putenv with: QCSCRATCH=/src/jdavis/qchem.scratch/qchem28972/ 
Spawning Job For Fragment 1
Done Job For Fragment 1
calling putenv with: QCSCRATCH=/src/jdavis/qchem.scratch 
calling putenv with: QCTHREADS=1 
 Time for running child jobs:  CPU 1.77 s  wall 54.47 s
 ============= Method Specific SAD Guess Constructed =============
 Guess from on-the-fly superposition of atomic densities
 Warning: Energy on first SCF cycle will be non-variational
 A restricted Hartree-Fock SCF calculation will be
 performed using Pulay DIIS extrapolation
 SCF converges when DIIS error is below 1.0E-08
 using 10 threads for integral computing
 -------------------------------------------------------
 OpenMP Integral computing Module                
 Release: version 1.0, May 2013, Q-Chem Inc. Pittsburgh 
 -------------------------------------------------------
 ---------------------------------------
  Cycle       Energy         DIIS Error
 ---------------------------------------
    1     -78.8384322666      7.39E-02
    2     -78.4381038570      7.16E-03
    3     -78.4958106690      2.36E-03
    4     -78.4999470791      8.93E-04
    5     -78.5006945370      2.37E-04
    6     -78.5007721169      7.25E-05
    7     -78.5007822077      3.49E-05
    8     -78.5007844211      7.41E-06
    9     -78.5007845720      1.55E-06
   10     -78.5007845808      2.66E-07
   11     -78.5007845810      4.49E-08
   12     -78.5007845810      7.79E-09 Convergence criterion met
 ---------------------------------------
 SCF time:  CPU 11.96 s  wall 1.20 s
 SCF   energy in the final basis set = -78.50078458
 Total energy in the final basis set = -78.50078458
================================================================================
|                                                                              |
|                                 A D C  M A N                                 |
|                                                                              |
 ------------------------------------------------------------------------------ 
|                                                                              |
| Components:                                                                  |
|                                                                              |
| - libvmm - 1.3-trunk                                                         |
|   Authors:                                                                   |
|   Evgeny Epifanovsky, Ilya Kaliman                                           |
|                                                                              |
| - libtensor - 2.5-trunk                                                      |
|   Authors:                                                                   |
|   Evgeny Epifanovsky, Michael Wormit, Dmitry Zuev, Sam Manzer,               |
|   Ilya Kaliman                                                               |
|                                                                              |
| - libwfa - 1.1-trunk                                                         |
|   Authors:                                                                   |
|   Felix Plasser, Stefanie Mewes (Baeppler), Benjamin Thomitzni,              |
|   Michael Wormit, Feng Chen, Anna I. Krylov, Pavel Pokhilko                  |
|                                                                              |
| - libadc - 1.1-trunk                                                         |
|   Authors:                                                                   |
|   Michael Wormit, Adrian L. Dempwolff, Philipp H. P. Harbach,                |
|   Caroline Krauter, Dirk Rehn, Matthias Schneider, Jan Wenzel                |
|                                                                              |
| - adcman - 2.6-trunk                                                         |
|   Authors:                                                                   |
|   Michael Wormit, Adrian L. Dempwolff, Philipp H. P. Harbach,                |
|   Caroline Krauter, Daniel Lefrancois, Jan-Michael Mewes, Dirk Rehn,         |
|   Matthias Schneider, Jan Wenzel, Andreas Dreuw                              |
|                                                                              |
| Authors of earlier versions of ADCMAN:                                       |
| Andreas Dreuw, Jan Hendrik Starcke, Dirk Rehn, Michael Wormit                |
|                                                                              |
================================================================================

 
 Alpha MOs, Restricted
 -- Occupied --                  
-11.076 -11.072  -0.883  -0.621  -0.502  -0.406  -0.354  -0.220
  1 A1    2 A1    3 A1    4 A1    1 B1    5 A1    2 B1    1 B2                 
 -0.036
  6 A1                                                                         
 -- Virtual --                   
  0.129   0.131   0.136   0.169   0.175   0.198   0.225   0.274
  7 A1    3 B1    2 B2    4 B1    3 B2    8 A1    9 A1    4 B2                 
  0.287   0.304   0.324   0.327   0.390   0.412   0.421   0.441
  5 B1   10 A1    6 B1    5 B2   11 A1   12 A1    6 B2   13 A1                 
  0.487   0.505   0.623   0.693   0.865   0.935   1.014   1.032
  7 B1   14 A1    8 B1   15 A1   16 A1    9 B1   17 A1    7 B2                 
  1.049   1.090   1.096   1.141   1.179   1.200   1.209   1.272
 10 B1   18 A1    8 B2   19 A1   20 A1   21 A1   11 B1    1 A2                 
  1.444   1.445   1.502   1.510   1.753   1.761   1.836   1.878
  9 B2    2 A2   12 B1   22 A1   23 A1   13 B1   14 B1   10 B2                 
  1.952   2.009   2.035   2.101   2.157   2.176   2.206   2.285
 15 B1   11 B2   24 A1   12 B2   25 A1    3 A2   16 B1   26 A1                 
  2.334   2.476   2.572   2.602   2.715   2.734   2.962   2.967
 13 B2   27 A1    4 A2   28 A1   17 B1   29 A1   30 A1   18 B1                 
  3.425   3.505
 31 A1   19 B1                                                                 
 
 Beta MOs, Restricted
 -- Occupied --                  
-11.076 -11.072  -0.883  -0.621  -0.502  -0.406  -0.354  -0.220
  1 A1    2 A1    3 A1    4 A1    1 B1    5 A1    2 B1    1 B2                 
 -0.036
  6 A1                                                                         
 -- Virtual --                   
  0.129   0.131   0.136   0.169   0.175   0.198   0.225   0.274
  7 A1    3 B1    2 B2    4 B1    3 B2    8 A1    9 A1    4 B2                 
  0.287   0.304   0.324   0.327   0.390   0.412   0.421   0.441
  5 B1   10 A1    6 B1    5 B2   11 A1   12 A1    6 B2   13 A1                 
  0.487   0.505   0.623   0.693   0.865   0.935   1.014   1.032
  7 B1   14 A1    8 B1   15 A1   16 A1    9 B1   17 A1    7 B2                 
  1.049   1.090   1.096   1.141   1.179   1.200   1.209   1.272
 10 B1   18 A1    8 B2   19 A1   20 A1   21 A1   11 B1    1 A2                 
  1.444   1.445   1.502   1.510   1.753   1.761   1.836   1.878
  9 B2    2 A2   12 B1   22 A1   23 A1   13 B1   14 B1   10 B2                 
  1.952   2.009   2.035   2.101   2.157   2.176   2.206   2.285
 15 B1   11 B2   24 A1   12 B2   25 A1    3 A2   16 B1   26 A1                 
  2.334   2.476   2.572   2.602   2.715   2.734   2.962   2.967
 13 B2   27 A1    4 A2   28 A1   17 B1   29 A1   30 A1   18 B1                 
  3.425   3.505
 31 A1   19 B1                                                                 

--------------------------------------------------------------------------------
                                   HF Summary                                   
--------------------------------------------------------------------------------
  Energy:                                                  -78.5007845810 a.u.
  Dip. moment [a.u.]:                  [  -0.000000,    0.000000,    4.886781]
  Total dipole [Debye]:                                              12.420960
  <r^2> [a.u.]:                        [  28.160492,   18.108878,  115.543857]
  Total <r^2> [a.u.]:                                               161.813227
--------------------------------------------------------------------------------

--------------------------------------------------------------------------------
                                 MP(2) Summary                                  
--------------------------------------------------------------------------------
  MP energy contribution:                                   -0.3066269228 a.u.
  Total energy:                                            -78.8074115038 a.u.
  Dip. moment [a.u.]:                  [   0.000000,   -0.000000,    4.884375]
  Total dipole [Debye]:                                              12.414846
  <r^2> [a.u.]:                        [  28.639797,   18.376756,  115.789719]
  Total <r^2> [a.u.]:                                               162.806272

  Density matrix analysis:
  ------------------------
  NOs
    Occupation of frontier NOs:
       0.0436   1.9374
    Number of electrons: 18.000000
    Number of unpaired electrons: n_u =  0.47535, n_u,nl =  0.05238
    NO participation ratio (PR_NO): 16.578083
  
  
  Mulliken Population Analysis
  Atom      Charge (e)              h+              e-           Del q
  --------------------------------------------------------------------
   1 C       -0.417382        0.153271       -0.077979        0.075292
   2 C       -0.602080        0.039526       -0.172081       -0.132554
   3 H        0.038090        0.018633       -0.012140        0.006493
   4 H        0.137500        0.016759       -0.012186        0.004574
   5 H        0.038090        0.018633       -0.012140        0.006493
   6 H        0.137500        0.016759       -0.012186        0.004574
   7 H       -0.331718        0.050932       -0.015804        0.035128
  --------------------------------------------------------------------
  Sum:       -1.000000        0.314514       -0.314514        0.000000
  
  Multipole moment analysis of the density matrix
    Molecular charge:                      -1.000000
    Number of electrons:                   18.000000
      Center of electronic charge [Ang]: [ -0.000000,   0.000000,  -0.143594]
    Total nuclear charge:                  17.000000
      Center of nuclear charge [Ang]:    [ -0.000000,   0.000000,  -0.000000]
    Dipole moment [D]:                     12.414843
      Cartesian components [D]:          [  0.000000,  -0.000000,  12.414843]
    RMS size of the density [Ang]:         1.584986
      Cartesian components [Ang]:        [  0.667498,   0.534687,   1.334443]
  
  Exciton analysis of the difference density matrix
    <r_h> [Ang]:                  [ -0.000000,  -0.000000,  -0.270945]
    <r_e> [Ang]:                  [ -0.000000,   0.000000,  -0.266897]
    |<r_e - r_h>| [Ang]:            0.004047
    Hole size [Ang]:                2.033932
      Cartesian components [Ang]: [  0.827646,   0.834269,   1.660083]
    Electron size [Ang]:            2.241253
      Cartesian components [Ang]: [  1.054395,   0.966701,   1.725386]
--------------------------------------------------------------------------------

--------------------------------------------------------------------------------
                                 MP(3) Summary                                  
--------------------------------------------------------------------------------
  MP energy contribution:                                   -0.0294008829 a.u.
  Total energy:                                            -78.8368123867 a.u.
--------------------------------------------------------------------------------
  Starting Davidson for singlet states of irrep B2 ... 
--------------------------------------------------------------------------------
   It NVec Conv  Avg. Norm  Max. Norm  Conv. states           Remark
--------------------------------------------------------------------------------
       100    0  9.212e-02  4.153e-01  0.1137 n n n n n n n n Guess.
    1  110    0  3.746e-02  2.353e-01  0.0547 n n n n n n n n 
    2  120    0  2.884e-02  2.343e-01  0.0486 n n n n n n n n 
    3  130    0  2.432e-02  1.830e-01  0.0481 n n n n n n n n 
    4  140    0  8.522e-03  5.292e-02  0.0481 n n n n n n n n 
    5  150    0  3.255e-03  1.936e-02  0.0481 n n n n n n n n 
    6  160    0  4.913e-03  4.798e-02  0.0481 n n n n n n n n 
    7  170    0  3.270e-03  3.244e-02  0.0481 n n n n n n n n 
    8  180    2  1.854e-03  1.848e-02  0.0481 y y n n n n n n 
    9  190    4  8.262e-04  8.248e-03  0.0481 y y y y n n n n 
   10  200    4  3.274e-04  3.270e-03  0.0481 y y y y n n n n 
   11   20    5  1.244e-04  1.243e-03  0.0481 y y y y n n y n Subspace collapsed.
   12   30    7  9.062e-05  9.058e-04  0.0481 y y y y y n y n 
   13   40    9  5.027e-05  5.026e-04  0.0481 y y y y y y y y 
   14   50    9  2.870e-05  2.870e-04  0.0481 y y y y y y y y 
   15   60    9  2.163e-05  2.163e-04  0.0481 y y y y y y y y 
   16   70    9  1.822e-05  1.822e-04  0.0481 y y y y y y y y 
   17   80    9  1.209e-05  1.209e-04  0.0481 y y y y y y y y 
   18   90    9  6.869e-06  6.869e-05  0.0481 y y y y y y y y 
   19  100    9  3.812e-06  3.812e-05  0.0481 y y y y y y y y 
   20  110    9  2.372e-06  2.372e-05  0.0481 y y y y y y y y 
   21  120    9  1.966e-06  1.966e-05  0.0481 y y y y y y y y 
   22  130    9  1.137e-06  1.137e-05  0.0481 y y y y y y y y 
   23  139   10  6.206e-07  6.206e-06  0.0481 y y y y y y y y Converged.
--------------------------------------------------------------------------------
  Davidson Summary: 
 ------------------------------------------------------------
  State  0: excitation energy =   0.0481 a.u.   (converged)
  State  1: excitation energy =   0.0610 a.u.   (converged)
  State  2: excitation energy =   0.1053 a.u.   (converged)
  State  3: excitation energy =   0.1875 a.u.   (converged)
  State  4: excitation energy =   0.2107 a.u.   (converged)
  State  5: excitation energy =   0.2233 a.u.   (converged)
  State  6: excitation energy =   0.2262 a.u.   (converged)
  State  7: excitation energy =   0.2461 a.u.   (converged)
  State  8: excitation energy =   0.2601 a.u.   (converged)
  State  9: excitation energy =   0.2972 a.u.   (converged)
 ------------------------------------------------------------


--------------------------------------------------------------------------------
                   State-averaged natural transition orbitals
--------------------------------------------------------------------------------
--------------------------------------------------------------------------------

--------------------------------------------------------------------------------
                             Excited State Summary
--------------------------------------------------------------------------------
--------------------------------------------------------------------------------

  Excited state 1 (singlet, B2)                                    [converged]
  ----------------------------------------------------------------------------
  Term symbol:  1 (1) B2                                    R^2 =  8.67581e-15

  Total energy:                                            -78.7886828069 a.u.
  Excitation energy:                                               1.309672 eV

  Osc. strength:                                                      0.006707
  Trans. dip. moment [a.u.]:           [  -0.000000,   -0.457181,   -0.000000]
  <i|r^2|0> [a.u.]:                    [   0.000000,    0.000000,    0.000000]

  Dip. moment [a.u.]:                  [   0.000000,    0.000000,   -0.195255]
  Total dipole [Debye]:                                               0.496289
  <r^2> [a.u.]:                        [  40.254006,   63.314255,   98.049550]
  Total <r^2> [a.u.]:                                               201.617811

  V1^2 = 0.8585, V2^2 = 0.1415

  Important amplitudes:
      occ i      occ j       vir a       vir b          v   
    ---------------------------------------------------------
     6 (A1) A               2 (B2) A                  0.5336
     6 (A1) A               3 (B2) A                  0.3732
    ---------------------------------------------------------

  Density matrix analysis:
  ------------------------
  NOs
    Occupation of frontier NOs:
       0.9865   0.9975
    Number of electrons: 18.000000
    Number of unpaired electrons: n_u =  2.41986, n_u,nl =  2.04905
    NO participation ratio (PR_NO):  2.955859
  
  
  Mulliken Population Analysis
  Atom      Charge (e)              h+              e-           Del q
  --------------------------------------------------------------------
   1 C       -0.519939        0.388255       -0.490812       -0.102557
   2 C       -0.785444        0.546515       -0.729879       -0.183364
   3 H        0.068038        0.034048       -0.004100        0.029948
   4 H        0.085556       -0.009306       -0.042638       -0.051943
   5 H        0.068038        0.034048       -0.004100        0.029948
   6 H        0.085556       -0.009306       -0.042638       -0.051943
   7 H       -0.001806        0.457313       -0.127401        0.329912
  --------------------------------------------------------------------
  Sum:       -1.000000        1.441567       -1.441567        0.000000
  
  Multipole moment analysis of the density matrix
    Molecular charge:                      -1.000000
    Number of electrons:                   18.000000
      Center of electronic charge [Ang]: [ -0.000000,  -0.000000,   0.005740]
    Total nuclear charge:                  17.000000
      Center of nuclear charge [Ang]:    [ -0.000000,   0.000000,  -0.000000]
    Dipole moment [D]:                     0.496289
      Cartesian components [D]:          [  0.000000,   0.000000,  -0.496289]
    RMS size of the density [Ang]:         1.771035
      Cartesian components [Ang]:        [  0.791352,   0.992466,   1.235046]
  
  Exciton analysis of the difference density matrix
    <r_h> [Ang]:                  [ -0.000000,   0.000000,  -2.266320]
    <r_e> [Ang]:                  [ -0.000000,  -0.000000,  -0.401665]
    |<r_e - r_h>| [Ang]:            1.864655
    Hole size [Ang]:                2.445268
      Cartesian components [Ang]: [  1.167066,   1.166030,   1.804901]
    Electron size [Ang]:            4.300402
      Cartesian components [Ang]: [  1.902140,   3.176297,   2.187798]

  Transition density matrix analysis:
  -----------------------------------
  
  CT numbers (Mulliken)
    omega =     0.8463
    <Phe> =    -0.0034
  
  Exciton analysis of the transition density matrix
    Trans. dipole moment [D]:             0.581019
      Cartesian components [D]:         [ -0.000000,  -0.581019,  -0.000000]
    <r_h> [Ang]:                        [ -0.000000,   0.000000,  -2.859793]
    <r_e> [Ang]:                        [ -0.000000,  -0.000000,   0.071081]
    |<r_e - r_h>| [Ang]:                  2.930874
    Hole size [Ang]:                      1.728327
      Cartesian components [Ang]:       [  0.971363,   0.974326,   1.046068]
    Electron size [Ang]:                  4.859064
      Cartesian components [Ang]:       [  2.165185,   3.750219,   2.204165]
    RMS electron-hole separation [Ang]:   5.930162
      Cartesian components [Ang]:       [  2.373089,   3.874603,   3.810869]
    Covariance(r_h, r_e) [Ang^2]:         0.010412
    Correlation coefficient:              0.001240
    Center-of-mass size [Ang]:            2.579653
      Cartesian components [Ang]:       [  1.186548,   1.937418,   1.221935]

  Decomposition into state-averaged NTOs
    H- 0 -> L+ 2: -0.5154 ( 53.1%)
    H- 0 -> L+ 3:  0.3354 ( 22.5%)
    H- 0 -> L+ 4:  0.2013 (  8.1%)
                   omega =  84.6%
  ----------------------------------------------------------------------------


  Excited state 2 (singlet, B2)                                    [converged]
  ----------------------------------------------------------------------------
  Term symbol:  2 (1) B2                                    R^2 =  1.29602e-14

  Total energy:                                            -78.7758538151 a.u.
  Excitation energy:                                               1.658767 eV

  Osc. strength:                                                      0.098854
  Trans. dip. moment [a.u.]:           [  -0.000000,   -1.559645,    0.000000]
  <i|r^2|0> [a.u.]:                    [   0.000000,    0.000000,    0.000000]

  Dip. moment [a.u.]:                  [   0.000000,    0.000000,   -0.567689]
  Total dipole [Debye]:                                               1.442921
  <r^2> [a.u.]:                        [  36.522695,   51.905561,  120.249112]
  Total <r^2> [a.u.]:                                               208.677369

  V1^2 = 0.8551, V2^2 = 0.1449

  Important amplitudes:
      occ i      occ j       vir a       vir b          v   
    ---------------------------------------------------------
     6 (A1) A               3 (B2) A                  0.5129
     6 (A1) A               2 (B2) A                 -0.3622
    ---------------------------------------------------------

  Density matrix analysis:
  ------------------------
  NOs
    Occupation of frontier NOs:
       0.9863   0.9951
    Number of electrons: 18.000000
    Number of unpaired electrons: n_u =  2.42338, n_u,nl =  2.04953
    NO participation ratio (PR_NO):  2.972147
  
  
  Mulliken Population Analysis
  Atom      Charge (e)              h+              e-           Del q
  --------------------------------------------------------------------
   1 C       -0.657162        0.338243       -0.578023       -0.239780
   2 C       -0.652575        0.577747       -0.628242       -0.050495
   3 H        0.069988        0.034884       -0.002985        0.031898
   4 H        0.085484       -0.008435       -0.043581       -0.052016
   5 H        0.069988        0.034884       -0.002985        0.031898
   6 H        0.085484       -0.008435       -0.043581       -0.052016
   7 H       -0.001207        0.457884       -0.127374        0.330511
  --------------------------------------------------------------------
  Sum:       -1.000000        1.426772       -1.426772        0.000000
  
  Multipole moment analysis of the density matrix
    Molecular charge:                      -1.000000
    Number of electrons:                   18.000000
      Center of electronic charge [Ang]: [ -0.000000,  -0.000000,   0.016689]
    Total nuclear charge:                  17.000000
      Center of nuclear charge [Ang]:    [ -0.000000,   0.000000,  -0.000000]
    Dipole moment [D]:                     1.442921
      Cartesian components [D]:          [  0.000000,   0.000000,  -1.442921]
    RMS size of the density [Ang]:         1.801706
      Cartesian components [Ang]:        [  0.753783,   0.898611,   1.367645]
  
  Exciton analysis of the difference density matrix
    <r_h> [Ang]:                  [ -0.000000,   0.000000,  -2.305927]
    <r_e> [Ang]:                  [ -0.000000,  -0.000000,  -0.283804]
    |<r_e - r_h>| [Ang]:            2.022123
    Hole size [Ang]:                2.439909
      Cartesian components [Ang]: [  1.170273,   1.176833,   1.788485]
    Electron size [Ang]:            4.493651
      Cartesian components [Ang]: [  1.707833,   2.822329,   3.051338]

  Transition density matrix analysis:
  -----------------------------------
  
  CT numbers (Mulliken)
    omega =     0.8421
    <Phe> =    -0.0098
  
  Exciton analysis of the transition density matrix
    Trans. dipole moment [D]:             1.982111
      Cartesian components [D]:         [ -0.000000,  -1.982111,   0.000000]
    <r_h> [Ang]:                        [ -0.000000,   0.000000,  -2.856061]
    <r_e> [Ang]:                        [ -0.000000,  -0.000000,   0.262290]
    |<r_e - r_h>| [Ang]:                  3.118351
    Hole size [Ang]:                      1.730979
      Cartesian components [Ang]:       [  0.971155,   0.974171,   1.050779]
    Electron size [Ang]:                  5.049850
      Cartesian components [Ang]:       [  1.901318,   3.292236,   3.323726]
    RMS electron-hole separation [Ang]:   6.180681
      Cartesian components [Ang]:       [  2.134965,   3.432724,   4.675377]
    Covariance(r_h, r_e) [Ang^2]:         0.010280
    Correlation coefficient:              0.001176
    Center-of-mass size [Ang]:            2.670104
      Cartesian components [Ang]:       [  1.067501,   1.716979,   1.744100]

  Decomposition into state-averaged NTOs
    H- 0 -> L+ 3: -0.4433 ( 39.3%)
    H- 0 -> L+ 4:  0.3514 ( 24.7%)
    H- 0 -> L+ 5: -0.2554 ( 13.0%)
    H- 0 -> L+ 2: -0.1822 (  6.6%)
                   omega =  84.2%
  ----------------------------------------------------------------------------


  Excited state 3 (singlet, B2)                                    [converged]
  ----------------------------------------------------------------------------
  Term symbol:  3 (1) B2                                    R^2 =  2.99664e-13

  Total energy:                                            -78.7315302402 a.u.
  Excitation energy:                                               2.864873 eV

  Osc. strength:                                                      0.003012
  Trans. dip. moment [a.u.]:           [  -0.000000,   -0.207172,    0.000000]
  <i|r^2|0> [a.u.]:                    [  -0.000000,   -0.000000,    0.000000]

  Dip. moment [a.u.]:                  [   0.000000,   -0.000000,   -0.211609]
  Total dipole [Debye]:                                               0.537856
  <r^2> [a.u.]:                        [  30.055995,   29.790732,   98.785026]
  Total <r^2> [a.u.]:                                               158.631754

  V1^2 = 0.8407, V2^2 = 0.1593

  Important amplitudes:
      occ i      occ j       vir a       vir b          v   
    ---------------------------------------------------------
     6 (A1) A               4 (B2) A                  0.5687
     6 (A1) A               5 (B2) A                 -0.1844
    ---------------------------------------------------------

  Density matrix analysis:
  ------------------------
  NOs
    Occupation of frontier NOs:
       0.9833   0.9865
    Number of electrons: 18.000000
    Number of unpaired electrons: n_u =  2.44217, n_u,nl =  2.05165
    NO participation ratio (PR_NO):  3.052748
  
  
  Mulliken Population Analysis
  Atom      Charge (e)              h+              e-           Del q
  --------------------------------------------------------------------
   1 C       -0.510022        0.312366       -0.405006       -0.092640
   2 C       -0.645071        0.715234       -0.758225       -0.042991
   3 H        0.027001        0.012762       -0.023852       -0.011090
   4 H        0.042629       -0.002412       -0.092459       -0.094871
   5 H        0.027001        0.012762       -0.023852       -0.011090
   6 H        0.042629       -0.002412       -0.092459       -0.094871
   7 H        0.015835        0.446658       -0.099106        0.347552
  --------------------------------------------------------------------
  Sum:       -1.000000        1.494959       -1.494959        0.000000
  
  Multipole moment analysis of the density matrix
    Molecular charge:                      -1.000000
    Number of electrons:                   18.000000
      Center of electronic charge [Ang]: [ -0.000000,   0.000000,   0.006221]
    Total nuclear charge:                  17.000000
      Center of nuclear charge [Ang]:    [ -0.000000,   0.000000,  -0.000000]
    Dipole moment [D]:                     0.537856
      Cartesian components [D]:          [  0.000000,  -0.000000,  -0.537856]
    RMS size of the density [Ang]:         1.570929
      Cartesian components [Ang]:        [  0.683802,   0.680778,   1.239667]
  
  Exciton analysis of the difference density matrix
    <r_h> [Ang]:                  [ -0.000000,   0.000000,  -2.204245]
    <r_e> [Ang]:                  [ -0.000000,   0.000000,  -0.400397]
    |<r_e - r_h>| [Ang]:            1.803848
    Hole size [Ang]:                2.363917
      Cartesian components [Ang]: [  1.138200,   1.175830,   1.705880]
    Electron size [Ang]:            3.082942
      Cartesian components [Ang]: [  1.249309,   1.876323,   2.103133]

  Transition density matrix analysis:
  -----------------------------------
  
  CT numbers (Mulliken)
    omega =     0.8184
    <Phe> =    -0.0046
  
  Exciton analysis of the transition density matrix
    Trans. dipole moment [D]:             0.263289
      Cartesian components [D]:         [ -0.000000,  -0.263289,   0.000000]
    <r_h> [Ang]:                        [ -0.000000,   0.000000,  -2.819036]
    <r_e> [Ang]:                        [ -0.000000,   0.000000,   0.093501]
    |<r_e - r_h>| [Ang]:                  2.912536
    Hole size [Ang]:                      1.747631
      Cartesian components [Ang]:       [  0.962898,   0.964397,   1.094066]
    Electron size [Ang]:                  3.223057
      Cartesian components [Ang]:       [  1.208767,   2.079917,   2.144975]
    RMS electron-hole separation [Ang]:   4.681741
      Cartesian components [Ang]:       [  1.545282,   2.291599,   3.778807]
    Covariance(r_h, r_e) [Ang^2]:         0.003236
    Correlation coefficient:              0.000575
    Center-of-mass size [Ang]:            1.833629
      Cartesian components [Ang]:       [  0.772769,   1.146823,   1.204085]

  Decomposition into state-averaged NTOs
    H- 0 -> L+ 5:  0.3988 ( 31.8%)
    H- 0 -> L+ 3: -0.3051 ( 18.6%)
    H- 0 -> L+ 6: -0.2953 ( 17.4%)
    H- 0 -> L+ 2: -0.2134 (  9.1%)
    H- 0 -> L+ 4: -0.1534 (  4.7%)
                   omega =  81.8%
  ----------------------------------------------------------------------------


  Excited state 4 (singlet, B2)                                    [converged]
  ----------------------------------------------------------------------------
  Term symbol:  4 (1) B2                                    R^2 =  8.61521e-13

  Total energy:                                            -78.6492647623 a.u.
  Excitation energy:                                               5.103430 eV

  Osc. strength:                                                      0.007244
  Trans. dip. moment [a.u.]:           [   0.000000,   -0.240707,    0.000000]
  <i|r^2|0> [a.u.]:                    [  -0.000000,    0.000000,    0.000000]

  Dip. moment [a.u.]:                  [   0.000000,   -0.000000,   -0.285194]
  Total dipole [Debye]:                                               0.724892
  <r^2> [a.u.]:                        [  33.629389,   42.447535,   91.530777]
  Total <r^2> [a.u.]:                                               167.607701

  V1^2 = 0.8526, V2^2 = 0.1474

  Important amplitudes:
      occ i      occ j       vir a       vir b          v   
    ---------------------------------------------------------
     6 (A1) A               5 (B2) A                  0.6171
     6 (A1) A               4 (B2) A                  0.1673
    ---------------------------------------------------------

  Density matrix analysis:
  ------------------------
  NOs
    Occupation of frontier NOs:
       0.9828   0.9850
    Number of electrons: 18.000000
    Number of unpaired electrons: n_u =  2.44796, n_u,nl =  2.06062
    NO participation ratio (PR_NO):  3.069570
  
  
  Mulliken Population Analysis
  Atom      Charge (e)              h+              e-           Del q
  --------------------------------------------------------------------
   1 C       -0.531604        0.372657       -0.486879       -0.114221
   2 C       -0.705252        0.583367       -0.686539       -0.103172
   3 H        0.049411        0.015187       -0.003866        0.011321
   4 H        0.066360       -0.009114       -0.062026       -0.071140
   5 H        0.049411        0.015187       -0.003866        0.011321
   6 H        0.066360       -0.009114       -0.062026       -0.071140
   7 H        0.005313        0.451393       -0.114361        0.337031
  --------------------------------------------------------------------
  Sum:       -1.000000        1.419563       -1.419563        0.000000
  
  Multipole moment analysis of the density matrix
    Molecular charge:                      -1.000000
    Number of electrons:                   18.000000
      Center of electronic charge [Ang]: [ -0.000000,   0.000000,   0.008384]
    Total nuclear charge:                  17.000000
      Center of nuclear charge [Ang]:    [ -0.000000,   0.000000,  -0.000000]
    Dipole moment [D]:                     0.724892
      Cartesian components [D]:          [  0.000000,  -0.000000,  -0.724892]
    RMS size of the density [Ang]:         1.614753
      Cartesian components [Ang]:        [  0.723310,   0.812627,   1.193267]
  
  Exciton analysis of the difference density matrix
    <r_h> [Ang]:                  [ -0.000000,   0.000000,  -2.301713]
    <r_e> [Ang]:                  [ -0.000000,   0.000000,  -0.374628]
    |<r_e - r_h>| [Ang]:            1.927085
    Hole size [Ang]:                2.357592
      Cartesian components [Ang]: [  1.141086,   1.147560,   1.714429]
    Electron size [Ang]:            3.415102
      Cartesian components [Ang]: [  1.512066,   2.462761,   1.819723]

  Transition density matrix analysis:
  -----------------------------------
  
  CT numbers (Mulliken)
    omega =     0.8389
    <Phe> =    -0.0020
  
  Exciton analysis of the transition density matrix
    Trans. dipole moment [D]:             0.305908
      Cartesian components [D]:         [  0.000000,  -0.305908,   0.000000]
    <r_h> [Ang]:                        [ -0.000000,   0.000000,  -2.844218]
    <r_e> [Ang]:                        [ -0.000000,   0.000000,   0.142357]
    |<r_e - r_h>| [Ang]:                  2.986575
    Hole size [Ang]:                      1.735762
      Cartesian components [Ang]:       [  0.967936,   0.970365,   1.065064]
    Electron size [Ang]:                  3.701749
      Cartesian components [Ang]:       [  1.652556,   2.861187,   1.669016]
    RMS electron-hole separation [Ang]:   5.062066
      Cartesian components [Ang]:       [  1.915138,   3.021122,   3.581841]
    Covariance(r_h, r_e) [Ang^2]:         0.005465
    Correlation coefficient:              0.000851
    Center-of-mass size [Ang]:            2.044917
      Cartesian components [Ang]:       [  0.957592,   1.510696,   0.991212]

  Decomposition into state-averaged NTOs
    H- 0 -> L+ 4:  0.4562 ( 41.6%)
    H- 0 -> L+ 5:  0.3760 ( 28.3%)
    H- 0 -> L+ 2:  0.2570 ( 13.2%)
                   omega =  83.9%
  ----------------------------------------------------------------------------


  Excited state 5 (singlet, B2)                                    [converged]
  ----------------------------------------------------------------------------
  Term symbol:  5 (1) B2                                    R^2 =  9.41823e-11

  Total energy:                                            -78.6260644087 a.u.
  Excitation energy:                                               5.734744 eV

  Osc. strength:                                                      0.003151
  Trans. dip. moment [a.u.]:           [   0.000000,   -0.149767,   -0.000000]
  <i|r^2|0> [a.u.]:                    [  -0.000000,   -0.000000,    0.000000]

  Dip. moment [a.u.]:                  [   0.000000,   -0.000000,    2.023729]
  Total dipole [Debye]:                                               5.143808
  <r^2> [a.u.]:                        [  41.333800,   62.245194,  103.398380]
  Total <r^2> [a.u.]:                                               206.977374

  V1^2 = 0.0554, V2^2 = 0.9446

  Important amplitudes:
      occ i      occ j       vir a       vir b          v   
    ---------------------------------------------------------
     6 (A1) A   1 (B2) B    4 (B2) A    3 (B2) B     -0.1683
     6 (A1) A               6 (B2) A                  0.1286
    ---------------------------------------------------------

  Density matrix analysis:
  ------------------------
  NOs
    Occupation of frontier NOs:
       0.9634   1.0095
    Number of electrons: 18.000000
    Number of unpaired electrons: n_u =  4.10124, n_u,nl =  3.95733
    NO participation ratio (PR_NO):  4.934508
  
  
  Mulliken Population Analysis
  Atom      Charge (e)              h+              e-           Del q
  --------------------------------------------------------------------
   1 C        0.191086        0.671901       -0.063433        0.608469
   2 C       -1.843376        0.616980       -1.858277       -1.241296
   3 H        0.040514        0.006649       -0.004226        0.002423
   4 H        0.125647       -0.004032       -0.007821       -0.011853
   5 H        0.040514        0.006649       -0.004226        0.002423
   6 H        0.125647       -0.004032       -0.007821       -0.011853
   7 H        0.319969        0.655257       -0.003570        0.651687
  --------------------------------------------------------------------
  Sum:       -1.000000        1.949372       -1.949372        0.000000
  
  Multipole moment analysis of the density matrix
    Molecular charge:                      -1.000000
    Number of electrons:                   18.000000
      Center of electronic charge [Ang]: [ -0.000000,   0.000000,  -0.059495]
    Total nuclear charge:                  17.000000
      Center of nuclear charge [Ang]:    [ -0.000000,   0.000000,  -0.000000]
    Dipole moment [D]:                     5.143806
      Cartesian components [D]:          [  0.000000,  -0.000000,   5.143806]
    RMS size of the density [Ang]:         1.793443
      Cartesian components [Ang]:        [  0.801895,   0.984051,   1.266903]
  
  Exciton analysis of the difference density matrix
    <r_h> [Ang]:                  [ -0.000000,   0.000000,  -1.345905]
    <r_e> [Ang]:                  [ -0.000000,   0.000000,  -0.569353]
    |<r_e - r_h>| [Ang]:            0.776552
    Hole size [Ang]:                2.154091
      Cartesian components [Ang]: [  0.757868,   0.907012,   1.800853]
    Electron size [Ang]:            3.531658
      Cartesian components [Ang]: [  1.548504,   2.669157,   1.717657]

  Transition density matrix analysis:
  -----------------------------------
  
  CT numbers (Mulliken)
    omega =     0.0547
    <Phe> =    -0.0118
  
  Exciton analysis of the transition density matrix
    Trans. dipole moment [D]:             0.190335
      Cartesian components [D]:         [  0.000000,  -0.190335,  -0.000000]
    <r_h> [Ang]:                        [ -0.000000,   0.000000,  -2.785337]
    <r_e> [Ang]:                        [ -0.000000,  -0.000000,   0.097533]
    |<r_e - r_h>| [Ang]:                  2.882870
    Hole size [Ang]:                      1.777328
      Cartesian components [Ang]:       [  0.962352,   0.969314,   1.137192]
    Electron size [Ang]:                  3.975766
      Cartesian components [Ang]:       [  1.504718,   2.580497,   2.623657]
    RMS electron-hole separation [Ang]:   5.206074
      Cartesian components [Ang]:       [  1.786074,   2.755716,   4.039699]
    Covariance(r_h, r_e) [Ang^2]:         0.086673
    Correlation coefficient:              0.012266
    Center-of-mass size [Ang]:            2.187405
      Cartesian components [Ang]:       [  0.893104,   1.378685,   1.444414]

  Decomposition into state-averaged NTOs
    H- 0 -> L+ 6: -0.1020 (  2.1%)
    H- 0 -> L+ 5: -0.0873 (  1.5%)
                   omega =   5.5%
  ----------------------------------------------------------------------------


  Excited state 6 (singlet, B2)                                    [converged]
  ----------------------------------------------------------------------------
  Term symbol:  6 (1) B2                                    R^2 =  1.57857e-10

  Total energy:                                            -78.6134858739 a.u.
  Excitation energy:                                               6.077023 eV

  Osc. strength:                                                      0.000882
  Trans. dip. moment [a.u.]:           [   0.000000,    0.076962,    0.000000]
  <i|r^2|0> [a.u.]:                    [   0.000000,   -0.000000,   -0.000000]

  Dip. moment [a.u.]:                  [   0.000000,   -0.000000,   -3.055226]
  Total dipole [Debye]:                                               7.765611
  <r^2> [a.u.]:                        [  39.694888,   56.780473,  125.570557]
  Total <r^2> [a.u.]:                                               222.045917

  V1^2 = 0.0221, V2^2 = 0.9779

  Important amplitudes:
      occ i      occ j       vir a       vir b          v   
    ---------------------------------------------------------
     6 (A1) A   1 (B2) B    4 (B2) A    2 (B2) B      0.1711
     6 (A1) A   1 (B2) B    4 (B2) A    3 (B2) B     -0.1252
    ---------------------------------------------------------

  Density matrix analysis:
  ------------------------
  NOs
    Occupation of frontier NOs:
       0.9587   0.9824
    Number of electrons: 18.000000
    Number of unpaired electrons: n_u =  3.68250, n_u,nl =  3.63887
    NO participation ratio (PR_NO):  4.811361
  
  
  Mulliken Population Analysis
  Atom      Charge (e)              h+              e-           Del q
  --------------------------------------------------------------------
   1 C       -1.496744        0.681447       -1.760809       -1.079362
   2 C       -0.176124        0.627235       -0.201279        0.425956
   3 H        0.043271        0.008411       -0.003230        0.005181
   4 H        0.129418       -0.002446       -0.005635       -0.008081
   5 H        0.043271        0.008411       -0.003230        0.005181
   6 H        0.129418       -0.002446       -0.005635       -0.008081
   7 H        0.327489        0.660392       -0.001186        0.659207
  --------------------------------------------------------------------
  Sum:       -1.000000        1.981004       -1.981004        0.000000
  
  Multipole moment analysis of the density matrix
    Molecular charge:                      -1.000000
    Number of electrons:                   18.000000
      Center of electronic charge [Ang]: [ -0.000000,   0.000000,   0.089820]
    Total nuclear charge:                  17.000000
      Center of nuclear charge [Ang]:    [ -0.000000,   0.000000,  -0.000000]
    Dipole moment [D]:                     7.765609
      Cartesian components [D]:          [  0.000000,  -0.000000,  -7.765609]
    RMS size of the density [Ang]:         1.856430
      Cartesian components [Ang]:        [  0.785836,   0.939863,   1.394794]
  
  Exciton analysis of the difference density matrix
    <r_h> [Ang]:                  [  0.000000,   0.000000,  -1.288045]
    <r_e> [Ang]:                  [ -0.000000,  -0.000000,   0.832826]
    |<r_e - r_h>| [Ang]:            2.120872
    Hole size [Ang]:                2.138052
      Cartesian components [Ang]: [  0.738690,   0.893666,   1.796375]
    Electron size [Ang]:            3.729699
      Cartesian components [Ang]: [  1.452025,   2.495449,   2.361147]

  Transition density matrix analysis:
  -----------------------------------
  
  CT numbers (Mulliken)
    omega =     0.0217
    <Phe> =    -0.0033
  
  Exciton analysis of the transition density matrix
    Trans. dipole moment [D]:             0.097809
      Cartesian components [D]:         [  0.000000,   0.097809,   0.000000]
    <r_h> [Ang]:                        [ -0.000000,   0.000000,  -0.959209]
    <r_e> [Ang]:                        [ -0.000000,  -0.000000,   1.904530]
    |<r_e - r_h>| [Ang]:                  2.863738
    Hole size [Ang]:                      2.108044
      Cartesian components [Ang]:       [  0.726060,   0.910764,   1.757042]
    Electron size [Ang]:                  3.843075
      Cartesian components [Ang]:       [  1.730788,   2.159603,   2.666405]
    RMS electron-hole separation [Ang]:   4.914987
      Cartesian components [Ang]:       [  1.876631,   2.312934,   3.909692]
    Covariance(r_h, r_e) [Ang^2]:         1.628488
    Correlation coefficient:              0.201014
    Center-of-mass size [Ang]:            2.370129
      Cartesian components [Ang]:       [  0.938594,   1.187128,   1.824084]

  Decomposition into state-averaged NTOs
                   omega =   2.2%
  ----------------------------------------------------------------------------


  Excited state 7 (singlet, B2)                                    [converged]
  ----------------------------------------------------------------------------
  Term symbol:  7 (1) B2                                    R^2 =  2.70512e-11

  Total energy:                                            -78.6105892545 a.u.
  Excitation energy:                                               6.155844 eV

  Osc. strength:                                                      0.027225
  Trans. dip. moment [a.u.]:           [  -0.000000,   -0.424875,   -0.000000]
  <i|r^2|0> [a.u.]:                    [   0.000000,    0.000000,   -0.000000]

  Dip. moment [a.u.]:                  [   0.000000,   -0.000000,   -0.476967]
  Total dipole [Debye]:                                               1.212331
  <r^2> [a.u.]:                        [  37.713769,   27.261775,  154.741198]
  Total <r^2> [a.u.]:                                               219.716742

  V1^2 = 0.9165, V2^2 = 0.0835

  Important amplitudes:
      occ i      occ j       vir a       vir b          v   
    ---------------------------------------------------------
     1 (B2) A               7 (A1) A                  0.5850
     1 (B2) A               9 (A1) A                  0.2975
    ---------------------------------------------------------

  Density matrix analysis:
  ------------------------
  NOs
    Occupation of frontier NOs:
       0.9792   0.9850
    Number of electrons: 18.000000
    Number of unpaired electrons: n_u =  2.41405, n_u,nl =  2.04384
    NO participation ratio (PR_NO):  3.002762
  
  
  Mulliken Population Analysis
  Atom      Charge (e)              h+              e-           Del q
  --------------------------------------------------------------------
   1 C       -2.105494        0.471891       -2.160002       -1.688111
   2 C        0.690519        0.623632        0.668967        1.292599
   3 H        0.172103        0.121725        0.012287        0.134012
   4 H        0.205999        0.070672       -0.002173        0.068500
   5 H        0.172103        0.121725        0.012287        0.134012
   6 H        0.205999        0.070672       -0.002173        0.068500
   7 H       -0.341230        0.047282       -0.056794       -0.009512
  --------------------------------------------------------------------
  Sum:       -1.000000        1.527600       -1.527600       -0.000000
  
  Multipole moment analysis of the density matrix
    Molecular charge:                      -1.000000
    Number of electrons:                   18.000000
      Center of electronic charge [Ang]: [ -0.000000,   0.000000,   0.014022]
    Total nuclear charge:                  17.000000
      Center of nuclear charge [Ang]:    [ -0.000000,   0.000000,  -0.000000]
    Dipole moment [D]:                     1.212330
      Cartesian components [D]:          [  0.000000,  -0.000000,  -1.212330]
    RMS size of the density [Ang]:         1.848775
      Cartesian components [Ang]:        [  0.765975,   0.651241,   1.551494]
  
  Exciton analysis of the difference density matrix
    <r_h> [Ang]:                  [ -0.000000,  -0.000000,  -0.006618]
    <r_e> [Ang]:                  [ -0.000000,   0.000000,   1.850610]
    |<r_e - r_h>| [Ang]:            1.857227
    Hole size [Ang]:                2.140293
      Cartesian components [Ang]: [  0.949449,   1.004710,   1.634001]
    Electron size [Ang]:            3.404197
      Cartesian components [Ang]: [  1.601508,   1.624248,   2.526964]

  Transition density matrix analysis:
  -----------------------------------
  
  CT numbers (Mulliken)
    omega =     0.8868
    <Phe> =    -0.0035
  
  Exciton analysis of the transition density matrix
    Trans. dipole moment [D]:             0.539963
      Cartesian components [D]:         [ -0.000000,  -0.539963,  -0.000000]
    <r_h> [Ang]:                        [ -0.000000,  -0.000000,   0.268901]
    <r_e> [Ang]:                        [ -0.000000,   0.000000,   3.060690]
    |<r_e - r_h>| [Ang]:                  2.791788
    Hole size [Ang]:                      1.288409
      Cartesian components [Ang]:       [  0.523505,   0.885281,   0.776027]
    Electron size [Ang]:                  3.323188
      Cartesian components [Ang]:       [  1.860726,   1.889311,   2.002943]
    RMS electron-hole separation [Ang]:   4.520738
      Cartesian components [Ang]:       [  1.932600,   2.081214,   3.517198]
    Covariance(r_h, r_e) [Ang^2]:         0.030293
    Correlation coefficient:              0.007075
    Center-of-mass size [Ang]:            1.786348
      Cartesian components [Ang]:       [  0.966666,   1.045824,   1.078355]

  Decomposition into state-averaged NTOs
    H- 1 -> L+ 0:  0.6079 ( 73.9%)
    H- 1 -> L+ 1:  0.2694 ( 14.5%)
                   omega =  88.7%
  ----------------------------------------------------------------------------


  Excited state 8 (singlet, B2)                                    [converged]
  ----------------------------------------------------------------------------
  Term symbol:  8 (1) B2                                    R^2 =  4.30681e-10

  Total energy:                                            -78.5906981539 a.u.
  Excitation energy:                                               6.697109 eV

  Osc. strength:                                                      0.027753
  Trans. dip. moment [a.u.]:           [  -0.000000,   -0.411274,   -0.000000]
  <i|r^2|0> [a.u.]:                    [  -0.000000,   -0.000000,    0.000000]

  Dip. moment [a.u.]:                  [   0.000000,    0.000000,   -0.307414]
  Total dipole [Debye]:                                               0.781369
  <r^2> [a.u.]:                        [  32.180036,   35.826818,  102.314741]
  Total <r^2> [a.u.]:                                               170.321595

  V1^2 = 0.7678, V2^2 = 0.2322

  Important amplitudes:
      occ i      occ j       vir a       vir b          v   
    ---------------------------------------------------------
     6 (A1) A               6 (B2) A                  0.5788
     6 (A1) A               4 (B2) A                 -0.1760
    ---------------------------------------------------------

  Density matrix analysis:
  ------------------------
  NOs
    Occupation of frontier NOs:
       0.8743   0.9922
    Number of electrons: 18.000000
    Number of unpaired electrons: n_u =  2.67534, n_u,nl =  2.19406
    NO participation ratio (PR_NO):  3.947471
  
  
  Mulliken Population Analysis
  Atom      Charge (e)              h+              e-           Del q
  --------------------------------------------------------------------
   1 C       -0.507968        0.416251       -0.506837       -0.090585
   2 C       -0.722061        0.583865       -0.703847       -0.119981
   3 H        0.035916        0.007252       -0.009426       -0.002175
   4 H        0.060652       -0.008084       -0.068763       -0.076848
   5 H        0.035916        0.007252       -0.009426       -0.002175
   6 H        0.060652       -0.008084       -0.068763       -0.076848
   7 H        0.036893        0.456505       -0.087895        0.368611
  --------------------------------------------------------------------
  Sum:       -1.000000        1.454957       -1.454957        0.000000
  
  Multipole moment analysis of the density matrix
    Molecular charge:                      -1.000000
    Number of electrons:                   18.000000
      Center of electronic charge [Ang]: [ -0.000000,  -0.000000,   0.009038]
    Total nuclear charge:                  17.000000
      Center of nuclear charge [Ang]:    [ -0.000000,   0.000000,  -0.000000]
    Dipole moment [D]:                     0.781368
      Cartesian components [D]:          [  0.000000,   0.000000,  -0.781368]
    RMS size of the density [Ang]:         1.627770
      Cartesian components [Ang]:        [  0.707552,   0.746567,   1.261603]
  
  Exciton analysis of the difference density matrix
    <r_h> [Ang]:                  [ -0.000000,   0.000000,  -2.127677]
    <r_e> [Ang]:                  [ -0.000000,  -0.000000,  -0.239390]
    |<r_e - r_h>| [Ang]:            1.888287
    Hole size [Ang]:                2.428849
      Cartesian components [Ang]: [  1.118964,   1.209599,   1.784405]
    Electron size [Ang]:            3.437361
      Cartesian components [Ang]: [  1.390486,   2.195827,   2.249520]

  Transition density matrix analysis:
  -----------------------------------
  
  CT numbers (Mulliken)
    omega =     0.7524
    <Phe> =    -0.0065
  
  Exciton analysis of the transition density matrix
    Trans. dipole moment [D]:             0.522677
      Cartesian components [D]:         [ -0.000000,  -0.522677,  -0.000000]
    <r_h> [Ang]:                        [ -0.000000,   0.000000,  -2.736912]
    <r_e> [Ang]:                        [ -0.000000,  -0.000000,   0.240854]
    |<r_e - r_h>| [Ang]:                  2.977766
    Hole size [Ang]:                      1.811830
      Cartesian components [Ang]:       [  0.955348,   0.964825,   1.199646]
    Electron size [Ang]:                  3.534299
      Cartesian components [Ang]:       [  1.347681,   2.284399,   2.335926]
    RMS electron-hole separation [Ang]:   4.942956
      Cartesian components [Ang]:       [  1.651834,   2.478793,   3.944597]
    Covariance(r_h, r_e) [Ang^2]:         0.104140
    Correlation coefficient:              0.016263
    Center-of-mass size [Ang]:            1.998892
      Cartesian components [Ang]:       [  0.826031,   1.240395,   1.332164]

  Decomposition into state-averaged NTOs
    H- 0 -> L+ 6: -0.5305 ( 56.3%)
    H- 0 -> L+ 5: -0.1922 (  7.4%)
    H- 0 -> L+ 4:  0.1391 (  3.9%)
    H- 0 -> L+ 3:  0.1251 (  3.1%)
    H- 0 -> L+ 2:  0.1040 (  2.2%)
    H- 1 -> L+ 1:  0.1000 (  2.0%)
                   omega =  75.2%
  ----------------------------------------------------------------------------


  Excited state 9 (singlet, B2)                                    [converged]
  ----------------------------------------------------------------------------
  Term symbol:  9 (1) B2                                    R^2 =  4.56028e-10

  Total energy:                                            -78.5767517121 a.u.
  Excitation energy:                                               7.076611 eV

  Osc. strength:                                                      0.148429
  Trans. dip. moment [a.u.]:           [   0.000000,   -0.925268,    0.000000]
  <i|r^2|0> [a.u.]:                    [  -0.000000,   -0.000000,    0.000000]

  Dip. moment [a.u.]:                  [   0.000000,   -0.000000,    3.013501]
  Total dipole [Debye]:                                               7.659556
  <r^2> [a.u.]:                        [  39.929846,   28.694435,  134.672259]
  Total <r^2> [a.u.]:                                               203.296540

  V1^2 = 0.9230, V2^2 = 0.0770

  Important amplitudes:
      occ i      occ j       vir a       vir b          v   
    ---------------------------------------------------------
     1 (B2) A               8 (A1) A                  0.4183
     1 (B2) A               9 (A1) A                  0.3447
    ---------------------------------------------------------

  Density matrix analysis:
  ------------------------
  NOs
    Occupation of frontier NOs:
       0.9614   0.9964
    Number of electrons: 18.000000
    Number of unpaired electrons: n_u =  2.43884, n_u,nl =  2.04843
    NO participation ratio (PR_NO):  3.081040
  
  
  Mulliken Population Analysis
  Atom      Charge (e)              h+              e-           Del q
  --------------------------------------------------------------------
   1 C       -0.470896        0.539484       -0.592998       -0.053514
   2 C       -0.833525        0.543064       -0.774508       -0.231445
   3 H        0.120468        0.089767       -0.007390        0.082377
   4 H        0.203375        0.074817       -0.008942        0.065875
   5 H        0.120468        0.089767       -0.007390        0.082377
   6 H        0.203375        0.074817       -0.008942        0.065875
   7 H       -0.343265        0.038664       -0.050211       -0.011547
  --------------------------------------------------------------------
  Sum:       -1.000000        1.450380       -1.450380        0.000000
  
  Multipole moment analysis of the density matrix
    Molecular charge:                      -1.000000
    Number of electrons:                   18.000000
      Center of electronic charge [Ang]: [ -0.000000,   0.000000,  -0.088593]
    Total nuclear charge:                  17.000000
      Center of nuclear charge [Ang]:    [ -0.000000,   0.000000,  -0.000000]
    Dipole moment [D]:                     7.659554
      Cartesian components [D]:          [  0.000000,  -0.000000,   7.659554]
    RMS size of the density [Ang]:         1.776194
      Cartesian components [Ang]:        [  0.788159,   0.668134,   1.444737]
  
  Exciton analysis of the difference density matrix
    <r_h> [Ang]:                  [ -0.000000,  -0.000000,  -0.041429]
    <r_e> [Ang]:                  [ -0.000000,  -0.000000,   0.641167]
    |<r_e - r_h>| [Ang]:            0.682596
    Hole size [Ang]:                2.070340
      Cartesian components [Ang]: [  0.928846,   1.017692,   1.545269]
    Electron size [Ang]:            3.419720
      Cartesian components [Ang]: [  1.744291,   1.740045,   2.371534]

  Transition density matrix analysis:
  -----------------------------------
  
  CT numbers (Mulliken)
    omega =     0.8936
    <Phe> =    -0.0139
  
  Exciton analysis of the transition density matrix
    Trans. dipole moment [D]:             1.175898
      Cartesian components [D]:         [  0.000000,  -1.175898,   0.000000]
    <r_h> [Ang]:                        [ -0.000000,  -0.000000,   0.217600]
    <r_e> [Ang]:                        [ -0.000000,  -0.000000,   1.076825]
    |<r_e - r_h>| [Ang]:                  0.859225
    Hole size [Ang]:                      1.345818
      Cartesian components [Ang]:       [  0.532061,   0.886155,   0.861897]
    Electron size [Ang]:                  3.779955
      Cartesian components [Ang]:       [  2.004857,   2.002303,   2.501878]
    RMS electron-hole separation [Ang]:   4.082133
      Cartesian components [Ang]:       [  2.073578,   2.181505,   2.757737]
    Covariance(r_h, r_e) [Ang^2]:         0.086875
    Correlation coefficient:              0.017077
    Center-of-mass size [Ang]:            2.016993
      Cartesian components [Ang]:       [  1.037467,   1.098864,   1.335821]

  Decomposition into state-averaged NTOs
    H- 1 -> L+ 1: -0.6032 ( 72.8%)
    H- 1 -> L+ 0:  0.2743 ( 15.0%)
    H- 0 -> L+ 6: -0.0715 (  1.0%)
                   omega =  89.4%
  ----------------------------------------------------------------------------


  Excited state 10 (singlet, B2)                                    [converged]
  ----------------------------------------------------------------------------
  Term symbol:  10 (1) B2                                   R^2 =  6.20563e-06

  Total energy:                                            -78.5396098102 a.u.
  Excitation energy:                                               8.087293 eV

  Osc. strength:                                                      0.000000
  Trans. dip. moment [a.u.]:           [   0.000000,    0.001129,    0.000000]
  <i|r^2|0> [a.u.]:                    [   0.000000,    0.000000,   -0.000000]

  Dip. moment [a.u.]:                  [   0.000000,   -0.000000,    0.153383]
  Total dipole [Debye]:                                               0.389862
  <r^2> [a.u.]:                        [  33.185997,   36.701791,  107.370568]
  Total <r^2> [a.u.]:                                               177.258356

  V1^2 = 0.0166, V2^2 = 0.9834

  Important amplitudes:
      occ i      occ j       vir a       vir b          v   
    ---------------------------------------------------------
     6 (A1) A   1 (B2) B    4 (B2) A    4 (B2) B      0.2613
     6 (A1) A   1 (B2) B    6 (B2) A    4 (B2) B      0.1061
    ---------------------------------------------------------

  Density matrix analysis:
  ------------------------
  NOs
    Occupation of frontier NOs:
       0.9708   0.9735
    Number of electrons: 18.000000
    Number of unpaired electrons: n_u =  2.79996, n_u,nl =  2.34287
    NO participation ratio (PR_NO):  3.924936
  
  
  Mulliken Population Analysis
  Atom      Charge (e)              h+              e-           Del q
  --------------------------------------------------------------------
   1 C       -0.505494        0.656941       -0.745052       -0.088111
   2 C       -1.154371        0.655186       -1.207477       -0.552291
   3 H        0.039187        0.008584       -0.007487        0.001097
   4 H        0.129294        0.000618       -0.008823       -0.008205
   5 H        0.039187        0.008584       -0.007487        0.001097
   6 H        0.129294        0.000618       -0.008823       -0.008205
   7 H        0.322901        0.658915       -0.004296        0.654619
  --------------------------------------------------------------------
  Sum:       -1.000000        1.989445       -1.989445        0.000000
  
  Multipole moment analysis of the density matrix
    Molecular charge:                      -1.000000
    Number of electrons:                   18.000000
      Center of electronic charge [Ang]: [ -0.000000,   0.000000,  -0.004509]
    Total nuclear charge:                  17.000000
      Center of nuclear charge [Ang]:    [ -0.000000,   0.000000,  -0.000000]
    Dipole moment [D]:                     0.389862
      Cartesian components [D]:          [  0.000000,  -0.000000,   0.389862]
    RMS size of the density [Ang]:         1.660606
      Cartesian components [Ang]:        [  0.718526,   0.755629,   1.292424]
  
  Exciton analysis of the difference density matrix
    <r_h> [Ang]:                  [  0.000000,   0.000000,  -1.292160]
    <r_e> [Ang]:                  [ -0.000000,   0.000000,  -0.033752]
    |<r_e - r_h>| [Ang]:            1.258408
    Hole size [Ang]:                2.137232
      Cartesian components [Ang]: [  0.742536,   0.893846,   1.793723]
    Electron size [Ang]:            2.875854
      Cartesian components [Ang]: [  1.091453,   1.838026,   1.923779]

  Transition density matrix analysis:
  -----------------------------------
  
  CT numbers (Mulliken)
    omega =     0.0182
    <Phe> =     0.0146
  
  Exciton analysis of the transition density matrix
    Trans. dipole moment [D]:             0.001435
      Cartesian components [D]:         [  0.000000,   0.001435,   0.000000]
    <r_h> [Ang]:                        [ -0.000000,   0.000000,  -0.490013]
    <r_e> [Ang]:                        [ -0.000000,  -0.000000,   0.083400]
    |<r_e - r_h>| [Ang]:                  0.573414
    Hole size [Ang]:                      1.922982
      Cartesian components [Ang]:       [  0.655778,   0.867277,   1.586079]
    Electron size [Ang]:                  4.272254
      Cartesian components [Ang]:       [  1.855398,   2.021752,   3.274472]
    RMS electron-hole separation [Ang]:   4.787456
      Cartesian components [Ang]:       [  1.967631,   2.178845,   3.781640]
    Covariance(r_h, r_e) [Ang^2]:        -0.320462
    Correlation coefficient:             -0.039007
    Center-of-mass size [Ang]:            2.308088
      Cartesian components [Ang]:       [  0.984064,   1.110398,   1.768024]

  Decomposition into state-averaged NTOs
    H- 1 -> L+ 7:  0.0740 (  1.1%)
                   omega =   1.8%
  ----------------------------------------------------------------------------


--------------------------------------------------------------------------------
  Time of ADC calculation:  CPU 574.05 s  wall 140.88 s
================================================================================
 
 --------------------------------------------------------------
             Orbital Energies (a.u.) and Symmetries
 --------------------------------------------------------------
 
 Alpha MOs, Restricted
 -- Occupied --                  
-11.076 -11.072  -0.883  -0.621  -0.502  -0.406  -0.354  -0.220
  1 A1    2 A1    3 A1    4 A1    1 B1    5 A1    2 B1    1 B2                 
 -0.036
  6 A1                                                                         
 -- Virtual --                   
  0.129   0.131   0.136   0.169   0.175   0.198   0.225   0.274
  7 A1    3 B1    2 B2    4 B1    3 B2    8 A1    9 A1    4 B2                 
  0.287   0.304   0.324   0.327   0.390   0.412   0.421   0.441
  5 B1   10 A1    6 B1    5 B2   11 A1   12 A1    6 B2   13 A1                 
  0.487   0.505   0.623   0.693   0.865   0.935   1.014   1.032
  7 B1   14 A1    8 B1   15 A1   16 A1    9 B1   17 A1    7 B2                 
  1.049   1.090   1.096   1.141   1.179   1.200   1.209   1.272
 10 B1   18 A1    8 B2   19 A1   20 A1   21 A1   11 B1    1 A2                 
  1.444   1.445   1.502   1.510   1.753   1.761   1.836   1.878
  9 B2    2 A2   12 B1   22 A1   23 A1   13 B1   14 B1   10 B2                 
  1.952   2.009   2.035   2.101   2.157   2.176   2.206   2.285
 15 B1   11 B2   24 A1   12 B2   25 A1    3 A2   16 B1   26 A1                 
  2.334   2.476   2.572   2.602   2.715   2.734   2.962   2.967
 13 B2   27 A1    4 A2   28 A1   17 B1   29 A1   30 A1   18 B1                 
  3.425   3.505
 31 A1   19 B1                                                                 
 
 Beta MOs, Restricted
 -- Occupied --                  
-11.076 -11.072  -0.883  -0.621  -0.502  -0.406  -0.354  -0.220
  1 A1    2 A1    3 A1    4 A1    1 B1    5 A1    2 B1    1 B2                 
 -0.036
  6 A1                                                                         
 -- Virtual --                   
  0.129   0.131   0.136   0.169   0.175   0.198   0.225   0.274
  7 A1    3 B1    2 B2    4 B1    3 B2    8 A1    9 A1    4 B2                 
  0.287   0.304   0.324   0.327   0.390   0.412   0.421   0.441
  5 B1   10 A1    6 B1    5 B2   11 A1   12 A1    6 B2   13 A1                 
  0.487   0.505   0.623   0.693   0.865   0.935   1.014   1.032
  7 B1   14 A1    8 B1   15 A1   16 A1    9 B1   17 A1    7 B2                 
  1.049   1.090   1.096   1.141   1.179   1.200   1.209   1.272
 10 B1   18 A1    8 B2   19 A1   20 A1   21 A1   11 B1    1 A2                 
  1.444   1.445   1.502   1.510   1.753   1.761   1.836   1.878
  9 B2    2 A2   12 B1   22 A1   23 A1   13 B1   14 B1   10 B2                 
  1.952   2.009   2.035   2.101   2.157   2.176   2.206   2.285
 15 B1   11 B2   24 A1   12 B2   25 A1    3 A2   16 B1   26 A1                 
  2.334   2.476   2.572   2.602   2.715   2.734   2.962   2.967
 13 B2   27 A1    4 A2   28 A1   17 B1   29 A1   30 A1   18 B1                 
  3.425   3.505
 31 A1   19 B1                                                                 
 --------------------------------------------------------------
 
          Ground-State Mulliken Net Atomic Charges

     Atom                 Charge (a.u.)
  ----------------------------------------
      1 C                    -0.492674
      2 C                    -0.469526
      3 H                     0.031597
      4 H                     0.132926
      5 H                     0.031597
      6 H                     0.132926
      7 H                    -0.366846
  ----------------------------------------
  Sum of atomic charges =    -1.000000

 -----------------------------------------------------------------
                    Cartesian Multipole Moments
 -----------------------------------------------------------------
    Charge (ESU x 10^10)
                -4.8032
    Dipole Moment (Debye)
         X      -0.0000      Y       0.0000      Z      12.4210
       Tot      12.4210
    Quadrupole Moments (Debye-Ang)
        XX     -20.0835     XY       0.0000     YY     -24.3571
        XZ      -0.0000     YZ       0.0000     ZZ     -63.0830
    Octopole Moments (Debye-Ang^2)
       XXX      -0.0000    XXY      -0.0000    XYY      -0.0000
       YYY      -0.0000    XXZ      17.6536    XYZ       0.0000
       YYZ      17.5936    XZZ      -0.0000    YZZ      -0.0000
       ZZZ     169.7226
    Hexadecapole Moments (Debye-Ang^3)
      XXXX     -69.7642   XXXY       0.0000   XXYY     -23.3212
      XYYY       0.0000   YYYY     -65.1857   XXXZ      -0.0000
      XXYZ       0.0000   XYYZ      -0.0000   YYYZ       0.0000
      XXZZ     -93.5112   XYZZ       0.0000   YYZZ     -96.6603
      XZZZ      -0.0000   YZZZ       0.0000   ZZZZ    -801.1502
 -----------------------------------------------------------------
 Total job time:  223.98s(wall), 620.28s(cpu) 
 Sun Mar 27 11:37:07 2022

        *************************************************************
        *                                                           *
        *  Thank you very much for using Q-Chem.  Have a nice day.  *
        *                                                           *
        *************************************************************


