/src/tsommerfeld/qchem/exe/qcprog.exe .input0.722222.29047.qcin.1 /src/jdavis/qchem.scratch/qchem29047/

                  Welcome to Q-Chem
     A Quantum Leap Into The Future Of Chemistry


 Q-Chem 5.4 (devel), Q-Chem, Inc., Pleasanton, CA (2021)

 E. Epifanovsky,  A. T. B. Gilbert,  Xintian Feng,  Joonho Lee,  Yuezhi Mao,  
 N. Mardirossian,  P. Pokhilko,  A. White,  M. Wormit,  M. P. Coons,  
 A. L. Dempwolff,  Zhengting Gan,  D. Hait,  P. R. Horn,  L. D. Jacobson,  
 I. Kaliman,  J. Kussmann,  A. W. Lange,  Ka Un Lao,  D. S. Levine,  Jie Liu,  
 S. C. McKenzie,  A. F. Morrison,  K. Nanda,  F. Plasser,  D. R. Rehn,  
 M. L. Vidal,  Zhi-Qiang You,  Ying Zhu,  B. Alam,  B. Albrecht,  
 A. Aldossary,  E. Alguire,  J. H. Andersen,  D. Barton,  K. Begam,  A. Behn,  
 Y. A. Bernard,  E. J. Berquist,  H. Burton,  A. Carreras,  K. Carter-Fenk,  
 R. Chakraborty,  A. D. Chien,  K. D. Closser,  V. Cofer-Shabica,  
 S. Dasgupta,  Jia Deng,  M. de Wergifosse,  M. Diedenhofen,  Hainam Do,  
 S. Ehlert,  Po-Tung Fang,  S. Fatehi,  Qingguo Feng,  T. Friedhoff,  
 J. Gayvert,  Qinghui Ge,  G. Gidofalvi,  M. Goldey,  J. Gomes,  
 C. Gonzalez-Espinoza,  S. Gulania,  A. Gunina,  M. W. D. Hanson-Heine,  
 P. H. P. Harbach,  A. W. Hauser,  M. F. Herbst,  M. Hernandez Vera,  
 M. Hodecker,  Z. C. Holden,  S. Houck,  Xunkun Huang,  Kerwin Hui,  
 B. C. Huynh,  M. Ivanov,  Hyunjun Ji,  Hanjie Jiang,  B. Kaduk,  S. Kaehler,  
 K. Khistyaev,  Jaehoon Kim,  P. Klunzinger,  Z. Koczor-Benda,  
 Joong Hoon Koh,  D. Kosenkov,  L. Koulias,  T. Kowalczyk,  C. M. Krauter,  
 K. Kue,  A. Kunitsa,  T. Kus,  A. Landau,  K. V. Lawler,  D. Lefrancois,  
 S. Lehtola,  Rain Li,  Yi-Pei Li,  Jiashu Liang,  M. Liebenthal,  
 Hung-Hsuan Lin,  You-Sheng Lin,  Fenglai Liu,  Kuan-Yu Liu,  
 M. Loipersberger,  A. Luenser,  A. Manjanath,  P. Manohar,  E. Mansoor,  
 S. F. Manzer,  Shan-Ping Mao,  A. V. Marenich,  T. Markovich,  S. Mason,  
 S. A. Maurer,  P. F. McLaughlin,  M. F. S. J. Menger,  J.-M. Mewes,  
 S. A. Mewes,  P. Morgante,  J. W. Mullinax,  K. J. Oosterbaan,  G. Paran,  
 Alexander C. Paul,  Suranjan K. Paul,  F. Pavosevic,  Zheng Pei,  S. Prager,  
 E. I. Proynov,  E. Ramos,  B. Rana,  A. E. Rask,  A. Rettig,  R. M. Richard,  
 F. Rob,  E. Rossomme,  T. Scheele,  M. Scheurer,  M. Schneider,  
 N. Sergueev,  S. M. Sharada,  W. Skomorowski,  D. W. Small,  C. J. Stein,  
 Yu-Chuan Su,  E. J. Sundstrom,  Zhen Tao,  J. Thirman,  T. Tsuchimochi,  
 N. M. Tubman,  S. P. Veccham,  O. Vydrov,  J. Wenzel,  J. Witte,  A. Yamada,  
 Kun Yao,  S. Yeganeh,  S. R. Yost,  A. Zech,  Igor Ying Zhang,  Xing Zhang,  
 Yu Zhang,  D. Zuev,  A. Aspuru-Guzik,  A. T. Bell,  N. A. Besley,  
 K. B. Bravaya,  B. R. Brooks,  D. Casanova,  Jeng-Da Chai,  S. Coriani,  
 C. J. Cramer,  A. E. DePrince, III,  R. A. DiStasio Jr.,  A. Dreuw,  
 B. D. Dunietz,  T. R. Furlani,  W. A. Goddard III,  S. Grimme,  
 S. Hammes-Schiffer,  T. Head-Gordon,  W. J. Hehre,  Chao-Ping Hsu,  
 T.-C. Jagau,  Yousung Jung,  A. Klamt,  Jing Kong,  D. S. Lambrecht,  
 WanZhen Liang,  N. J. Mayhall,  C. W. McCurdy,  J. B. Neaton,  
 C. Ochsenfeld,  J. A. Parkhill,  R. Peverati,  V. A. Rassolov,  Yihan Shao,  
 L. V. Slipchenko,  T. Stauch,  R. P. Steele,  J. E. Subotnik,  
 A. J. W. Thom,  A. Tkatchenko,  D. G. Truhlar,  T. Van Voorhis,  
 T. A. Wesolowski,  K. B. Whaley,  H. L. Woodcock III,  P. M. Zimmerman,  
 S. Faraji,  P. M. W. Gill,  M. Head-Gordon,  J. M. Herbert,  A. I. Krylov

 Additional authors for Version 5.4.1: 
 S. Kotaru,  Shaozhi Li,  Xiangyuan Li,  F. Matz,  A. Molle,  Haisheng Ren,  
 Yingli Su,  Hung-Yi Tsai,  C. Utku,  Fang Wang

 Contributors to earlier versions of Q-Chem not listed above: 
 R. D. Adamson,  B. Austin,  R. Baer,  J. Baker,  G. J. O. Beran,  
 K. Brandhorst,  S. T. Brown,  E. F. C. Byrd,  A. K. Chakraborty,  
 G. K. L. Chan,  Chun-Min Chang,  Yunqing Chen,  C.-L. Cheng,  
 Siu Hung Chien,  D. M. Chipman,  D. L. Crittenden,  H. Dachsel,  
 R. J. Doerksen,  A. D. Dutoi,  R. G. Edgar,  J. Fosso-Tande,  
 L. Fusti-Molnar,  D. Ghosh,  A. Ghysels,  A. Golubeva-Zadorozhnaya,  
 J. Gonthier,  M. S. Gordon,  S. R. Gwaltney,  G. Hawkins,  J. E. Herr,  
 A. Heyden,  S. Hirata,  E. G. Hohenstein,  G. Kedziora,  F. J. Keil,  
 C. Kelley,  Jihan Kim,  R. A. King,  R. Z. Khaliullin,  P. P. Korambath,  
 W. Kurlancheek,  A. Laurent,  A. M. Lee,  M. S. Lee,  S. V. Levchenko,  
 Ching Yeh Lin,  D. Liotard,  E. Livshits,  R. C. Lochan,  I. Lotan,  
 L. A. Martinez-Martinez,  P. E. Maslen,  N. Nair,  D. P. O'Neill,  
 D. Neuhauser,  E. Neuscamman,  C. M. Oana,  R. Olivares-Amaya,  R. Olson,  
 T. M. Perrine,  B. Peters,  P. A. Pieniazek,  A. Prociuk,  Y. M. Rhee,  
 J. Ritchie,  M. A. Rohrdanz,  E. Rosta,  N. J. Russ,  H. F. Schaefer III,  
 M. W. Schmidt,  N. E. Schultz,  S. Sharma,  N. Shenvi,  C. D. Sherrill,  
 A. C. Simmonett,  A. Sodt,  T. Stein,  D. Stuck,  K. S. Thanthiriwatte,  
 V. Vanovschi,  L. Vogt,  Tao Wang,  A. Warshel,  M. A. Watson,  
 C. F. Williams,  Q. Wu,  X. Xu,  Jun Yang,  W. Zhang,  Yan Zhao

 Please cite Q-Chem as follows:
 Y. Shao et al., Mol. Phys. 113, 184-215 (2015)
 DOI: 10.1080/00268976.2014.952696

 Q-Chem 5.4.1 for Intel X86 EM64T Linux

 Parts of Q-Chem use Armadillo 9.900.5 (Nocturnal Misbehaviour).
 http://arma.sourceforge.net/

 Q-Chem begins on Sun Mar 27 11:37:07 2022  

 Host: node01
0

     Scratch files written to /src/jdavis/qchem.scratch/qchem29047//
 Processing $rem in /src/tsommerfeld/qchem/config/preferences:
 Processing $rem in /home/jdavis/.qchemrc:

 Checking the input file for inconsistencies... 	...done.

--------------------------------------------------------------
User input:
--------------------------------------------------------------
$molecule
-1 1
C         0.0000000000    0.0000000000    0.8417902907
C         0.0000000000    0.0000000000   -0.4872097093
H         0.9623488518    0.0000000000    1.3363703127
H         0.9623489048    0.0000000000   -0.9817896873
H        -0.9623488518    0.0000000000    1.3363703127
H        -0.9623489048    0.0000000000   -0.9817896873
H         0.0000000000    0.0000000000   -2.8366446508
$end

$rem
   METHOD adc(3)
   BASIS gen
   PURECART 11
   EE_STATES [0,0,0,10]
   scf_convergence 8
   ADC_DAVIDSON_MAXITER 120
   ADC_DAVIDSON_MAXSUBSPACE 200
   adc_nguess_singles 100
   THRESH 14
   S2THRESH 14
   adc_davidson_conv 5
   adc_davidson_thresh 14
   THREADS 10
   MEM_TOTAL 95000
   STATE_ANALYSIS TRUE
$end
$basis
C 1
S   9   1.00
      6.665000D+03           6.920000D-04
      1.000000D+03           5.329000D-03
      2.280000D+02           2.707700D-02
      6.471000D+01           1.017180D-01
      2.106000D+01           2.747400D-01
      7.495000D+00           4.485640D-01
      2.797000D+00           2.850740D-01
      5.215000D-01           1.520400D-02
      1.596000D-01          -3.191000D-03
S   9   1.00
      6.665000D+03          -1.460000D-04
      1.000000D+03          -1.154000D-03
      2.280000D+02          -5.725000D-03
      6.471000D+01          -2.331200D-02
      2.106000D+01          -6.395500D-02
      7.495000D+00          -1.499810D-01
      2.797000D+00          -1.272620D-01
      5.215000D-01           5.445290D-01
      1.596000D-01           5.804960D-01
S   1   1.00
      1.596000D-01           1.000000D+00
S   1   1.00
      0.0469000              1.0000000
P   4   1.00
      9.439000D+00           3.810900D-02
      2.002000D+00           2.094800D-01
      5.456000D-01           5.085570D-01
      1.517000D-01           4.688420D-01
P   1   1.00
      1.517000D-01           1.000000D+00
P   1   1.00
      0.0438244      1.0000000
P   1   1.00
      0.0219122      1.0000000
D   1   1.00
      5.500000D-01           1.0000000
****
C 2
S   9   1.00
      6.665000D+03           6.920000D-04
      1.000000D+03           5.329000D-03
      2.280000D+02           2.707700D-02
      6.471000D+01           1.017180D-01
      2.106000D+01           2.747400D-01
      7.495000D+00           4.485640D-01
      2.797000D+00           2.850740D-01
      5.215000D-01           1.520400D-02
      1.596000D-01          -3.191000D-03
S   9   1.00
      6.665000D+03          -1.460000D-04
      1.000000D+03          -1.154000D-03
      2.280000D+02          -5.725000D-03
      6.471000D+01          -2.331200D-02
      2.106000D+01          -6.395500D-02
      7.495000D+00          -1.499810D-01
      2.797000D+00          -1.272620D-01
      5.215000D-01           5.445290D-01
      1.596000D-01           5.804960D-01
S   1   1.00
      1.596000D-01           1.000000D+00
S   1   1.00
      0.0469000              1.0000000
P   4   1.00
      9.439000D+00           3.810900D-02
      2.002000D+00           2.094800D-01
      5.456000D-01           5.085570D-01
      1.517000D-01           4.688420D-01
P   1   1.00
      1.517000D-01           1.000000D+00
P   1   1.00
      0.0438244      1.0000000
P   1   1.00
      0.0219122      1.0000000
D   1   1.00
      5.500000D-01           1.0000000
****
H 3
cc-pVDZ
****
H 4
cc-pVDZ
****
H 5
cc-pVDZ
****
H 6
cc-pVDZ
****
H 7
aug-cc-pVDZ
****
$end
--------------------------------------------------------------
 ----------------------------------------------------------------
             Standard Nuclear Orientation (Angstroms)
    I     Atom           X                Y                Z
 ----------------------------------------------------------------
    1      C       0.0000000000     0.0000000000     0.8417902855
    2      C       0.0000000000     0.0000000000    -0.4872097145
    3      H       0.9623488518     0.0000000000     1.3363703075
    4      H       0.9623489048     0.0000000000    -0.9817896925
    5      H      -0.9623488518     0.0000000000     1.3363703075
    6      H      -0.9623489048     0.0000000000    -0.9817896925
    7      H       0.0000000000     0.0000000000    -2.8366446560
 ----------------------------------------------------------------
 Molecular Point Group                 C2v   NOp =  4
 Largest Abelian Subgroup              C2v   NOp =  4
 Nuclear Repulsion Energy =          36.55739271 hartrees
 There are        9 alpha and        9 beta electrons
 Requested basis set is non-standard
 There are 33 shells and 67 basis functions
 Total memory of 95000 MB is distributed as follows: 
   MEM_STATIC is set to 192 MB
   QALLOC/CCMAN JOB total memory use is  94808 MB
 Warning: actual memory use might exceed 95000 MB

 Total QAlloc Memory Limit  95000 MB
 Mega-Array Size       188 MB
 MEM_STATIC part       192 MB

                       Distance Matrix (Angstroms)
             C (  1)   C (  2)   H (  3)   H (  4)   H (  5)   H (  6)
   C (  2)  1.329000
   H (  3)  1.082000  2.061931
   H (  4)  2.061931  1.082000  2.318160
   H (  5)  1.082000  2.061931  1.924698  3.013026
   H (  6)  2.061931  1.082000  3.013026  1.924698  2.318160
   H (  7)  3.678435  2.349435  4.282542  2.089642  4.282542  2.089642

 
 A cutoff of  1.0D-14 yielded    561 shell pairs
 There are      2337 function pairs (      2484 Cartesian)
 Smallest overlap matrix eigenvalue = 1.32E-04

 Scale SEOQF with 1.000000e-01/1.000000e-01/1.000000e-01

 Standard Electronic Orientation quadrupole field applied
 Nucleus-field energy     =    -0.0000000019 hartrees
 ================ Generating on-the-fly SAD Guess ================
Attempting to make child job directory: /src/jdavis/qchem.scratch/qchem29047//Frg1/
Attempting to make child job directory: /src/jdavis/qchem.scratch/qchem29047//Frg2/
Creating input file /src/jdavis/qchem.scratch/qchem29047/Frg1.input
using default PutDataFrgm: nothing
calling putenv with: QCSCRATCH=/src/jdavis/qchem.scratch/qchem29047/ 
Spawning Job For Fragment 0
Done Job For Fragment 0
calling putenv with: QCSCRATCH=/src/jdavis/qchem.scratch 
calling putenv with: QCTHREADS=1 
Creating input file /src/jdavis/qchem.scratch/qchem29047/Frg2.input
using default PutDataFrgm: nothing
calling putenv with: QCSCRATCH=/src/jdavis/qchem.scratch/qchem29047/ 
Spawning Job For Fragment 1
Done Job For Fragment 1
calling putenv with: QCSCRATCH=/src/jdavis/qchem.scratch 
calling putenv with: QCTHREADS=1 
 Time for running child jobs:  CPU 1.77 s  wall 54.49 s
 ============= Method Specific SAD Guess Constructed =============
 Guess from on-the-fly superposition of atomic densities
 Warning: Energy on first SCF cycle will be non-variational
 A restricted Hartree-Fock SCF calculation will be
 performed using Pulay DIIS extrapolation
 SCF converges when DIIS error is below 1.0E-08
 using 10 threads for integral computing
 -------------------------------------------------------
 OpenMP Integral computing Module                
 Release: version 1.0, May 2013, Q-Chem Inc. Pittsburgh 
 -------------------------------------------------------
 ---------------------------------------
  Cycle       Energy         DIIS Error
 ---------------------------------------
    1     -78.8384107838      7.39E-02
    2     -78.4382406958      7.16E-03
    3     -78.4959767570      2.36E-03
    4     -78.5001165153      8.93E-04
    5     -78.5008646534      2.37E-04
    6     -78.5009421602      7.25E-05
    7     -78.5009522507      3.49E-05
    8     -78.5009544764      7.42E-06
    9     -78.5009546270      1.54E-06
   10     -78.5009546353      2.56E-07
   11     -78.5009546355      4.15E-08
   12     -78.5009546355      6.60E-09 Convergence criterion met
 ---------------------------------------
 SCF time:  CPU 11.92 s  wall 1.20 s
 SCF   energy in the final basis set = -78.50095464
 Total energy in the final basis set = -78.50095464
================================================================================
|                                                                              |
|                                 A D C  M A N                                 |
|                                                                              |
 ------------------------------------------------------------------------------ 
|                                                                              |
| Components:                                                                  |
|                                                                              |
| - libvmm - 1.3-trunk                                                         |
|   Authors:                                                                   |
|   Evgeny Epifanovsky, Ilya Kaliman                                           |
|                                                                              |
| - libtensor - 2.5-trunk                                                      |
|   Authors:                                                                   |
|   Evgeny Epifanovsky, Michael Wormit, Dmitry Zuev, Sam Manzer,               |
|   Ilya Kaliman                                                               |
|                                                                              |
| - libwfa - 1.1-trunk                                                         |
|   Authors:                                                                   |
|   Felix Plasser, Stefanie Mewes (Baeppler), Benjamin Thomitzni,              |
|   Michael Wormit, Feng Chen, Anna I. Krylov, Pavel Pokhilko                  |
|                                                                              |
| - libadc - 1.1-trunk                                                         |
|   Authors:                                                                   |
|   Michael Wormit, Adrian L. Dempwolff, Philipp H. P. Harbach,                |
|   Caroline Krauter, Dirk Rehn, Matthias Schneider, Jan Wenzel                |
|                                                                              |
| - adcman - 2.6-trunk                                                         |
|   Authors:                                                                   |
|   Michael Wormit, Adrian L. Dempwolff, Philipp H. P. Harbach,                |
|   Caroline Krauter, Daniel Lefrancois, Jan-Michael Mewes, Dirk Rehn,         |
|   Matthias Schneider, Jan Wenzel, Andreas Dreuw                              |
|                                                                              |
| Authors of earlier versions of ADCMAN:                                       |
| Andreas Dreuw, Jan Hendrik Starcke, Dirk Rehn, Michael Wormit                |
|                                                                              |
================================================================================

 
 Alpha MOs, Restricted
 -- Occupied --                  
-11.076 -11.072  -0.884  -0.621  -0.502  -0.406  -0.354  -0.220
  1 A1    2 A1    3 A1    4 A1    1 B1    5 A1    2 B1    1 B2                 
 -0.036
  6 A1                                                                         
 -- Virtual --                   
  0.132   0.134   0.140   0.173   0.179   0.203   0.232   0.278
  7 A1    3 B1    2 B2    4 B1    3 B2    8 A1    9 A1    4 B2                 
  0.295   0.308   0.332   0.334   0.391   0.410   0.428   0.445
  5 B1   10 A1    6 B1    5 B2   11 A1   12 A1    6 B2   13 A1                 
  0.489   0.505   0.631   0.692   0.872   0.945   1.015   1.042
  7 B1   14 A1    8 B1   15 A1   16 A1    9 B1   17 A1    7 B2                 
  1.047   1.090   1.105   1.132   1.189   1.201   1.213   1.272
 10 B1   18 A1    8 B2   19 A1   20 A1   21 A1   11 B1    1 A2                 
  1.444   1.445   1.502   1.512   1.754   1.760   1.837   1.879
  9 B2    2 A2   12 B1   22 A1   23 A1   13 B1   14 B1   10 B2                 
  1.954   2.010   2.034   2.101   2.162   2.176   2.209   2.282
 15 B1   11 B2   24 A1   12 B2   25 A1    3 A2   16 B1   26 A1                 
  2.335   2.482   2.572   2.604   2.718   2.734   2.963   2.966
 13 B2   27 A1    4 A2   28 A1   17 B1   29 A1   30 A1   18 B1                 
  3.422   3.505
 31 A1   19 B1                                                                 
 
 Beta MOs, Restricted
 -- Occupied --                  
-11.076 -11.072  -0.884  -0.621  -0.502  -0.406  -0.354  -0.220
  1 A1    2 A1    3 A1    4 A1    1 B1    5 A1    2 B1    1 B2                 
 -0.036
  6 A1                                                                         
 -- Virtual --                   
  0.132   0.134   0.140   0.173   0.179   0.203   0.232   0.278
  7 A1    3 B1    2 B2    4 B1    3 B2    8 A1    9 A1    4 B2                 
  0.295   0.308   0.332   0.334   0.391   0.410   0.428   0.445
  5 B1   10 A1    6 B1    5 B2   11 A1   12 A1    6 B2   13 A1                 
  0.489   0.505   0.631   0.692   0.872   0.945   1.015   1.042
  7 B1   14 A1    8 B1   15 A1   16 A1    9 B1   17 A1    7 B2                 
  1.047   1.090   1.105   1.132   1.189   1.201   1.213   1.272
 10 B1   18 A1    8 B2   19 A1   20 A1   21 A1   11 B1    1 A2                 
  1.444   1.445   1.502   1.512   1.754   1.760   1.837   1.879
  9 B2    2 A2   12 B1   22 A1   23 A1   13 B1   14 B1   10 B2                 
  1.954   2.010   2.034   2.101   2.162   2.176   2.209   2.282
 15 B1   11 B2   24 A1   12 B2   25 A1    3 A2   16 B1   26 A1                 
  2.335   2.482   2.572   2.604   2.718   2.734   2.963   2.966
 13 B2   27 A1    4 A2   28 A1   17 B1   29 A1   30 A1   18 B1                 
  3.422   3.505
 31 A1   19 B1                                                                 

--------------------------------------------------------------------------------
                                   HF Summary                                   
--------------------------------------------------------------------------------
  Energy:                                                  -78.5009546355 a.u.
  Dip. moment [a.u.]:                  [  -0.000000,   -0.000000,    4.900895]
  Total dipole [Debye]:                                              12.456835
  <r^2> [a.u.]:                        [  28.117059,   18.063987,  115.596114]
  Total <r^2> [a.u.]:                                               161.777160
--------------------------------------------------------------------------------

--------------------------------------------------------------------------------
                                 MP(2) Summary                                  
--------------------------------------------------------------------------------
  MP energy contribution:                                   -0.3066462822 a.u.
  Total energy:                                            -78.8076009177 a.u.
  Dip. moment [a.u.]:                  [  -0.000000,   -0.000000,    4.900798]
  Total dipole [Debye]:                                              12.456588
  <r^2> [a.u.]:                        [  28.573301,   18.307392,  115.818363]
  Total <r^2> [a.u.]:                                               162.699057

  Density matrix analysis:
  ------------------------
  NOs
    Occupation of frontier NOs:
       0.0436   1.9374
    Number of electrons: 18.000000
    Number of unpaired electrons: n_u =  0.47516, n_u,nl =  0.05233
    NO participation ratio (PR_NO): 16.580096
  
  
  Mulliken Population Analysis
  Atom      Charge (e)              h+              e-           Del q
  --------------------------------------------------------------------
   1 C       -0.506620        0.161066       -0.076964        0.084102
   2 C       -0.528013        0.032272       -0.171551       -0.139279
   3 H        0.038253        0.018663       -0.012167        0.006496
   4 H        0.138125        0.016729       -0.012266        0.004464
   5 H        0.038253        0.018663       -0.012167        0.006496
   6 H        0.138125        0.016729       -0.012266        0.004464
   7 H       -0.318122        0.049190       -0.015933        0.033256
  --------------------------------------------------------------------
  Sum:       -1.000000        0.313312       -0.313312       -0.000000
  
  Multipole moment analysis of the density matrix
    Molecular charge:                      -1.000000
    Number of electrons:                   18.000000
      Center of electronic charge [Ang]: [  0.000000,   0.000000,  -0.144077]
    Total nuclear charge:                  17.000000
      Center of nuclear charge [Ang]:    [ -0.000000,   0.000000,  -0.000000]
    Dipole moment [D]:                     12.456585
      Cartesian components [D]:          [ -0.000000,  -0.000000,  12.456585]
    RMS size of the density [Ang]:         1.584416
      Cartesian components [Ang]:        [  0.666722,   0.533677,   1.334558]
  
  Exciton analysis of the difference density matrix
    <r_h> [Ang]:                  [ -0.000000,   0.000000,  -0.263387]
    <r_e> [Ang]:                  [ -0.000000,   0.000000,  -0.263223]
    |<r_e - r_h>| [Ang]:            0.000164
    Hole size [Ang]:                2.014579
      Cartesian components [Ang]: [  0.822298,   0.828704,   1.641829]
    Electron size [Ang]:            2.209655
      Cartesian components [Ang]: [  1.041128,   0.950946,   1.701273]
--------------------------------------------------------------------------------

--------------------------------------------------------------------------------
                                 MP(3) Summary                                  
--------------------------------------------------------------------------------
  MP energy contribution:                                   -0.0294150987 a.u.
  Total energy:                                            -78.8370160164 a.u.
--------------------------------------------------------------------------------
  Starting Davidson for singlet states of irrep B2 ... 
--------------------------------------------------------------------------------
   It NVec Conv  Avg. Norm  Max. Norm  Conv. states           Remark
--------------------------------------------------------------------------------
       100    0  9.232e-02  4.153e-01  0.1157 n n n n n n n n Guess.
    1  110    0  3.321e-02  1.786e-01  0.0564 n n n n n n n n 
    2  120    0  1.826e-02  1.298e-01  0.0506 n n n n n n n n 
    3  130    0  1.228e-02  1.005e-01  0.0501 n n n n n n n n 
    4  140    0  1.187e-02  1.101e-01  0.0501 n n n n n n n n 
    5  150    0  4.269e-03  2.540e-02  0.0501 n n n n n n n n 
    6  160    0  4.262e-03  4.071e-02  0.0501 n n n n n n n n 
    7  170    0  3.559e-03  3.534e-02  0.0501 n n n n n n n n 
    8  180    2  1.597e-03  1.590e-02  0.0501 y y n n n n n n 
    9  190    3  7.302e-04  7.284e-03  0.0501 y y y n n n n n 
   10  200    4  3.186e-04  3.181e-03  0.0501 y y y y n n n n 
   11   20    4  1.265e-04  1.263e-03  0.0501 y y y y n n n n Subspace collapsed.
   12   30    7  9.586e-05  9.583e-04  0.0501 y y y y n n y y 
   13   40    9  6.336e-05  6.335e-04  0.0501 y y y y y y y y 
   14   50    9  4.514e-05  4.514e-04  0.0501 y y y y y y y y 
   15   60    9  3.677e-05  3.677e-04  0.0501 y y y y y y y y 
   16   70    9  2.802e-05  2.802e-04  0.0501 y y y y y y y y 
   17   80    9  1.866e-05  1.866e-04  0.0501 y y y y y y y y 
   18   90    9  1.183e-05  1.183e-04  0.0501 y y y y y y y y 
   19  100    9  5.530e-06  5.530e-05  0.0501 y y y y y y y y 
   20  110    9  2.711e-06  2.711e-05  0.0501 y y y y y y y y 
   21  120    9  1.757e-06  1.757e-05  0.0501 y y y y y y y y 
   22  130    9  1.160e-06  1.160e-05  0.0501 y y y y y y y y 
   23  140   10  7.450e-07  7.450e-06  0.0501 y y y y y y y y Converged.
--------------------------------------------------------------------------------
  Davidson Summary: 
 ------------------------------------------------------------
  State  0: excitation energy =   0.0501 a.u.   (converged)
  State  1: excitation energy =   0.0627 a.u.   (converged)
  State  2: excitation energy =   0.1072 a.u.   (converged)
  State  3: excitation energy =   0.1947 a.u.   (converged)
  State  4: excitation energy =   0.2129 a.u.   (converged)
  State  5: excitation energy =   0.2252 a.u.   (converged)
  State  6: excitation energy =   0.2265 a.u.   (converged)
  State  7: excitation energy =   0.2532 a.u.   (converged)
  State  8: excitation energy =   0.2619 a.u.   (converged)
  State  9: excitation energy =   0.3009 a.u.   (converged)
 ------------------------------------------------------------


--------------------------------------------------------------------------------
                   State-averaged natural transition orbitals
--------------------------------------------------------------------------------
--------------------------------------------------------------------------------

--------------------------------------------------------------------------------
                             Excited State Summary
--------------------------------------------------------------------------------
--------------------------------------------------------------------------------

  Excited state 1 (singlet, B2)                                    [converged]
  ----------------------------------------------------------------------------
  Term symbol:  1 (1) B2                                    R^2 =  3.40708e-15

  Total energy:                                            -78.7869286205 a.u.
  Excitation energy:                                               1.362947 eV

  Osc. strength:                                                      0.007428
  Trans. dip. moment [a.u.]:           [   0.000000,    0.471661,    0.000000]
  <i|r^2|0> [a.u.]:                    [   0.000000,    0.000000,    0.000000]

  Dip. moment [a.u.]:                  [  -0.000000,   -0.000000,   -0.202222]
  Total dipole [Debye]:                                               0.513997
  <r^2> [a.u.]:                        [  39.674755,   61.587701,   97.485165]
  Total <r^2> [a.u.]:                                               198.747621

  V1^2 = 0.8587, V2^2 = 0.1413

  Important amplitudes:
      occ i      occ j       vir a       vir b          v   
    ---------------------------------------------------------
     6 (A1) A               2 (B2) A                 -0.5353
     6 (A1) A               3 (B2) A                 -0.3712
    ---------------------------------------------------------

  Density matrix analysis:
  ------------------------
  NOs
    Occupation of frontier NOs:
       0.9869   0.9973
    Number of electrons: 18.000000
    Number of unpaired electrons: n_u =  2.42018, n_u,nl =  2.04911
    NO participation ratio (PR_NO):  2.955978
  
  
  Mulliken Population Analysis
  Atom      Charge (e)              h+              e-           Del q
  --------------------------------------------------------------------
   1 C       -0.507412        0.502425       -0.503218       -0.000792
   2 C       -0.795754        0.447188       -0.714928       -0.267741
   3 H        0.068027        0.033896       -0.004122        0.029774
   4 H        0.085617       -0.008891       -0.043618       -0.052509
   5 H        0.068027        0.033896       -0.004122        0.029774
   6 H        0.085617       -0.008891       -0.043618       -0.052509
   7 H       -0.004120        0.441921       -0.127919        0.314002
  --------------------------------------------------------------------
  Sum:       -1.000000        1.441545       -1.441545       -0.000000
  
  Multipole moment analysis of the density matrix
    Molecular charge:                      -1.000000
    Number of electrons:                   18.000000
      Center of electronic charge [Ang]: [  0.000000,   0.000000,   0.005945]
    Total nuclear charge:                  17.000000
      Center of nuclear charge [Ang]:    [ -0.000000,   0.000000,  -0.000000]
    Dipole moment [D]:                     0.513997
      Cartesian components [D]:          [ -0.000000,  -0.000000,  -0.513997]
    RMS size of the density [Ang]:         1.758383
      Cartesian components [Ang]:        [  0.785637,   0.978840,   1.231485]
  
  Exciton analysis of the difference density matrix
    <r_h> [Ang]:                  [ -0.000000,   0.000000,  -2.273731]
    <r_e> [Ang]:                  [ -0.000000,   0.000000,  -0.400462]
    |<r_e - r_h>| [Ang]:            1.873269
    Hole size [Ang]:                2.431526
      Cartesian components [Ang]: [  1.159415,   1.158013,   1.796408]
    Electron size [Ang]:            4.233727
      Cartesian components [Ang]: [  1.871033,   3.122250,   2.162230]

  Transition density matrix analysis:
  -----------------------------------
  
  CT numbers (Mulliken)
    omega =     0.8465
    <Phe> =    -0.0036
  
  Exciton analysis of the transition density matrix
    Trans. dipole moment [D]:             0.599421
      Cartesian components [D]:         [  0.000000,   0.599421,   0.000000]
    <r_h> [Ang]:                        [ -0.000000,   0.000000,  -2.864948]
    <r_e> [Ang]:                        [ -0.000000,   0.000000,   0.076584]
    |<r_e - r_h>| [Ang]:                  2.941532
    Hole size [Ang]:                      1.714016
      Cartesian components [Ang]:       [  0.965509,   0.968252,   1.033505]
    Electron size [Ang]:                  4.775934
      Cartesian components [Ang]:       [  2.127875,   3.685599,   2.167500]
    RMS electron-hole separation [Ang]:   5.863375
      Cartesian components [Ang]:       [  2.336673,   3.810547,   3.794584]
    Covariance(r_h, r_e) [Ang^2]:         0.010418
    Correlation coefficient:              0.001273
    Center-of-mass size [Ang]:            2.538121
      Cartesian components [Ang]:       [  1.168341,   1.905389,   1.202718]

  Decomposition into state-averaged NTOs
    H- 0 -> L+ 2: -0.5384 ( 58.0%)
    H- 0 -> L+ 3:  0.3026 ( 18.3%)
    H- 0 -> L+ 4:  0.1921 (  7.4%)
                   omega =  84.7%
  ----------------------------------------------------------------------------


  Excited state 2 (singlet, B2)                                    [converged]
  ----------------------------------------------------------------------------
  Term symbol:  2 (1) B2                                    R^2 =  8.76265e-15

  Total energy:                                            -78.7742958528 a.u.
  Excitation energy:                                               1.706702 eV

  Osc. strength:                                                      0.097544
  Trans. dip. moment [a.u.]:           [  -0.000000,    1.527363,    0.000000]
  <i|r^2|0> [a.u.]:                    [   0.000000,    0.000000,    0.000000]

  Dip. moment [a.u.]:                  [  -0.000000,    0.000000,   -0.549465]
  Total dipole [Debye]:                                               1.396601
  <r^2> [a.u.]:                        [  35.828861,   49.781390,  118.147458]
  Total <r^2> [a.u.]:                                               203.757709

  V1^2 = 0.8549, V2^2 = 0.1451

  Important amplitudes:
      occ i      occ j       vir a       vir b          v   
    ---------------------------------------------------------
     6 (A1) A               3 (B2) A                 -0.5124
     6 (A1) A               2 (B2) A                  0.3582
    ---------------------------------------------------------

  Density matrix analysis:
  ------------------------
  NOs
    Occupation of frontier NOs:
       0.9866   0.9945
    Number of electrons: 18.000000
    Number of unpaired electrons: n_u =  2.42430, n_u,nl =  2.04967
    NO participation ratio (PR_NO):  2.975179
  
  
  Mulliken Population Analysis
  Atom      Charge (e)              h+              e-           Del q
  --------------------------------------------------------------------
   1 C       -0.640627        0.442683       -0.576690       -0.134007
   2 C       -0.664807        0.486508       -0.623301       -0.136794
   3 H        0.069501        0.034108       -0.002860        0.031248
   4 H        0.084986       -0.007885       -0.045254       -0.053139
   5 H        0.069501        0.034108       -0.002860        0.031248
   6 H        0.084986       -0.007885       -0.045254       -0.053139
   7 H       -0.003541        0.442132       -0.127551        0.314582
  --------------------------------------------------------------------
  Sum:       -1.000000        1.423770       -1.423770       -0.000000
  
  Multipole moment analysis of the density matrix
    Molecular charge:                      -1.000000
    Number of electrons:                   18.000000
      Center of electronic charge [Ang]: [  0.000000,  -0.000000,   0.016154]
    Total nuclear charge:                  17.000000
      Center of nuclear charge [Ang]:    [ -0.000000,   0.000000,  -0.000000]
    Dipole moment [D]:                     1.396601
      Cartesian components [D]:          [ -0.000000,   0.000000,  -1.396601]
    RMS size of the density [Ang]:         1.780344
      Cartesian components [Ang]:        [  0.746589,   0.880032,   1.355646]
  
  Exciton analysis of the difference density matrix
    <r_h> [Ang]:                  [ -0.000000,   0.000000,  -2.320265]
    <r_e> [Ang]:                  [ -0.000000,  -0.000000,  -0.294549]
    |<r_e - r_h>| [Ang]:            2.025716
    Hole size [Ang]:                2.421696
      Cartesian components [Ang]: [  1.162388,   1.169778,   1.773438]
    Electron size [Ang]:            4.385993
      Cartesian components [Ang]: [  1.666786,   2.749312,   2.983294]

  Transition density matrix analysis:
  -----------------------------------
  
  CT numbers (Mulliken)
    omega =     0.8417
    <Phe> =    -0.0107
  
  Exciton analysis of the transition density matrix
    Trans. dipole moment [D]:             1.941085
      Cartesian components [D]:         [ -0.000000,   1.941085,   0.000000]
    <r_h> [Ang]:                        [ -0.000000,   0.000000,  -2.860314]
    <r_e> [Ang]:                        [  0.000000,  -0.000000,   0.253689]
    |<r_e - r_h>| [Ang]:                  3.114002
    Hole size [Ang]:                      1.717195
      Cartesian components [Ang]:       [  0.965156,   0.967927,   1.039400]
    Electron size [Ang]:                  4.910094
      Cartesian components [Ang]:       [  1.848177,   3.199987,   3.233163]
    RMS electron-hole separation [Ang]:   6.060973
      Cartesian components [Ang]:       [  2.084993,   3.342613,   4.605990]
    Covariance(r_h, r_e) [Ang^2]:         0.009699
    Correlation coefficient:              0.001150
    Center-of-mass size [Ang]:            2.601787
      Cartesian components [Ang]:       [  1.042518,   1.671866,   1.699211]

  Decomposition into state-averaged NTOs
    H- 0 -> L+ 3: -0.4418 ( 39.0%)
    H- 0 -> L+ 4:  0.3670 ( 26.9%)
    H- 0 -> L+ 5:  0.2574 ( 13.2%)
    H- 0 -> L+ 2: -0.1485 (  4.4%)
                   omega =  84.2%
  ----------------------------------------------------------------------------


  Excited state 3 (singlet, B2)                                    [converged]
  ----------------------------------------------------------------------------
  Term symbol:  3 (1) B2                                    R^2 =  2.56491e-13

  Total energy:                                            -78.7298358690 a.u.
  Excitation energy:                                               2.916520 eV

  Osc. strength:                                                      0.005398
  Trans. dip. moment [a.u.]:           [   0.000000,    0.274856,   -0.000000]
  <i|r^2|0> [a.u.]:                    [   0.000000,    0.000000,   -0.000000]

  Dip. moment [a.u.]:                  [  -0.000000,   -0.000000,   -0.211609]
  Total dipole [Debye]:                                               0.537856
  <r^2> [a.u.]:                        [  30.089796,   29.901924,   98.894554]
  Total <r^2> [a.u.]:                                               158.886273

  V1^2 = 0.8406, V2^2 = 0.1594

  Important amplitudes:
      occ i      occ j       vir a       vir b          v   
    ---------------------------------------------------------
     6 (A1) A               4 (B2) A                 -0.5728
     6 (A1) A               5 (B2) A                  0.1687
    ---------------------------------------------------------

  Density matrix analysis:
  ------------------------
  NOs
    Occupation of frontier NOs:
       0.9836   0.9860
    Number of electrons: 18.000000
    Number of unpaired electrons: n_u =  2.44357, n_u,nl =  2.05208
    NO participation ratio (PR_NO):  3.056501
  
  
  Mulliken Population Analysis
  Atom      Charge (e)              h+              e-           Del q
  --------------------------------------------------------------------
   1 C       -0.507171        0.412275       -0.412826       -0.000551
   2 C       -0.647600        0.629079       -0.748665       -0.119586
   3 H        0.027083        0.012829       -0.023998       -0.011170
   4 H        0.042528       -0.001977       -0.093621       -0.095597
   5 H        0.027083        0.012829       -0.023998       -0.011170
   6 H        0.042528       -0.001977       -0.093621       -0.095597
   7 H        0.015549        0.432787       -0.099116        0.333671
  --------------------------------------------------------------------
  Sum:       -1.000000        1.495845       -1.495845       -0.000000
  
  Multipole moment analysis of the density matrix
    Molecular charge:                      -1.000000
    Number of electrons:                   18.000000
      Center of electronic charge [Ang]: [  0.000000,   0.000000,   0.006221]
    Total nuclear charge:                  17.000000
      Center of nuclear charge [Ang]:    [ -0.000000,   0.000000,  -0.000000]
    Dipole moment [D]:                     0.537856
      Cartesian components [D]:          [ -0.000000,  -0.000000,  -0.537856]
    RMS size of the density [Ang]:         1.572189
      Cartesian components [Ang]:        [  0.684186,   0.682047,   1.240354]
  
  Exciton analysis of the difference density matrix
    <r_h> [Ang]:                  [ -0.000000,   0.000000,  -2.211373]
    <r_e> [Ang]:                  [ -0.000000,   0.000000,  -0.402784]
    |<r_e - r_h>| [Ang]:            1.808589
    Hole size [Ang]:                2.349238
      Cartesian components [Ang]: [  1.130502,   1.168063,   1.696028]
    Electron size [Ang]:            3.087569
      Cartesian components [Ang]: [  1.249771,   1.880137,   2.106238]

  Transition density matrix analysis:
  -----------------------------------
  
  CT numbers (Mulliken)
    omega =     0.8183
    <Phe> =    -0.0041
  
  Exciton analysis of the transition density matrix
    Trans. dipole moment [D]:             0.349307
      Cartesian components [D]:         [  0.000000,   0.349307,  -0.000000]
    <r_h> [Ang]:                        [ -0.000000,   0.000000,  -2.824484]
    <r_e> [Ang]:                        [  0.000000,   0.000000,   0.096725]
    |<r_e - r_h>| [Ang]:                  2.921210
    Hole size [Ang]:                      1.733660
      Cartesian components [Ang]:       [  0.957125,   0.958413,   1.082096]
    Electron size [Ang]:                  3.234772
      Cartesian components [Ang]:       [  1.213282,   2.087772,   2.152418]
    RMS electron-hole separation [Ang]:   4.690032
      Cartesian components [Ang]:       [  1.545236,   2.296183,   3.786316]
    Covariance(r_h, r_e) [Ang^2]:         0.003197
    Correlation coefficient:              0.000570
    Center-of-mass size [Ang]:            1.835464
      Cartesian components [Ang]:       [  0.772743,   1.149156,   1.204674]

  Decomposition into state-averaged NTOs
    H- 0 -> L+ 5: -0.3947 ( 31.2%)
    H- 0 -> L+ 3: -0.3310 ( 21.9%)
    H- 0 -> L+ 6:  0.2859 ( 16.3%)
    H- 0 -> L+ 2: -0.1958 (  7.7%)
    H- 0 -> L+ 4: -0.1513 (  4.6%)
                   omega =  81.8%
  ----------------------------------------------------------------------------


  Excited state 4 (singlet, B2)                                    [converged]
  ----------------------------------------------------------------------------
  Term symbol:  4 (1) B2                                    R^2 =  7.37055e-12

  Total energy:                                            -78.6423360329 a.u.
  Excitation energy:                                               5.297512 eV

  Osc. strength:                                                      0.006565
  Trans. dip. moment [a.u.]:           [   0.000000,   -0.224913,   -0.000000]
  <i|r^2|0> [a.u.]:                    [  -0.000000,    0.000000,   -0.000000]

  Dip. moment [a.u.]:                  [   0.000000,   -0.000000,   -0.279485]
  Total dipole [Debye]:                                               0.710379
  <r^2> [a.u.]:                        [  33.350770,   41.586178,   91.272273]
  Total <r^2> [a.u.]:                                               166.209221

  V1^2 = 0.8520, V2^2 = 0.1480

  Important amplitudes:
      occ i      occ j       vir a       vir b          v   
    ---------------------------------------------------------
     6 (A1) A               5 (B2) A                  0.6207
     6 (A1) A               4 (B2) A                  0.1507
    ---------------------------------------------------------

  Density matrix analysis:
  ------------------------
  NOs
    Occupation of frontier NOs:
       0.9813   0.9853
    Number of electrons: 18.000000
    Number of unpaired electrons: n_u =  2.45102, n_u,nl =  2.06198
    NO participation ratio (PR_NO):  3.080436
  
  
  Mulliken Population Analysis
  Atom      Charge (e)              h+              e-           Del q
  --------------------------------------------------------------------
   1 C       -0.516530        0.479449       -0.489359       -0.009910
   2 C       -0.717970        0.490702       -0.680658       -0.189957
   3 H        0.049045        0.014593       -0.003801        0.010792
   4 H        0.066121       -0.008572       -0.063433       -0.072004
   5 H        0.049045        0.014593       -0.003801        0.010792
   6 H        0.066121       -0.008572       -0.063433       -0.072004
   7 H        0.004168        0.436490       -0.114199        0.322290
  --------------------------------------------------------------------
  Sum:       -1.000000        1.418684       -1.418684       -0.000000
  
  Multipole moment analysis of the density matrix
    Molecular charge:                      -1.000000
    Number of electrons:                   18.000000
      Center of electronic charge [Ang]: [ -0.000000,   0.000000,   0.008216]
    Total nuclear charge:                  17.000000
      Center of nuclear charge [Ang]:    [ -0.000000,   0.000000,  -0.000000]
    Dipole moment [D]:                     0.710379
      Cartesian components [D]:          [  0.000000,  -0.000000,  -0.710379]
    RMS size of the density [Ang]:         1.608003
      Cartesian components [Ang]:        [  0.720307,   0.804339,   1.191582]
  
  Exciton analysis of the difference density matrix
    <r_h> [Ang]:                  [ -0.000000,   0.000000,  -2.309368]
    <r_e> [Ang]:                  [ -0.000000,   0.000000,  -0.377093]
    |<r_e - r_h>| [Ang]:            1.932275
    Hole size [Ang]:                2.341182
      Cartesian components [Ang]: [  1.132642,   1.138912,   1.703272]
    Electron size [Ang]:            3.371197
      Cartesian components [Ang]: [  1.491939,   2.427350,   1.801960]

  Transition density matrix analysis:
  -----------------------------------
  
  CT numbers (Mulliken)
    omega =     0.8383
    <Phe> =    -0.0018
  
  Exciton analysis of the transition density matrix
    Trans. dipole moment [D]:             0.285836
      Cartesian components [D]:         [  0.000000,  -0.285836,  -0.000000]
    <r_h> [Ang]:                        [ -0.000000,   0.000000,  -2.848702]
    <r_e> [Ang]:                        [ -0.000000,   0.000000,   0.141852]
    |<r_e - r_h>| [Ang]:                  2.990555
    Hole size [Ang]:                      1.721989
      Cartesian components [Ang]:       [  0.961964,   0.964169,   1.053683]
    Electron size [Ang]:                  3.646829
      Cartesian components [Ang]:       [  1.628118,   2.818698,   1.644242]
    RMS electron-hole separation [Ang]:   5.019677
      Cartesian components [Ang]:       [  1.891046,   2.978949,   3.570288]
    Covariance(r_h, r_e) [Ang^2]:         0.005436
    Correlation coefficient:              0.000866
    Center-of-mass size [Ang]:            2.017144
      Cartesian components [Ang]:       [  0.945547,   1.489566,   0.977755]

  Decomposition into state-averaged NTOs
    H- 0 -> L+ 4: -0.4477 ( 40.1%)
    H- 0 -> L+ 5:  0.3861 ( 29.8%)
    H- 0 -> L+ 2: -0.2499 ( 12.5%)
                   omega =  83.8%
  ----------------------------------------------------------------------------


  Excited state 5 (singlet, B2)                                    [converged]
  ----------------------------------------------------------------------------
  Term symbol:  5 (1) B2                                    R^2 =  1.23384e-10

  Total energy:                                            -78.6241026857 a.u.
  Excitation energy:                                               5.793666 eV

  Osc. strength:                                                      0.002199
  Trans. dip. moment [a.u.]:           [  -0.000000,    0.124478,    0.000000]
  <i|r^2|0> [a.u.]:                    [   0.000000,    0.000000,   -0.000000]

  Dip. moment [a.u.]:                  [  -0.000000,   -0.000000,    2.168185]
  Total dipole [Debye]:                                               5.510977
  <r^2> [a.u.]:                        [  40.838221,   60.780129,  103.076093]
  Total <r^2> [a.u.]:                                               204.694443

  V1^2 = 0.0462, V2^2 = 0.9538

  Important amplitudes:
      occ i      occ j       vir a       vir b          v   
    ---------------------------------------------------------
     6 (A1) A   1 (B2) B    4 (B2) A    3 (B2) B      0.1772
     6 (A1) A   1 (B2) B    4 (B2) A    2 (B2) B      0.1225
    ---------------------------------------------------------

  Density matrix analysis:
  ------------------------
  NOs
    Occupation of frontier NOs:
       0.9644   1.0037
    Number of electrons: 18.000000
    Number of unpaired electrons: n_u =  4.06522, n_u,nl =  3.93757
    NO participation ratio (PR_NO):  4.909831
  
  
  Mulliken Population Analysis
  Atom      Charge (e)              h+              e-           Del q
  --------------------------------------------------------------------
   1 C        0.190702        0.724769       -0.027446        0.697322
   2 C       -1.852897        0.578332       -1.903216       -1.324884
   3 H        0.040050        0.006316       -0.004518        0.001798
   4 H        0.126794       -0.003776       -0.007555       -0.011331
   5 H        0.040050        0.006316       -0.004518        0.001798
   6 H        0.126794       -0.003776       -0.007555       -0.011331
   7 H        0.328505        0.649863       -0.003235        0.646628
  --------------------------------------------------------------------
  Sum:       -1.000000        1.958043       -1.958043       -0.000000
  
  Multipole moment analysis of the density matrix
    Molecular charge:                      -1.000000
    Number of electrons:                   18.000000
      Center of electronic charge [Ang]: [  0.000000,   0.000000,  -0.063742]
    Total nuclear charge:                  17.000000
      Center of nuclear charge [Ang]:    [ -0.000000,   0.000000,  -0.000000]
    Dipole moment [D]:                     5.510975
      Cartesian components [D]:          [ -0.000000,  -0.000000,   5.510975]
    RMS size of the density [Ang]:         1.783367
      Cartesian components [Ang]:        [  0.797073,   0.972402,   1.264716]
  
  Exciton analysis of the difference density matrix
    <r_h> [Ang]:                  [  0.000000,   0.000000,  -1.340231]
    <r_e> [Ang]:                  [  0.000000,   0.000000,  -0.601720]
    |<r_e - r_h>| [Ang]:            0.738511
    Hole size [Ang]:                2.149730
      Cartesian components [Ang]: [  0.752707,   0.905653,   1.798489]
    Electron size [Ang]:            3.472958
      Cartesian components [Ang]: [  1.523361,   2.625723,   1.687124]

  Transition density matrix analysis:
  -----------------------------------
  
  CT numbers (Mulliken)
    omega =     0.0456
    <Phe> =    -0.0120
  
  Exciton analysis of the transition density matrix
    Trans. dipole moment [D]:             0.158195
      Cartesian components [D]:         [ -0.000000,   0.158195,   0.000000]
    <r_h> [Ang]:                        [ -0.000000,   0.000000,  -2.763684]
    <r_e> [Ang]:                        [ -0.000000,  -0.000000,   0.027298]
    |<r_e - r_h>| [Ang]:                  2.790982
    Hole size [Ang]:                      1.783786
      Cartesian components [Ang]:       [  0.954727,   0.962905,   1.158965]
    Electron size [Ang]:                  3.946033
      Cartesian components [Ang]:       [  1.497216,   2.558139,   2.604889]
    RMS electron-hole separation [Ang]:   5.128897
      Cartesian components [Ang]:       [  1.775641,   2.732143,   3.960818]
    Covariance(r_h, r_e) [Ang^2]:         0.118532
    Correlation coefficient:              0.016840
    Center-of-mass size [Ang]:            2.178883
      Cartesian components [Ang]:       [  0.887894,   1.367288,   1.445579]

  Decomposition into state-averaged NTOs
    H- 0 -> L+ 6:  0.0868 (  1.5%)
    H- 0 -> L+ 5:  0.0782 (  1.2%)
                   omega =   4.6%
  ----------------------------------------------------------------------------


  Excited state 6 (singlet, B2)                                    [converged]
  ----------------------------------------------------------------------------
  Term symbol:  6 (1) B2                                    R^2 =  3.13727e-10

  Total energy:                                            -78.6118304525 a.u.
  Excitation energy:                                               6.127611 eV

  Osc. strength:                                                      0.002451
  Trans. dip. moment [a.u.]:           [   0.000000,    0.127764,    0.000000]
  <i|r^2|0> [a.u.]:                    [   0.000000,   -0.000000,   -0.000000]

  Dip. moment [a.u.]:                  [   0.000000,    0.000000,   -3.076773]
  Total dipole [Debye]:                                               7.820379
  <r^2> [a.u.]:                        [  39.157488,   54.102436,  125.156102]
  Total <r^2> [a.u.]:                                               218.416026

  V1^2 = 0.0639, V2^2 = 0.9361

  Important amplitudes:
      occ i      occ j       vir a       vir b          v   
    ---------------------------------------------------------
     6 (A1) A   1 (B2) B    4 (B2) A    2 (B2) B      0.1761
     1 (B2) A               7 (A1) A                 -0.1507
    ---------------------------------------------------------

  Density matrix analysis:
  ------------------------
  NOs
    Occupation of frontier NOs:
       0.9565   1.0289
    Number of electrons: 18.000000
    Number of unpaired electrons: n_u =  3.72208, n_u,nl =  3.65075
    NO participation ratio (PR_NO):  4.929098
  
  
  Mulliken Population Analysis
  Atom      Charge (e)              h+              e-           Del q
  --------------------------------------------------------------------
   1 C       -1.606890        0.727304       -1.827574       -1.100270
   2 C       -0.062716        0.572702       -0.107405        0.465297
   3 H        0.049786        0.013998       -0.002465        0.011533
   4 H        0.134420        0.001576       -0.005281       -0.003705
   5 H        0.049786        0.013998       -0.002465        0.011533
   6 H        0.134420        0.001576       -0.005281       -0.003705
   7 H        0.301195        0.620454       -0.001137        0.619317
  --------------------------------------------------------------------
  Sum:       -1.000000        1.951607       -1.951607       -0.000000
  
  Multipole moment analysis of the density matrix
    Molecular charge:                      -1.000000
    Number of electrons:                   18.000000
      Center of electronic charge [Ang]: [ -0.000000,  -0.000000,   0.090453]
    Total nuclear charge:                  17.000000
      Center of nuclear charge [Ang]:    [ -0.000000,   0.000000,  -0.000000]
    Dipole moment [D]:                     7.820376
      Cartesian components [D]:          [  0.000000,   0.000000,  -7.820376]
    RMS size of the density [Ang]:         1.841127
      Cartesian components [Ang]:        [  0.780499,   0.917431,   1.392440]
  
  Exciton analysis of the difference density matrix
    <r_h> [Ang]:                  [  0.000000,   0.000000,  -1.239401]
    <r_e> [Ang]:                  [ -0.000000,  -0.000000,   0.923712]
    |<r_e - r_h>| [Ang]:            2.163114
    Hole size [Ang]:                2.148301
      Cartesian components [Ang]: [  0.743085,   0.894529,   1.806334]
    Electron size [Ang]:            3.645913
      Cartesian components [Ang]: [  1.439048,   2.436447,   2.299032]

  Transition density matrix analysis:
  -----------------------------------
  
  CT numbers (Mulliken)
    omega =     0.0622
    <Phe> =    -0.0037
  
  Exciton analysis of the transition density matrix
    Trans. dipole moment [D]:             0.162372
      Cartesian components [D]:         [  0.000000,   0.162372,   0.000000]
    <r_h> [Ang]:                        [ -0.000000,   0.000000,  -0.064990]
    <r_e> [Ang]:                        [ -0.000000,   0.000000,   2.710758]
    |<r_e - r_h>| [Ang]:                  2.775748
    Hole size [Ang]:                      1.645582
      Cartesian components [Ang]:       [  0.584704,   0.891360,   1.253611]
    Electron size [Ang]:                  3.500538
      Cartesian components [Ang]:       [  1.819309,   1.959133,   2.259575]
    RMS electron-hole separation [Ang]:   4.607755
      Cartesian components [Ang]:       [  1.910605,   2.127009,   3.613423]
    Covariance(r_h, r_e) [Ang^2]:         0.717539
    Correlation coefficient:              0.124564
    Center-of-mass size [Ang]:            2.024647
      Cartesian components [Ang]:       [  0.955657,   1.088724,   1.414425]

  Decomposition into state-averaged NTOs
    H- 1 -> L+ 0:  0.1514 (  4.6%)
                   omega =   6.2%
  ----------------------------------------------------------------------------


  Excited state 7 (singlet, B2)                                    [converged]
  ----------------------------------------------------------------------------
  Term symbol:  7 (1) B2                                    R^2 =  9.96908e-11

  Total energy:                                            -78.6104769426 a.u.
  Excitation energy:                                               6.164442 eV

  Osc. strength:                                                      0.028053
  Trans. dip. moment [a.u.]:           [  -0.000000,   -0.430987,   -0.000000]
  <i|r^2|0> [a.u.]:                    [   0.000000,    0.000000,    0.000000]

  Dip. moment [a.u.]:                  [   0.000000,   -0.000000,   -0.540845]
  Total dipole [Debye]:                                               1.374692
  <r^2> [a.u.]:                        [  37.377978,   28.117615,  151.968672]
  Total <r^2> [a.u.]:                                               217.464266

  V1^2 = 0.8742, V2^2 = 0.1258

  Important amplitudes:
      occ i      occ j       vir a       vir b          v   
    ---------------------------------------------------------
     1 (B2) A               7 (A1) A                  0.5770
     1 (B2) A               9 (A1) A                  0.2697
    ---------------------------------------------------------

  Density matrix analysis:
  ------------------------
  NOs
    Occupation of frontier NOs:
       0.9336   0.9833
    Number of electrons: 18.000000
    Number of unpaired electrons: n_u =  2.50731, n_u,nl =  2.09598
    NO participation ratio (PR_NO):  3.367565
  
  
  Mulliken Population Analysis
  Atom      Charge (e)              h+              e-           Del q
  --------------------------------------------------------------------
   1 C       -2.246848        0.455341       -2.195569       -1.740228
   2 C        0.806961        0.637994        0.696980        1.334974
   3 H        0.164600        0.116789        0.009559        0.126347
   4 H        0.202964        0.066215       -0.001376        0.064839
   5 H        0.164600        0.116789        0.009559        0.126347
   6 H        0.202964        0.066215       -0.001376        0.064839
   7 H       -0.295241        0.061374       -0.038493        0.022881
  --------------------------------------------------------------------
  Sum:       -1.000000        1.520716       -1.520716        0.000000
  
  Multipole moment analysis of the density matrix
    Molecular charge:                      -1.000000
    Number of electrons:                   18.000000
      Center of electronic charge [Ang]: [ -0.000000,   0.000000,   0.015900]
    Total nuclear charge:                  17.000000
      Center of nuclear charge [Ang]:    [ -0.000000,   0.000000,  -0.000000]
    Dipole moment [D]:                     1.374692
      Cartesian components [D]:          [  0.000000,  -0.000000,  -1.374692]
    RMS size of the density [Ang]:         1.839258
      Cartesian components [Ang]:        [  0.762558,   0.661385,   1.537513]
  
  Exciton analysis of the difference density matrix
    <r_h> [Ang]:                  [  0.000000,   0.000000,  -0.056045]
    <r_e> [Ang]:                  [ -0.000000,   0.000000,   1.837532]
    |<r_e - r_h>| [Ang]:            1.893577
    Hole size [Ang]:                2.155065
      Cartesian components [Ang]: [  0.940622,   1.001705,   1.660157]
    Electron size [Ang]:            3.369796
      Cartesian components [Ang]: [  1.583062,   1.676273,   2.457549]

  Transition density matrix analysis:
  -----------------------------------
  
  CT numbers (Mulliken)
    omega =     0.8459
    <Phe> =    -0.0038
  
  Exciton analysis of the transition density matrix
    Trans. dipole moment [D]:             0.547729
      Cartesian components [D]:         [ -0.000000,  -0.547729,  -0.000000]
    <r_h> [Ang]:                        [  0.000000,   0.000000,   0.268098]
    <r_e> [Ang]:                        [ -0.000000,   0.000000,   3.048624]
    |<r_e - r_h>| [Ang]:                  2.780525
    Hole size [Ang]:                      1.289921
      Cartesian components [Ang]:       [  0.523682,   0.885243,   0.778459]
    Electron size [Ang]:                  3.240039
      Cartesian components [Ang]:       [  1.833944,   1.861415,   1.915629]
    RMS electron-hole separation [Ang]:   4.453669
      Cartesian components [Ang]:       [  1.906866,   2.056609,   3.459681]
    Covariance(r_h, r_e) [Ang^2]:         0.028951
    Correlation coefficient:              0.006927
    Center-of-mass size [Ang]:            1.747831
      Cartesian components [Ang]:       [  0.953815,   1.032885,   1.038412]

  Decomposition into state-averaged NTOs
    H- 1 -> L+ 0: -0.6069 ( 73.7%)
    H- 1 -> L+ 1: -0.2306 ( 10.6%)
                   omega =  84.6%
  ----------------------------------------------------------------------------


  Excited state 8 (singlet, B2)                                    [converged]
  ----------------------------------------------------------------------------
  Term symbol:  8 (1) B2                                    R^2 =  2.57638e-10

  Total energy:                                            -78.5837723912 a.u.
  Excitation energy:                                               6.891110 eV

  Osc. strength:                                                      0.013512
  Trans. dip. moment [a.u.]:           [  -0.000000,   -0.282901,   -0.000000]
  <i|r^2|0> [a.u.]:                    [  -0.000000,   -0.000000,    0.000000]

  Dip. moment [a.u.]:                  [   0.000000,    0.000000,   -0.177646]
  Total dipole [Debye]:                                               0.451531
  <r^2> [a.u.]:                        [  32.061694,   34.619063,  102.886544]
  Total <r^2> [a.u.]:                                               169.567301

  V1^2 = 0.7837, V2^2 = 0.2163

  Important amplitudes:
      occ i      occ j       vir a       vir b          v   
    ---------------------------------------------------------
     6 (A1) A               6 (B2) A                  0.5741
     6 (A1) A               4 (B2) A                 -0.1676
    ---------------------------------------------------------

  Density matrix analysis:
  ------------------------
  NOs
    Occupation of frontier NOs:
       0.8527   1.0215
    Number of electrons: 18.000000
    Number of unpaired electrons: n_u =  2.67257, n_u,nl =  2.19759
    NO participation ratio (PR_NO):  4.071631
  
  
  Mulliken Population Analysis
  Atom      Charge (e)              h+              e-           Del q
  --------------------------------------------------------------------
   1 C       -0.508258        0.520355       -0.521993       -0.001638
   2 C       -0.729495        0.467524       -0.669006       -0.201482
   3 H        0.041031        0.008614       -0.005836        0.002778
   4 H        0.067440       -0.007079       -0.063607       -0.070686
   5 H        0.041031        0.008614       -0.005836        0.002778
   6 H        0.067440       -0.007079       -0.063607       -0.070686
   7 H        0.020813        0.426628       -0.087693        0.338935
  --------------------------------------------------------------------
  Sum:       -1.000000        1.417579       -1.417579       -0.000000
  
  Multipole moment analysis of the density matrix
    Molecular charge:                      -1.000000
    Number of electrons:                   18.000000
      Center of electronic charge [Ang]: [ -0.000000,  -0.000000,   0.005223]
    Total nuclear charge:                  17.000000
      Center of nuclear charge [Ang]:    [ -0.000000,   0.000000,  -0.000000]
    Dipole moment [D]:                     0.451530
      Cartesian components [D]:          [  0.000000,   0.000000,  -0.451530]
    RMS size of the density [Ang]:         1.624178
      Cartesian components [Ang]:        [  0.706249,   0.733876,   1.265145]
  
  Exciton analysis of the difference density matrix
    <r_h> [Ang]:                  [ -0.000000,   0.000000,  -2.116733]
    <r_e> [Ang]:                  [ -0.000000,  -0.000000,  -0.220967]
    |<r_e - r_h>| [Ang]:            1.895766
    Hole size [Ang]:                2.417571
      Cartesian components [Ang]: [  1.105590,   1.184761,   1.794063]
    Electron size [Ang]:            3.410738
      Cartesian components [Ang]: [  1.382543,   2.150783,   2.257397]

  Transition density matrix analysis:
  -----------------------------------
  
  CT numbers (Mulliken)
    omega =     0.7677
    <Phe> =    -0.0049
  
  Exciton analysis of the transition density matrix
    Trans. dipole moment [D]:             0.359532
      Cartesian components [D]:         [ -0.000000,  -0.359532,  -0.000000]
    <r_h> [Ang]:                        [ -0.000000,   0.000000,  -2.624054]
    <r_e> [Ang]:                        [ -0.000000,  -0.000000,   0.270732]
    |<r_e - r_h>| [Ang]:                  2.894785
    Hole size [Ang]:                      1.874447
      Cartesian components [Ang]:       [  0.936456,   0.955889,   1.312585]
    Electron size [Ang]:                  3.513920
      Cartesian components [Ang]:       [  1.365677,   2.257100,   2.321218]
    RMS electron-hole separation [Ang]:   4.887295
      Cartesian components [Ang]:       [  1.655733,   2.449257,   3.891702]
    Covariance(r_h, r_e) [Ang^2]:         0.177657
    Correlation coefficient:              0.026972
    Center-of-mass size [Ang]:            2.013486
      Cartesian components [Ang]:       [  0.828039,   1.226539,   1.365312]

  Decomposition into state-averaged NTOs
    H- 0 -> L+ 6: -0.5291 ( 56.0%)
    H- 0 -> L+ 5: -0.1770 (  6.3%)
    H- 1 -> L+ 1: -0.1537 (  4.7%)
    H- 0 -> L+ 4: -0.1380 (  3.8%)
    H- 0 -> L+ 3: -0.1340 (  3.6%)
    H- 0 -> L+ 2: -0.0934 (  1.7%)
                   omega =  76.8%
  ----------------------------------------------------------------------------


  Excited state 9 (singlet, B2)                                    [converged]
  ----------------------------------------------------------------------------
  Term symbol:  9 (1) B2                                    R^2 =  7.98829e-10

  Total energy:                                            -78.5750836464 a.u.
  Excitation energy:                                               7.127542 eV

  Osc. strength:                                                      0.161835
  Trans. dip. moment [a.u.]:           [  -0.000000,    0.962690,    0.000000]
  <i|r^2|0> [a.u.]:                    [   0.000000,    0.000000,   -0.000000]

  Dip. moment [a.u.]:                  [   0.000000,    0.000000,    3.076691]
  Total dipole [Debye]:                                               7.820171
  <r^2> [a.u.]:                        [  39.093543,   28.313255,  131.826829]
  Total <r^2> [a.u.]:                                               199.233626

  V1^2 = 0.9178, V2^2 = 0.0822

  Important amplitudes:
      occ i      occ j       vir a       vir b          v   
    ---------------------------------------------------------
     1 (B2) A               8 (A1) A                 -0.4309
     1 (B2) A               9 (A1) A                 -0.3275
    ---------------------------------------------------------

  Density matrix analysis:
  ------------------------
  NOs
    Occupation of frontier NOs:
       0.9285   1.0247
    Number of electrons: 18.000000
    Number of unpaired electrons: n_u =  2.46236, n_u,nl =  2.07130
    NO participation ratio (PR_NO):  3.303506
  
  
  Mulliken Population Analysis
  Atom      Charge (e)              h+              e-           Del q
  --------------------------------------------------------------------
   1 C       -1.174128        0.505910       -1.173418       -0.667508
   2 C       -0.139464        0.557493       -0.168944        0.388549
   3 H        0.121910        0.086486       -0.002829        0.083657
   4 H        0.194018        0.068719       -0.012826        0.055893
   5 H        0.121910        0.086486       -0.002829        0.083657
   6 H        0.194018        0.068719       -0.012826        0.055893
   7 H       -0.318263        0.045296       -0.045437       -0.000141
  --------------------------------------------------------------------
  Sum:       -1.000000        1.419111       -1.419111        0.000000
  
  Multipole moment analysis of the density matrix
    Molecular charge:                      -1.000000
    Number of electrons:                   18.000000
      Center of electronic charge [Ang]: [ -0.000000,  -0.000000,  -0.090451]
    Total nuclear charge:                  17.000000
      Center of nuclear charge [Ang]:    [ -0.000000,   0.000000,  -0.000000]
    Dipole moment [D]:                     7.820168
      Cartesian components [D]:          [  0.000000,   0.000000,   7.820168]
    RMS size of the density [Ang]:         1.758216
      Cartesian components [Ang]:        [  0.779861,   0.663682,   1.429219]
  
  Exciton analysis of the difference density matrix
    <r_h> [Ang]:                  [  0.000000,   0.000000,  -0.091539]
    <r_e> [Ang]:                  [ -0.000000,  -0.000000,   0.588659]
    |<r_e - r_h>| [Ang]:            0.680198
    Hole size [Ang]:                2.106529
      Cartesian components [Ang]: [  0.930936,   1.023864,   1.588246]
    Electron size [Ang]:            3.362822
      Cartesian components [Ang]: [  1.715391,   1.738598,   2.311554]

  Transition density matrix analysis:
  -----------------------------------
  
  CT numbers (Mulliken)
    omega =     0.8890
    <Phe> =    -0.0157
  
  Exciton analysis of the transition density matrix
    Trans. dipole moment [D]:             1.223457
      Cartesian components [D]:         [ -0.000000,   1.223457,   0.000000]
    <r_h> [Ang]:                        [  0.000000,  -0.000000,   0.129177]
    <r_e> [Ang]:                        [ -0.000000,  -0.000000,   0.968205]
    |<r_e - r_h>| [Ang]:                  0.839028
    Hole size [Ang]:                      1.451503
      Cartesian components [Ang]:       [  0.549006,   0.888345,   1.008115]
    Electron size [Ang]:                  3.687859
      Cartesian components [Ang]:       [  1.950628,   1.971824,   2.430486]
    RMS electron-hole separation [Ang]:   4.012271
      Cartesian components [Ang]:       [  2.025756,   2.155191,   2.711049]
    Covariance(r_h, r_e) [Ang^2]:         0.156406
    Correlation coefficient:              0.029219
    Center-of-mass size [Ang]:            2.001248
      Cartesian components [Ang]:       [  1.013537,   1.085086,   1.341762]

  Decomposition into state-averaged NTOs
    H- 1 -> L+ 1: -0.6058 ( 73.4%)
    H- 1 -> L+ 0:  0.2392 ( 11.4%)
    H- 0 -> L+ 6:  0.1215 (  3.0%)
                   omega =  88.9%
  ----------------------------------------------------------------------------


  Excited state 10 (singlet, B2)                                    [converged]
  ----------------------------------------------------------------------------
  Term symbol:  10 (1) B2                                   R^2 =  7.45002e-06

  Total energy:                                            -78.5360862769 a.u.
  Excitation energy:                                               8.188715 eV

  Osc. strength:                                                      0.000005
  Trans. dip. moment [a.u.]:           [  -0.000000,   -0.004973,    0.000000]
  <i|r^2|0> [a.u.]:                    [  -0.000000,   -0.000000,    0.000000]

  Dip. moment [a.u.]:                  [  -0.000000,   -0.000000,    0.122395]
  Total dipole [Debye]:                                               0.311096
  <r^2> [a.u.]:                        [  32.874278,   35.914395,  106.579515]
  Total <r^2> [a.u.]:                                               175.368187

  V1^2 = 0.0152, V2^2 = 0.9848

  Important amplitudes:
      occ i      occ j       vir a       vir b          v   
    ---------------------------------------------------------
     6 (A1) A   1 (B2) B    4 (B2) A    4 (B2) B     -0.2705
     6 (A1) A   1 (B2) B    6 (B2) A    4 (B2) B     -0.1005
    ---------------------------------------------------------

  Density matrix analysis:
  ------------------------
  NOs
    Occupation of frontier NOs:
       0.9712   0.9725
    Number of electrons: 18.000000
    Number of unpaired electrons: n_u =  2.78977, n_u,nl =  2.32953
    NO participation ratio (PR_NO):  3.908076
  
  
  Mulliken Population Analysis
  Atom      Charge (e)              h+              e-           Del q
  --------------------------------------------------------------------
   1 C       -0.561011        0.698601       -0.752991       -0.054391
   2 C       -1.106697        0.621097       -1.199781       -0.578684
   3 H        0.039242        0.008630       -0.007641        0.000989
   4 H        0.129949        0.000869       -0.009044       -0.008176
   5 H        0.039242        0.008630       -0.007641        0.000989
   6 H        0.129949        0.000869       -0.009044       -0.008176
   7 H        0.329326        0.651848       -0.004400        0.647448
  --------------------------------------------------------------------
  Sum:       -1.000000        1.990543       -1.990543       -0.000000
  
  Multipole moment analysis of the density matrix
    Molecular charge:                      -1.000000
    Number of electrons:                   18.000000
      Center of electronic charge [Ang]: [  0.000000,   0.000000,  -0.003598]
    Total nuclear charge:                  17.000000
      Center of nuclear charge [Ang]:    [ -0.000000,   0.000000,  -0.000000]
    Dipole moment [D]:                     0.311096
      Cartesian components [D]:          [ -0.000000,  -0.000000,   0.311096]
    RMS size of the density [Ang]:         1.651731
      Cartesian components [Ang]:        [  0.715143,   0.747479,   1.287657]
  
  Exciton analysis of the difference density matrix
    <r_h> [Ang]:                  [  0.000000,   0.000000,  -1.295524]
    <r_e> [Ang]:                  [  0.000000,   0.000000,  -0.025207]
    |<r_e - r_h>| [Ang]:            1.270317
    Hole size [Ang]:                2.135168
      Cartesian components [Ang]: [  0.740278,   0.891526,   1.793352]
    Electron size [Ang]:            2.831780
      Cartesian components [Ang]: [  1.073811,   1.808801,   1.895823]

  Transition density matrix analysis:
  -----------------------------------
  
  CT numbers (Mulliken)
    omega =     0.0168
    <Phe> =     0.0160
  
  Exciton analysis of the transition density matrix
    Trans. dipole moment [D]:             0.006320
      Cartesian components [D]:         [ -0.000000,  -0.006320,   0.000000]
    <r_h> [Ang]:                        [ -0.000000,   0.000000,  -0.587214]
    <r_e> [Ang]:                        [ -0.000000,   0.000000,   0.046809]
    |<r_e - r_h>| [Ang]:                  0.634023
    Hole size [Ang]:                      1.970118
      Cartesian components [Ang]:       [  0.669925,   0.861951,   1.640001]
    Electron size [Ang]:                  4.047373
      Cartesian components [Ang]:       [  1.749153,   1.959928,   3.079022]
    RMS electron-hole separation [Ang]:   4.646148
      Cartesian components [Ang]:       [  1.872807,   2.121628,   3.684831]
    Covariance(r_h, r_e) [Ang^2]:        -0.461053
    Correlation coefficient:             -0.057821
    Center-of-mass size [Ang]:            2.198891
      Cartesian components [Ang]:       [  0.936652,   1.080192,   1.670626]

  Decomposition into state-averaged NTOs
                   omega =   1.7%
  ----------------------------------------------------------------------------


--------------------------------------------------------------------------------
  Time of ADC calculation:  CPU 586.35 s  wall 143.54 s
================================================================================
 
 --------------------------------------------------------------
             Orbital Energies (a.u.) and Symmetries
 --------------------------------------------------------------
 
 Alpha MOs, Restricted
 -- Occupied --                  
-11.076 -11.072  -0.884  -0.621  -0.502  -0.406  -0.354  -0.220
  1 A1    2 A1    3 A1    4 A1    1 B1    5 A1    2 B1    1 B2                 
 -0.036
  6 A1                                                                         
 -- Virtual --                   
  0.132   0.134   0.140   0.173   0.179   0.203   0.232   0.278
  7 A1    3 B1    2 B2    4 B1    3 B2    8 A1    9 A1    4 B2                 
  0.295   0.308   0.332   0.334   0.391   0.410   0.428   0.445
  5 B1   10 A1    6 B1    5 B2   11 A1   12 A1    6 B2   13 A1                 
  0.489   0.505   0.631   0.692   0.872   0.945   1.015   1.042
  7 B1   14 A1    8 B1   15 A1   16 A1    9 B1   17 A1    7 B2                 
  1.047   1.090   1.105   1.132   1.189   1.201   1.213   1.272
 10 B1   18 A1    8 B2   19 A1   20 A1   21 A1   11 B1    1 A2                 
  1.444   1.445   1.502   1.512   1.754   1.760   1.837   1.879
  9 B2    2 A2   12 B1   22 A1   23 A1   13 B1   14 B1   10 B2                 
  1.954   2.010   2.034   2.101   2.162   2.176   2.209   2.282
 15 B1   11 B2   24 A1   12 B2   25 A1    3 A2   16 B1   26 A1                 
  2.335   2.482   2.572   2.604   2.718   2.734   2.963   2.966
 13 B2   27 A1    4 A2   28 A1   17 B1   29 A1   30 A1   18 B1                 
  3.422   3.505
 31 A1   19 B1                                                                 
 
 Beta MOs, Restricted
 -- Occupied --                  
-11.076 -11.072  -0.884  -0.621  -0.502  -0.406  -0.354  -0.220
  1 A1    2 A1    3 A1    4 A1    1 B1    5 A1    2 B1    1 B2                 
 -0.036
  6 A1                                                                         
 -- Virtual --                   
  0.132   0.134   0.140   0.173   0.179   0.203   0.232   0.278
  7 A1    3 B1    2 B2    4 B1    3 B2    8 A1    9 A1    4 B2                 
  0.295   0.308   0.332   0.334   0.391   0.410   0.428   0.445
  5 B1   10 A1    6 B1    5 B2   11 A1   12 A1    6 B2   13 A1                 
  0.489   0.505   0.631   0.692   0.872   0.945   1.015   1.042
  7 B1   14 A1    8 B1   15 A1   16 A1    9 B1   17 A1    7 B2                 
  1.047   1.090   1.105   1.132   1.189   1.201   1.213   1.272
 10 B1   18 A1    8 B2   19 A1   20 A1   21 A1   11 B1    1 A2                 
  1.444   1.445   1.502   1.512   1.754   1.760   1.837   1.879
  9 B2    2 A2   12 B1   22 A1   23 A1   13 B1   14 B1   10 B2                 
  1.954   2.010   2.034   2.101   2.162   2.176   2.209   2.282
 15 B1   11 B2   24 A1   12 B2   25 A1    3 A2   16 B1   26 A1                 
  2.335   2.482   2.572   2.604   2.718   2.734   2.963   2.966
 13 B2   27 A1    4 A2   28 A1   17 B1   29 A1   30 A1   18 B1                 
  3.422   3.505
 31 A1   19 B1                                                                 
 --------------------------------------------------------------
 
          Ground-State Mulliken Net Atomic Charges

     Atom                 Charge (a.u.)
  ----------------------------------------
      1 C                    -0.590722
      2 C                    -0.388735
      3 H                     0.031756
      4 H                     0.133662
      5 H                     0.031756
      6 H                     0.133662
      7 H                    -0.351379
  ----------------------------------------
  Sum of atomic charges =    -1.000000

 -----------------------------------------------------------------
                    Cartesian Multipole Moments
 -----------------------------------------------------------------
    Charge (ESU x 10^10)
                -4.8032
    Dipole Moment (Debye)
         X      -0.0000      Y      -0.0000      Z      12.4568
       Tot      12.4568
    Quadrupole Moments (Debye-Ang)
        XX     -20.0251     XY       0.0000     YY     -24.2967
        XZ       0.0000     YZ      -0.0000     ZZ     -63.1533
    Octopole Moments (Debye-Ang^2)
       XXX       0.0000    XXY      -0.0000    XYY       0.0000
       YYY      -0.0000    XXZ      17.7595    XYZ       0.0000
       YYZ      17.6857    XZZ      -0.0000    YZZ       0.0000
       ZZZ     170.1278
    Hexadecapole Moments (Debye-Ang^3)
      XXXX     -68.5935   XXXY       0.0000   XXYY     -22.9314
      XYYY       0.0000   YYYY     -64.0130   XXXZ       0.0000
      XXYZ      -0.0000   XYYZ       0.0000   YYYZ      -0.0000
      XXZZ     -93.1734   XYZZ       0.0000   YYZZ     -96.3145
      XZZZ       0.0000   YZZZ      -0.0000   ZZZZ    -801.6365
 -----------------------------------------------------------------
 Total job time:  226.58s(wall), 632.48s(cpu) 
 Sun Mar 27 11:40:53 2022

        *************************************************************
        *                                                           *
        *  Thank you very much for using Q-Chem.  Have a nice day.  *
        *                                                           *
        *************************************************************


