/src/tsommerfeld/qchem/exe/qcprog.exe .input1.638889.31567.qcin.1 /src/jdavis/qchem.scratch/qchem31567/

                  Welcome to Q-Chem
     A Quantum Leap Into The Future Of Chemistry


 Q-Chem 5.4 (devel), Q-Chem, Inc., Pleasanton, CA (2021)

 E. Epifanovsky,  A. T. B. Gilbert,  Xintian Feng,  Joonho Lee,  Yuezhi Mao,  
 N. Mardirossian,  P. Pokhilko,  A. White,  M. Wormit,  M. P. Coons,  
 A. L. Dempwolff,  Zhengting Gan,  D. Hait,  P. R. Horn,  L. D. Jacobson,  
 I. Kaliman,  J. Kussmann,  A. W. Lange,  Ka Un Lao,  D. S. Levine,  Jie Liu,  
 S. C. McKenzie,  A. F. Morrison,  K. Nanda,  F. Plasser,  D. R. Rehn,  
 M. L. Vidal,  Zhi-Qiang You,  Ying Zhu,  B. Alam,  B. Albrecht,  
 A. Aldossary,  E. Alguire,  J. H. Andersen,  D. Barton,  K. Begam,  A. Behn,  
 Y. A. Bernard,  E. J. Berquist,  H. Burton,  A. Carreras,  K. Carter-Fenk,  
 R. Chakraborty,  A. D. Chien,  K. D. Closser,  V. Cofer-Shabica,  
 S. Dasgupta,  Jia Deng,  M. de Wergifosse,  M. Diedenhofen,  Hainam Do,  
 S. Ehlert,  Po-Tung Fang,  S. Fatehi,  Qingguo Feng,  T. Friedhoff,  
 J. Gayvert,  Qinghui Ge,  G. Gidofalvi,  M. Goldey,  J. Gomes,  
 C. Gonzalez-Espinoza,  S. Gulania,  A. Gunina,  M. W. D. Hanson-Heine,  
 P. H. P. Harbach,  A. W. Hauser,  M. F. Herbst,  M. Hernandez Vera,  
 M. Hodecker,  Z. C. Holden,  S. Houck,  Xunkun Huang,  Kerwin Hui,  
 B. C. Huynh,  M. Ivanov,  Hyunjun Ji,  Hanjie Jiang,  B. Kaduk,  S. Kaehler,  
 K. Khistyaev,  Jaehoon Kim,  P. Klunzinger,  Z. Koczor-Benda,  
 Joong Hoon Koh,  D. Kosenkov,  L. Koulias,  T. Kowalczyk,  C. M. Krauter,  
 K. Kue,  A. Kunitsa,  T. Kus,  A. Landau,  K. V. Lawler,  D. Lefrancois,  
 S. Lehtola,  Rain Li,  Yi-Pei Li,  Jiashu Liang,  M. Liebenthal,  
 Hung-Hsuan Lin,  You-Sheng Lin,  Fenglai Liu,  Kuan-Yu Liu,  
 M. Loipersberger,  A. Luenser,  A. Manjanath,  P. Manohar,  E. Mansoor,  
 S. F. Manzer,  Shan-Ping Mao,  A. V. Marenich,  T. Markovich,  S. Mason,  
 S. A. Maurer,  P. F. McLaughlin,  M. F. S. J. Menger,  J.-M. Mewes,  
 S. A. Mewes,  P. Morgante,  J. W. Mullinax,  K. J. Oosterbaan,  G. Paran,  
 Alexander C. Paul,  Suranjan K. Paul,  F. Pavosevic,  Zheng Pei,  S. Prager,  
 E. I. Proynov,  E. Ramos,  B. Rana,  A. E. Rask,  A. Rettig,  R. M. Richard,  
 F. Rob,  E. Rossomme,  T. Scheele,  M. Scheurer,  M. Schneider,  
 N. Sergueev,  S. M. Sharada,  W. Skomorowski,  D. W. Small,  C. J. Stein,  
 Yu-Chuan Su,  E. J. Sundstrom,  Zhen Tao,  J. Thirman,  T. Tsuchimochi,  
 N. M. Tubman,  S. P. Veccham,  O. Vydrov,  J. Wenzel,  J. Witte,  A. Yamada,  
 Kun Yao,  S. Yeganeh,  S. R. Yost,  A. Zech,  Igor Ying Zhang,  Xing Zhang,  
 Yu Zhang,  D. Zuev,  A. Aspuru-Guzik,  A. T. Bell,  N. A. Besley,  
 K. B. Bravaya,  B. R. Brooks,  D. Casanova,  Jeng-Da Chai,  S. Coriani,  
 C. J. Cramer,  A. E. DePrince, III,  R. A. DiStasio Jr.,  A. Dreuw,  
 B. D. Dunietz,  T. R. Furlani,  W. A. Goddard III,  S. Grimme,  
 S. Hammes-Schiffer,  T. Head-Gordon,  W. J. Hehre,  Chao-Ping Hsu,  
 T.-C. Jagau,  Yousung Jung,  A. Klamt,  Jing Kong,  D. S. Lambrecht,  
 WanZhen Liang,  N. J. Mayhall,  C. W. McCurdy,  J. B. Neaton,  
 C. Ochsenfeld,  J. A. Parkhill,  R. Peverati,  V. A. Rassolov,  Yihan Shao,  
 L. V. Slipchenko,  T. Stauch,  R. P. Steele,  J. E. Subotnik,  
 A. J. W. Thom,  A. Tkatchenko,  D. G. Truhlar,  T. Van Voorhis,  
 T. A. Wesolowski,  K. B. Whaley,  H. L. Woodcock III,  P. M. Zimmerman,  
 S. Faraji,  P. M. W. Gill,  M. Head-Gordon,  J. M. Herbert,  A. I. Krylov

 Additional authors for Version 5.4.1: 
 S. Kotaru,  Shaozhi Li,  Xiangyuan Li,  F. Matz,  A. Molle,  Haisheng Ren,  
 Yingli Su,  Hung-Yi Tsai,  C. Utku,  Fang Wang

 Contributors to earlier versions of Q-Chem not listed above: 
 R. D. Adamson,  B. Austin,  R. Baer,  J. Baker,  G. J. O. Beran,  
 K. Brandhorst,  S. T. Brown,  E. F. C. Byrd,  A. K. Chakraborty,  
 G. K. L. Chan,  Chun-Min Chang,  Yunqing Chen,  C.-L. Cheng,  
 Siu Hung Chien,  D. M. Chipman,  D. L. Crittenden,  H. Dachsel,  
 R. J. Doerksen,  A. D. Dutoi,  R. G. Edgar,  J. Fosso-Tande,  
 L. Fusti-Molnar,  D. Ghosh,  A. Ghysels,  A. Golubeva-Zadorozhnaya,  
 J. Gonthier,  M. S. Gordon,  S. R. Gwaltney,  G. Hawkins,  J. E. Herr,  
 A. Heyden,  S. Hirata,  E. G. Hohenstein,  G. Kedziora,  F. J. Keil,  
 C. Kelley,  Jihan Kim,  R. A. King,  R. Z. Khaliullin,  P. P. Korambath,  
 W. Kurlancheek,  A. Laurent,  A. M. Lee,  M. S. Lee,  S. V. Levchenko,  
 Ching Yeh Lin,  D. Liotard,  E. Livshits,  R. C. Lochan,  I. Lotan,  
 L. A. Martinez-Martinez,  P. E. Maslen,  N. Nair,  D. P. O'Neill,  
 D. Neuhauser,  E. Neuscamman,  C. M. Oana,  R. Olivares-Amaya,  R. Olson,  
 T. M. Perrine,  B. Peters,  P. A. Pieniazek,  A. Prociuk,  Y. M. Rhee,  
 J. Ritchie,  M. A. Rohrdanz,  E. Rosta,  N. J. Russ,  H. F. Schaefer III,  
 M. W. Schmidt,  N. E. Schultz,  S. Sharma,  N. Shenvi,  C. D. Sherrill,  
 A. C. Simmonett,  A. Sodt,  T. Stein,  D. Stuck,  K. S. Thanthiriwatte,  
 V. Vanovschi,  L. Vogt,  Tao Wang,  A. Warshel,  M. A. Watson,  
 C. F. Williams,  Q. Wu,  X. Xu,  Jun Yang,  W. Zhang,  Yan Zhao

 Please cite Q-Chem as follows:
 Y. Shao et al., Mol. Phys. 113, 184-215 (2015)
 DOI: 10.1080/00268976.2014.952696

 Q-Chem 5.4.1 for Intel X86 EM64T Linux

 Parts of Q-Chem use Armadillo 9.900.5 (Nocturnal Misbehaviour).
 http://arma.sourceforge.net/

 Q-Chem begins on Sun Mar 27 13:49:23 2022  

 Host: node01
0

     Scratch files written to /src/jdavis/qchem.scratch/qchem31567//
 Processing $rem in /src/tsommerfeld/qchem/config/preferences:
 Processing $rem in /home/jdavis/.qchemrc:

 Checking the input file for inconsistencies... 	...done.

--------------------------------------------------------------
User input:
--------------------------------------------------------------
$molecule
-1 1
C         0.0000000000    0.0000000000    0.8417902907
C         0.0000000000    0.0000000000   -0.4872097093
H         0.9623488518    0.0000000000    1.3363703127
H         0.9623489048    0.0000000000   -0.9817896873
H        -0.9623488518    0.0000000000    1.3363703127
H        -0.9623489048    0.0000000000   -0.9817896873
H         0.0000000000    0.0000000000   -2.8366446508
$end

$rem
   METHOD adc(3)
   BASIS gen
   PURECART 11
   EE_STATES [0,0,0,10]
   scf_convergence 8
   ADC_DAVIDSON_MAXITER 120
   ADC_DAVIDSON_MAXSUBSPACE 200
   adc_nguess_singles 100
   THRESH 14
   S2THRESH 14
   adc_davidson_conv 5
   adc_davidson_thresh 14
   THREADS 10
   MEM_TOTAL 95000
   STATE_ANALYSIS TRUE
$end
$basis
C 1
S   9   1.00
      6.665000D+03           6.920000D-04
      1.000000D+03           5.329000D-03
      2.280000D+02           2.707700D-02
      6.471000D+01           1.017180D-01
      2.106000D+01           2.747400D-01
      7.495000D+00           4.485640D-01
      2.797000D+00           2.850740D-01
      5.215000D-01           1.520400D-02
      1.596000D-01          -3.191000D-03
S   9   1.00
      6.665000D+03          -1.460000D-04
      1.000000D+03          -1.154000D-03
      2.280000D+02          -5.725000D-03
      6.471000D+01          -2.331200D-02
      2.106000D+01          -6.395500D-02
      7.495000D+00          -1.499810D-01
      2.797000D+00          -1.272620D-01
      5.215000D-01           5.445290D-01
      1.596000D-01           5.804960D-01
S   1   1.00
      1.596000D-01           1.000000D+00
S   1   1.00
      0.0469000              1.0000000
P   4   1.00
      9.439000D+00           3.810900D-02
      2.002000D+00           2.094800D-01
      5.456000D-01           5.085570D-01
      1.517000D-01           4.688420D-01
P   1   1.00
      1.517000D-01           1.000000D+00
P   1   1.00
      0.0994478      1.0000000
P   1   1.00
      0.0497239      1.0000000
D   1   1.00
      5.500000D-01           1.0000000
****
C 2
S   9   1.00
      6.665000D+03           6.920000D-04
      1.000000D+03           5.329000D-03
      2.280000D+02           2.707700D-02
      6.471000D+01           1.017180D-01
      2.106000D+01           2.747400D-01
      7.495000D+00           4.485640D-01
      2.797000D+00           2.850740D-01
      5.215000D-01           1.520400D-02
      1.596000D-01          -3.191000D-03
S   9   1.00
      6.665000D+03          -1.460000D-04
      1.000000D+03          -1.154000D-03
      2.280000D+02          -5.725000D-03
      6.471000D+01          -2.331200D-02
      2.106000D+01          -6.395500D-02
      7.495000D+00          -1.499810D-01
      2.797000D+00          -1.272620D-01
      5.215000D-01           5.445290D-01
      1.596000D-01           5.804960D-01
S   1   1.00
      1.596000D-01           1.000000D+00
S   1   1.00
      0.0469000              1.0000000
P   4   1.00
      9.439000D+00           3.810900D-02
      2.002000D+00           2.094800D-01
      5.456000D-01           5.085570D-01
      1.517000D-01           4.688420D-01
P   1   1.00
      1.517000D-01           1.000000D+00
P   1   1.00
      0.0994478      1.0000000
P   1   1.00
      0.0497239      1.0000000
D   1   1.00
      5.500000D-01           1.0000000
****
H 3
cc-pVDZ
****
H 4
cc-pVDZ
****
H 5
cc-pVDZ
****
H 6
cc-pVDZ
****
H 7
aug-cc-pVDZ
****
$end
--------------------------------------------------------------
 ----------------------------------------------------------------
             Standard Nuclear Orientation (Angstroms)
    I     Atom           X                Y                Z
 ----------------------------------------------------------------
    1      C       0.0000000000     0.0000000000     0.8417902855
    2      C       0.0000000000     0.0000000000    -0.4872097145
    3      H       0.9623488518     0.0000000000     1.3363703075
    4      H       0.9623489048     0.0000000000    -0.9817896925
    5      H      -0.9623488518     0.0000000000     1.3363703075
    6      H      -0.9623489048     0.0000000000    -0.9817896925
    7      H       0.0000000000     0.0000000000    -2.8366446560
 ----------------------------------------------------------------
 Molecular Point Group                 C2v   NOp =  4
 Largest Abelian Subgroup              C2v   NOp =  4
 Nuclear Repulsion Energy =          36.55739271 hartrees
 There are        9 alpha and        9 beta electrons
 Requested basis set is non-standard
 There are 33 shells and 67 basis functions
 Total memory of 95000 MB is distributed as follows: 
   MEM_STATIC is set to 192 MB
   QALLOC/CCMAN JOB total memory use is  94808 MB
 Warning: actual memory use might exceed 95000 MB

 Total QAlloc Memory Limit  95000 MB
 Mega-Array Size       188 MB
 MEM_STATIC part       192 MB

                       Distance Matrix (Angstroms)
             C (  1)   C (  2)   H (  3)   H (  4)   H (  5)   H (  6)
   C (  2)  1.329000
   H (  3)  1.082000  2.061931
   H (  4)  2.061931  1.082000  2.318160
   H (  5)  1.082000  2.061931  1.924698  3.013026
   H (  6)  2.061931  1.082000  3.013026  1.924698  2.318160
   H (  7)  3.678435  2.349435  4.282542  2.089642  4.282542  2.089642

 
 A cutoff of  1.0D-14 yielded    561 shell pairs
 There are      2337 function pairs (      2484 Cartesian)
 Smallest overlap matrix eigenvalue = 9.60E-05

 Scale SEOQF with 1.000000e-01/1.000000e-01/1.000000e-01

 Standard Electronic Orientation quadrupole field applied
 Nucleus-field energy     =    -0.0000000019 hartrees
 ================ Generating on-the-fly SAD Guess ================
Attempting to make child job directory: /src/jdavis/qchem.scratch/qchem31567//Frg1/
Attempting to make child job directory: /src/jdavis/qchem.scratch/qchem31567//Frg2/
Creating input file /src/jdavis/qchem.scratch/qchem31567/Frg1.input
using default PutDataFrgm: nothing
calling putenv with: QCSCRATCH=/src/jdavis/qchem.scratch/qchem31567/ 
Spawning Job For Fragment 0
Done Job For Fragment 0
calling putenv with: QCSCRATCH=/src/jdavis/qchem.scratch 
calling putenv with: QCTHREADS=1 
Creating input file /src/jdavis/qchem.scratch/qchem31567/Frg2.input
using default PutDataFrgm: nothing
calling putenv with: QCSCRATCH=/src/jdavis/qchem.scratch/qchem31567/ 
Spawning Job For Fragment 1
Done Job For Fragment 1
calling putenv with: QCSCRATCH=/src/jdavis/qchem.scratch 
calling putenv with: QCTHREADS=1 
 Time for running child jobs:  CPU 1.77 s  wall 54.47 s
 ============= Method Specific SAD Guess Constructed =============
 Guess from on-the-fly superposition of atomic densities
 Warning: Energy on first SCF cycle will be non-variational
 A restricted Hartree-Fock SCF calculation will be
 performed using Pulay DIIS extrapolation
 SCF converges when DIIS error is below 1.0E-08
 using 10 threads for integral computing
 -------------------------------------------------------
 OpenMP Integral computing Module                
 Release: version 1.0, May 2013, Q-Chem Inc. Pittsburgh 
 -------------------------------------------------------
 ---------------------------------------
  Cycle       Energy         DIIS Error
 ---------------------------------------
    1     -78.8409741230      7.39E-02
    2     -78.4364229151      7.17E-03
    3     -78.4910457478      2.31E-03
    4     -78.4951193750      8.95E-04
    5     -78.4958965476      2.38E-04
    6     -78.4959882786      8.10E-05
    7     -78.4960033983      3.83E-05
    8     -78.4960063364      6.76E-06
    9     -78.4960064393      1.35E-06
   10     -78.4960064438      2.58E-07
   11     -78.4960064440      5.26E-08
   12     -78.4960064440      1.02E-08
   13     -78.4960064440      1.86E-09 Convergence criterion met
 ---------------------------------------
 SCF time:  CPU 12.91 s  wall 1.30 s
 SCF   energy in the final basis set = -78.49600644
 Total energy in the final basis set = -78.49600644
================================================================================
|                                                                              |
|                                 A D C  M A N                                 |
|                                                                              |
 ------------------------------------------------------------------------------ 
|                                                                              |
| Components:                                                                  |
|                                                                              |
| - libvmm - 1.3-trunk                                                         |
|   Authors:                                                                   |
|   Evgeny Epifanovsky, Ilya Kaliman                                           |
|                                                                              |
| - libtensor - 2.5-trunk                                                      |
|   Authors:                                                                   |
|   Evgeny Epifanovsky, Michael Wormit, Dmitry Zuev, Sam Manzer,               |
|   Ilya Kaliman                                                               |
|                                                                              |
| - libwfa - 1.1-trunk                                                         |
|   Authors:                                                                   |
|   Felix Plasser, Stefanie Mewes (Baeppler), Benjamin Thomitzni,              |
|   Michael Wormit, Feng Chen, Anna I. Krylov, Pavel Pokhilko                  |
|                                                                              |
| - libadc - 1.1-trunk                                                         |
|   Authors:                                                                   |
|   Michael Wormit, Adrian L. Dempwolff, Philipp H. P. Harbach,                |
|   Caroline Krauter, Dirk Rehn, Matthias Schneider, Jan Wenzel                |
|                                                                              |
| - adcman - 2.6-trunk                                                         |
|   Authors:                                                                   |
|   Michael Wormit, Adrian L. Dempwolff, Philipp H. P. Harbach,                |
|   Caroline Krauter, Daniel Lefrancois, Jan-Michael Mewes, Dirk Rehn,         |
|   Matthias Schneider, Jan Wenzel, Andreas Dreuw                              |
|                                                                              |
| Authors of earlier versions of ADCMAN:                                       |
| Andreas Dreuw, Jan Hendrik Starcke, Dirk Rehn, Michael Wormit                |
|                                                                              |
================================================================================

 
 Alpha MOs, Restricted
 -- Occupied --                  
-11.069 -11.064  -0.877  -0.614  -0.496  -0.399  -0.347  -0.213
  1 A1    2 A1    3 A1    4 A1    1 B1    5 A1    2 B1    1 B2                 
 -0.025
  6 A1                                                                         
 -- Virtual --                   
  0.195   0.219   0.227   0.266   0.274   0.281   0.313   0.362
  7 A1    3 B1    2 B2    3 B2    8 A1    4 B1    9 A1    4 B2                 
  0.408   0.433   0.480   0.498   0.513   0.546   0.566   0.599
 10 A1   11 A1    5 B1   12 A1   13 A1    6 B1    5 B2    7 B1                 
  0.604   0.670   0.701   0.781   1.004   1.008   1.082   1.154
 14 A1    6 B2    8 B1   15 A1   16 A1    9 B1   17 A1   18 A1                 
  1.200   1.209   1.279   1.296   1.317   1.346   1.378   1.443
 19 A1   10 B1    1 A2   20 A1   11 B1   21 A1    7 B2    8 B2                 
  1.452   1.472   1.581   1.661   1.777   1.860   1.904   1.920
  2 A2    9 B2   22 A1   12 B1   23 A1   13 B1   10 B2   14 B1                 
  2.038   2.045   2.072   2.116   2.183   2.266   2.278   2.321
 15 B1   11 B2   24 A1   12 B2    3 A2   25 A1   16 B1   26 A1                 
  2.356   2.534   2.578   2.651   2.725   2.754   3.052   3.055
 13 B2   27 A1    4 A2   28 A1   17 B1   29 A1   30 A1   18 B1                 
  3.482   3.528
 31 A1   19 B1                                                                 
 
 Beta MOs, Restricted
 -- Occupied --                  
-11.069 -11.064  -0.877  -0.614  -0.496  -0.399  -0.347  -0.213
  1 A1    2 A1    3 A1    4 A1    1 B1    5 A1    2 B1    1 B2                 
 -0.025
  6 A1                                                                         
 -- Virtual --                   
  0.195   0.219   0.227   0.266   0.274   0.281   0.313   0.362
  7 A1    3 B1    2 B2    3 B2    8 A1    4 B1    9 A1    4 B2                 
  0.408   0.433   0.480   0.498   0.513   0.546   0.566   0.599
 10 A1   11 A1    5 B1   12 A1   13 A1    6 B1    5 B2    7 B1                 
  0.604   0.670   0.701   0.781   1.004   1.008   1.082   1.154
 14 A1    6 B2    8 B1   15 A1   16 A1    9 B1   17 A1   18 A1                 
  1.200   1.209   1.279   1.296   1.317   1.346   1.378   1.443
 19 A1   10 B1    1 A2   20 A1   11 B1   21 A1    7 B2    8 B2                 
  1.452   1.472   1.581   1.661   1.777   1.860   1.904   1.920
  2 A2    9 B2   22 A1   12 B1   23 A1   13 B1   10 B2   14 B1                 
  2.038   2.045   2.072   2.116   2.183   2.266   2.278   2.321
 15 B1   11 B2   24 A1   12 B2    3 A2   25 A1   16 B1   26 A1                 
  2.356   2.534   2.578   2.651   2.725   2.754   3.052   3.055
 13 B2   27 A1    4 A2   28 A1   17 B1   29 A1   30 A1   18 B1                 
  3.482   3.528
 31 A1   19 B1                                                                 

--------------------------------------------------------------------------------
                                   HF Summary                                   
--------------------------------------------------------------------------------
  Energy:                                                  -78.4960064440 a.u.
  Dip. moment [a.u.]:                  [  -0.000000,   -0.000000,    4.656169]
  Total dipole [Debye]:                                              11.834803
  <r^2> [a.u.]:                        [  27.015667,   17.057130,  111.927236]
  Total <r^2> [a.u.]:                                               156.000033
--------------------------------------------------------------------------------

--------------------------------------------------------------------------------
                                 MP(2) Summary                                  
--------------------------------------------------------------------------------
  MP energy contribution:                                   -0.3080066803 a.u.
  Total energy:                                            -78.8040131242 a.u.
  Dip. moment [a.u.]:                  [   0.000000,    0.000000,    4.649579]
  Total dipole [Debye]:                                              11.818054
  <r^2> [a.u.]:                        [  27.182831,   17.017593,  111.551602]
  Total <r^2> [a.u.]:                                               155.752026

  Density matrix analysis:
  ------------------------
  NOs
    Occupation of frontier NOs:
       0.0433   1.9375
    Number of electrons: 18.000000
    Number of unpaired electrons: n_u =  0.46489, n_u,nl =  0.05013
    NO participation ratio (PR_NO): 16.570124
  
  
  Mulliken Population Analysis
  Atom      Charge (e)              h+              e-           Del q
  --------------------------------------------------------------------
   1 C       -1.319671        0.133000       -0.112626        0.020374
   2 C        0.089159        0.045696       -0.119445       -0.073749
   3 H        0.077475        0.019878       -0.011879        0.007999
   4 H        0.190037        0.017097       -0.013569        0.003528
   5 H        0.077475        0.019878       -0.011879        0.007999
   6 H        0.190037        0.017097       -0.013569        0.003528
   7 H       -0.304512        0.043922       -0.013601        0.030321
  --------------------------------------------------------------------
  Sum:       -1.000000        0.296568       -0.296568        0.000000
  
  Multipole moment analysis of the density matrix
    Molecular charge:                      -1.000000
    Number of electrons:                   18.000000
      Center of electronic charge [Ang]: [ -0.000000,  -0.000000,  -0.136692]
    Total nuclear charge:                  17.000000
      Center of nuclear charge [Ang]:    [ -0.000000,   0.000000,  -0.000000]
    Dipole moment [D]:                     11.818050
      Cartesian components [D]:          [  0.000000,   0.000000,  11.818050]
    RMS size of the density [Ang]:         1.550604
      Cartesian components [Ang]:        [  0.650298,   0.514534,   1.310244]
  
  Exciton analysis of the difference density matrix
    <r_h> [Ang]:                  [ -0.000000,   0.000000,  -0.169803]
    <r_e> [Ang]:                  [ -0.000000,   0.000000,  -0.158046]
    |<r_e - r_h>| [Ang]:            0.011758
    Hole size [Ang]:                1.841557
      Cartesian components [Ang]: [  0.752861,   0.762126,   1.497898]
    Electron size [Ang]:            1.777924
      Cartesian components [Ang]: [  0.851258,   0.737227,   1.375816]
--------------------------------------------------------------------------------

--------------------------------------------------------------------------------
                                 MP(3) Summary                                  
--------------------------------------------------------------------------------
  MP energy contribution:                                   -0.0291569132 a.u.
  Total energy:                                            -78.8331700374 a.u.
--------------------------------------------------------------------------------
  Starting Davidson for singlet states of irrep B2 ... 
--------------------------------------------------------------------------------
   It NVec Conv  Avg. Norm  Max. Norm  Conv. states           Remark
--------------------------------------------------------------------------------
       100    0  9.991e-02  4.202e-01  0.1645 n n n n n n n n Guess.
    1  110    0  3.849e-02  2.190e-01  0.0889 n n n n n n n n 
    2  120    0  2.991e-02  2.017e-01  0.0824 n n n n n n n n 
    3  130    0  2.040e-02  1.437e-01  0.0818 n n n n n n n n 
    4  140    0  8.091e-03  4.774e-02  0.0817 n n n n n n n n 
    5  150    0  8.216e-03  6.866e-02  0.0817 n n n n n n n n 
    6  160    0  3.927e-03  3.686e-02  0.0817 n n n n n n n n 
    7  170    0  2.073e-03  1.887e-02  0.0817 n n n n n n n n 
    8  180    2  9.524e-04  8.352e-03  0.0817 y y n n n n n n 
    9  190    4  4.211e-04  3.648e-03  0.0817 y y y y n n n n 
   10  200    5  1.715e-04  1.441e-03  0.0817 y y y y n n y n 
   11   20    6  6.793e-05  5.423e-04  0.0817 y y y y y n y n Subspace collapsed.
   12   30    6  5.178e-05  3.936e-04  0.0817 y y y y y n y n 
   13   40    7  3.965e-05  3.454e-04  0.0817 y y y y y y y n 
   14   50    7  2.888e-05  2.610e-04  0.0817 y y y y y y y n 
   15   60    7  1.482e-05  1.373e-04  0.0817 y y y y y y y n 
   16   70    8  8.023e-06  7.633e-05  0.0817 y y y y y y y n 
   17   80    8  4.714e-06  4.549e-05  0.0817 y y y y y y y n 
   18   90    9  3.106e-06  3.051e-05  0.0817 y y y y y y y y 
   19  100    9  2.506e-06  2.487e-05  0.0817 y y y y y y y y 
   20  110    9  1.717e-06  1.711e-05  0.0817 y y y y y y y y 
   21  120   10  9.750e-07  9.732e-06  0.0817 y y y y y y y y Converged.
--------------------------------------------------------------------------------
  Davidson Summary: 
 ------------------------------------------------------------
  State  0: excitation energy =   0.0817 a.u.   (converged)
  State  1: excitation energy =   0.1029 a.u.   (converged)
  State  2: excitation energy =   0.1725 a.u.   (converged)
  State  3: excitation energy =   0.2358 a.u.   (converged)
  State  4: excitation energy =   0.2513 a.u.   (converged)
  State  5: excitation energy =   0.2796 a.u.   (converged)
  State  6: excitation energy =   0.2887 a.u.   (converged)
  State  7: excitation energy =   0.3314 a.u.   (converged)
  State  8: excitation energy =   0.3443 a.u.   (converged)
  State  9: excitation energy =   0.3550 a.u.   (converged)
 ------------------------------------------------------------


--------------------------------------------------------------------------------
                   State-averaged natural transition orbitals
--------------------------------------------------------------------------------
--------------------------------------------------------------------------------

--------------------------------------------------------------------------------
                             Excited State Summary
--------------------------------------------------------------------------------
--------------------------------------------------------------------------------

  Excited state 1 (singlet, B2)                                    [converged]
  ----------------------------------------------------------------------------
  Term symbol:  1 (1) B2                                    R^2 =  1.19703e-13

  Total energy:                                            -78.7514502254 a.u.
  Excitation energy:                                               2.223709 eV

  Osc. strength:                                                      0.030316
  Trans. dip. moment [a.u.]:           [   0.000000,    0.745964,   -0.000000]
  <i|r^2|0> [a.u.]:                    [  -0.000000,   -0.000000,   -0.000000]

  Dip. moment [a.u.]:                  [  -0.000000,   -0.000000,   -0.218159]
  Total dipole [Debye]:                                               0.554504
  <r^2> [a.u.]:                        [  27.733670,   23.721047,   92.585850]
  Total <r^2> [a.u.]:                                               144.040568

  V1^2 = 0.8640, V2^2 = 0.1360

  Important amplitudes:
      occ i      occ j       vir a       vir b          v   
    ---------------------------------------------------------
     6 (A1) A               3 (B2) A                 -0.5014
     6 (A1) A               2 (B2) A                  0.3487
    ---------------------------------------------------------

  Density matrix analysis:
  ------------------------
  NOs
    Occupation of frontier NOs:
       0.9868   0.9902
    Number of electrons: 18.000000
    Number of unpaired electrons: n_u =  2.43452, n_u,nl =  2.04900
    NO participation ratio (PR_NO):  3.012924
  
  
  Mulliken Population Analysis
  Atom      Charge (e)              h+              e-           Del q
  --------------------------------------------------------------------
   1 C       -0.706485        1.251566       -0.638380        0.613186
   2 C       -0.634848       -0.218594       -0.505413       -0.724006
   3 H        0.080367        0.011584       -0.008692        0.002892
   4 H        0.088911       -0.005198       -0.095928       -0.101127
   5 H        0.080367        0.011584       -0.008692        0.002892
   6 H        0.088911       -0.005198       -0.095928       -0.101127
   7 H        0.002778        0.392104       -0.084814        0.307290
  --------------------------------------------------------------------
  Sum:       -1.000000        1.437847       -1.437847       -0.000000
  
  Multipole moment analysis of the density matrix
    Molecular charge:                      -1.000000
    Number of electrons:                   18.000000
      Center of electronic charge [Ang]: [  0.000000,   0.000000,   0.006414]
    Total nuclear charge:                  17.000000
      Center of nuclear charge [Ang]:    [ -0.000000,   0.000000,  -0.000000]
    Dipole moment [D]:                     0.554504
      Cartesian components [D]:          [ -0.000000,  -0.000000,  -0.554504]
    RMS size of the density [Ang]:         1.496936
      Cartesian components [Ang]:        [  0.656854,   0.607480,   1.200137]
  
  Exciton analysis of the difference density matrix
    <r_h> [Ang]:                  [ -0.000000,   0.000000,  -2.141240]
    <r_e> [Ang]:                  [ -0.000000,   0.000000,  -0.349745]
    |<r_e - r_h>| [Ang]:            1.791495
    Hole size [Ang]:                2.084232
      Cartesian components [Ang]: [  0.983727,   1.011923,   1.533727]
    Electron size [Ang]:            2.554553
      Cartesian components [Ang]: [  1.036821,   1.526277,   1.766698]

  Transition density matrix analysis:
  -----------------------------------
  
  CT numbers (Mulliken)
    omega =     0.8438
    <Phe> =    -0.0147
  
  Exciton analysis of the transition density matrix
    Trans. dipole moment [D]:             0.948026
      Cartesian components [D]:         [  0.000000,   0.948026,  -0.000000]
    <r_h> [Ang]:                        [ -0.000000,   0.000000,  -2.768668]
    <r_e> [Ang]:                        [ -0.000000,   0.000000,   0.086801]
    |<r_e - r_h>| [Ang]:                  2.855469
    Hole size [Ang]:                      1.481406
      Cartesian components [Ang]:       [  0.827689,   0.834815,   0.901431]
    Electron size [Ang]:                  2.562133
      Cartesian components [Ang]:       [  0.953425,   1.637189,   1.724854]
    RMS electron-hole separation [Ang]:   4.111713
      Cartesian components [Ang]:       [  1.262416,   1.837344,   3.454947]
    Covariance(r_h, r_e) [Ang^2]:         0.003304
    Correlation coefficient:              0.000871
    Center-of-mass size [Ang]:            1.480346
      Cartesian components [Ang]:       [  0.631364,   0.919072,   0.973709]

  Decomposition into state-averaged NTOs
    H- 1 -> L+ 0:  0.6038 ( 72.9%)
    H- 1 -> L+ 4:  0.1717 (  5.9%)
    H- 1 -> L+ 3:  0.1621 (  5.3%)
                   omega =  84.4%
  ----------------------------------------------------------------------------


  Excited state 2 (singlet, B2)                                    [converged]
  ----------------------------------------------------------------------------
  Term symbol:  2 (1) B2                                    R^2 =  2.13196e-13

  Total energy:                                            -78.7302620890 a.u.
  Excitation energy:                                               2.800268 eV

  Osc. strength:                                                      0.035738
  Trans. dip. moment [a.u.]:           [   0.000000,    0.721753,   -0.000000]
  <i|r^2|0> [a.u.]:                    [   0.000000,    0.000000,   -0.000000]

  Dip. moment [a.u.]:                  [  -0.000000,    0.000000,   -0.321395]
  Total dipole [Debye]:                                               0.816905
  <r^2> [a.u.]:                        [  31.738863,   37.658455,   89.696859]
  Total <r^2> [a.u.]:                                               159.094177

  V1^2 = 0.8769, V2^2 = 0.1231

  Important amplitudes:
      occ i      occ j       vir a       vir b          v   
    ---------------------------------------------------------
     6 (A1) A               2 (B2) A                 -0.5228
     6 (A1) A               3 (B2) A                 -0.3971
    ---------------------------------------------------------

  Density matrix analysis:
  ------------------------
  NOs
    Occupation of frontier NOs:
       0.9909   0.9917
    Number of electrons: 18.000000
    Number of unpaired electrons: n_u =  2.43170, n_u,nl =  2.05281
    NO participation ratio (PR_NO):  2.987692
  
  
  Mulliken Population Analysis
  Atom      Charge (e)              h+              e-           Del q
  --------------------------------------------------------------------
   1 C       -0.660586        1.364948       -0.705863        0.659086
   2 C       -0.729829       -0.340755       -0.478233       -0.818987
   3 H        0.093073        0.020436       -0.004838        0.015598
   4 H        0.104492       -0.012769       -0.072776       -0.085545
   5 H        0.093073        0.020436       -0.004838        0.015598
   6 H        0.104492       -0.012769       -0.072776       -0.085545
   7 H       -0.004716        0.397876       -0.098080        0.299796
  --------------------------------------------------------------------
  Sum:       -1.000000        1.437403       -1.437403       -0.000000
  
  Multipole moment analysis of the density matrix
    Molecular charge:                      -1.000000
    Number of electrons:                   18.000000
      Center of electronic charge [Ang]: [  0.000000,  -0.000000,   0.009449]
    Total nuclear charge:                  17.000000
      Center of nuclear charge [Ang]:    [ -0.000000,   0.000000,  -0.000000]
    Dipole moment [D]:                     0.816905
      Cartesian components [D]:          [ -0.000000,   0.000000,  -0.816905]
    RMS size of the density [Ang]:         1.573201
      Cartesian components [Ang]:        [  0.702685,   0.765414,   1.181244]
  
  Exciton analysis of the difference density matrix
    <r_h> [Ang]:                  [ -0.000000,   0.000000,  -2.111913]
    <r_e> [Ang]:                  [ -0.000000,  -0.000000,  -0.281859]
    |<r_e - r_h>| [Ang]:            1.830054
    Hole size [Ang]:                2.154904
      Cartesian components [Ang]: [  0.990833,   1.000316,   1.631327]
    Electron size [Ang]:            3.110538
      Cartesian components [Ang]: [  1.367237,   2.240936,   1.668628]

  Transition density matrix analysis:
  -----------------------------------
  
  CT numbers (Mulliken)
    omega =     0.8645
    <Phe> =    -0.0057
  
  Exciton analysis of the transition density matrix
    Trans. dipole moment [D]:             0.917256
      Cartesian components [D]:         [  0.000000,   0.917256,  -0.000000]
    <r_h> [Ang]:                        [ -0.000000,   0.000000,  -2.797684]
    <r_e> [Ang]:                        [ -0.000000,  -0.000000,   0.169458]
    |<r_e - r_h>| [Ang]:                  2.967142
    Hole size [Ang]:                      1.460940
      Cartesian components [Ang]:       [  0.831941,   0.840050,   0.858216]
    Electron size [Ang]:                  3.410938
      Cartesian components [Ang]:       [  1.515150,   2.624433,   1.565621]
    RMS electron-hole separation [Ang]:   4.749652
      Cartesian components [Ang]:       [  1.728507,   2.755622,   3.460926]
    Covariance(r_h, r_e) [Ang^2]:         0.006787
    Correlation coefficient:              0.001362
    Center-of-mass size [Ang]:            1.856234
      Cartesian components [Ang]:       [  0.864274,   1.377789,   0.894612]

  Decomposition into state-averaged NTOs
    H- 1 -> L+ 3:  0.5947 ( 70.7%)
    H- 1 -> L+ 4: -0.2668 ( 14.2%)
    H- 1 -> L+ 0: -0.0831 (  1.4%)
                   omega =  86.5%
  ----------------------------------------------------------------------------


  Excited state 3 (singlet, B2)                                    [converged]
  ----------------------------------------------------------------------------
  Term symbol:  3 (1) B2                                    R^2 =  1.26477e-11

  Total energy:                                            -78.6606229971 a.u.
  Excitation energy:                                               4.695244 eV

  Osc. strength:                                                      0.089420
  Trans. dip. moment [a.u.]:           [  -0.000000,   -0.881679,   -0.000000]
  <i|r^2|0> [a.u.]:                    [  -0.000000,   -0.000000,    0.000000]

  Dip. moment [a.u.]:                  [  -0.000000,    0.000000,   -0.264986]
  Total dipole [Debye]:                                               0.673527
  <r^2> [a.u.]:                        [  29.777646,   30.251001,   98.146472]
  Total <r^2> [a.u.]:                                               158.175119

  V1^2 = 0.8392, V2^2 = 0.1608

  Important amplitudes:
      occ i      occ j       vir a       vir b          v   
    ---------------------------------------------------------
     6 (A1) A               4 (B2) A                 -0.5871
     6 (A1) A               2 (B2) A                 -0.1992
    ---------------------------------------------------------

  Density matrix analysis:
  ------------------------
  NOs
    Occupation of frontier NOs:
       0.9583   0.9872
    Number of electrons: 18.000000
    Number of unpaired electrons: n_u =  2.50267, n_u,nl =  2.08269
    NO participation ratio (PR_NO):  3.269243
  
  
  Mulliken Population Analysis
  Atom      Charge (e)              h+              e-           Del q
  --------------------------------------------------------------------
   1 C       -0.635389        1.297928       -0.613645        0.684282
   2 C       -0.715991       -0.264180       -0.540970       -0.805149
   3 H        0.077205        0.007644       -0.007914       -0.000270
   4 H        0.089273       -0.009683       -0.091082       -0.100764
   5 H        0.077205        0.007644       -0.007914       -0.000270
   6 H        0.089273       -0.009683       -0.091082       -0.100764
   7 H        0.018423        0.406574       -0.083639        0.322935
  --------------------------------------------------------------------
  Sum:       -1.000000        1.436245       -1.436245       -0.000000
  
  Multipole moment analysis of the density matrix
    Molecular charge:                      -1.000000
    Number of electrons:                   18.000000
      Center of electronic charge [Ang]: [  0.000000,  -0.000000,   0.007790]
    Total nuclear charge:                  17.000000
      Center of nuclear charge [Ang]:    [ -0.000000,   0.000000,  -0.000000]
    Dipole moment [D]:                     0.673527
      Cartesian components [D]:          [ -0.000000,   0.000000,  -0.673527]
    RMS size of the density [Ang]:         1.568659
      Cartesian components [Ang]:        [  0.680628,   0.686017,   1.235645]
  
  Exciton analysis of the difference density matrix
    <r_h> [Ang]:                  [ -0.000000,   0.000000,  -2.158120]
    <r_e> [Ang]:                  [ -0.000000,  -0.000000,  -0.347374]
    |<r_e - r_h>| [Ang]:            1.810746
    Hole size [Ang]:                2.060111
      Cartesian components [Ang]: [  0.962803,   0.992963,   1.526791]
    Electron size [Ang]:            3.041925
      Cartesian components [Ang]: [  1.197041,   1.888419,   2.062588]

  Transition density matrix analysis:
  -----------------------------------
  
  CT numbers (Mulliken)
    omega =     0.8230
    <Phe> =    -0.0093
  
  Exciton analysis of the transition density matrix
    Trans. dipole moment [D]:             1.120502
      Cartesian components [D]:         [ -0.000000,  -1.120502,  -0.000000]
    <r_h> [Ang]:                        [ -0.000000,   0.000000,  -2.780958]
    <r_e> [Ang]:                        [ -0.000000,  -0.000000,   0.155068]
    |<r_e - r_h>| [Ang]:                  2.936026
    Hole size [Ang]:                      1.474916
      Cartesian components [Ang]:       [  0.829534,   0.837706,   0.886285]
    Electron size [Ang]:                  3.302068
      Cartesian components [Ang]:       [  1.239627,   2.140706,   2.187318]
    RMS electron-hole separation [Ang]:   4.656871
      Cartesian components [Ang]:       [  1.491510,   2.298259,   3.765615]
    Covariance(r_h, r_e) [Ang^2]:         0.006415
    Correlation coefficient:              0.001317
    Center-of-mass size [Ang]:            1.809134
      Cartesian components [Ang]:       [  0.745822,   1.149647,   1.181113]

  Decomposition into state-averaged NTOs
    H- 1 -> L+ 4: -0.5640 ( 63.6%)
    H- 1 -> L+ 3: -0.2288 ( 10.5%)
    H- 1 -> L+ 0:  0.1993 (  7.9%)
                   omega =  82.3%
  ----------------------------------------------------------------------------


  Excited state 4 (singlet, B2)                                    [converged]
  ----------------------------------------------------------------------------
  Term symbol:  4 (1) B2                                    R^2 =  9.91781e-12

  Total energy:                                            -78.5973972934 a.u.
  Excitation energy:                                               6.415703 eV

  Osc. strength:                                                      0.090273
  Trans. dip. moment [a.u.]:           [  -0.000000,   -0.757842,    0.000000]
  <i|r^2|0> [a.u.]:                    [   0.000000,    0.000000,   -0.000000]

  Dip. moment [a.u.]:                  [  -0.000000,    0.000000,    0.927095]
  Total dipole [Debye]:                                               2.356442
  <r^2> [a.u.]:                        [  32.668371,   21.697102,  130.555283]
  Total <r^2> [a.u.]:                                               184.920755

  V1^2 = 0.9362, V2^2 = 0.0638

  Important amplitudes:
      occ i      occ j       vir a       vir b          v   
    ---------------------------------------------------------
     1 (B2) A               7 (A1) A                  0.6450
     1 (B2) A               8 (A1) A                  0.1882
    ---------------------------------------------------------

  Density matrix analysis:
  ------------------------
  NOs
    Occupation of frontier NOs:
       0.9846   0.9901
    Number of electrons: 18.000000
    Number of unpaired electrons: n_u =  2.36511, n_u,nl =  2.03166
    NO participation ratio (PR_NO):  2.856836
  
  
  Mulliken Population Analysis
  Atom      Charge (e)              h+              e-           Del q
  --------------------------------------------------------------------
   1 C       -2.209257        0.623525       -1.513111       -0.889585
   2 C        0.646082        0.455504        0.101419        0.556923
   3 H        0.193374        0.117949       -0.002050        0.115899
   4 H        0.252198        0.055757        0.006404        0.062161
   5 H        0.193374        0.117949       -0.002050        0.115899
   6 H        0.252198        0.055757        0.006404        0.062161
   7 H       -0.327969        0.015912       -0.039370       -0.023457
  --------------------------------------------------------------------
  Sum:       -1.000000        1.442354       -1.442354       -0.000000
  
  Multipole moment analysis of the density matrix
    Molecular charge:                      -1.000000
    Number of electrons:                   18.000000
      Center of electronic charge [Ang]: [  0.000000,  -0.000000,  -0.027255]
    Total nuclear charge:                  17.000000
      Center of nuclear charge [Ang]:    [ -0.000000,   0.000000,  -0.000000]
    Dipole moment [D]:                     2.356441
      Cartesian components [D]:          [ -0.000000,   0.000000,   2.356441]
    RMS size of the density [Ang]:         1.695905
      Cartesian components [Ang]:        [  0.712900,   0.580986,   1.424894]
  
  Exciton analysis of the difference density matrix
    <r_h> [Ang]:                  [ -0.000000,   0.000000,   0.228866]
    <r_e> [Ang]:                  [  0.000000,  -0.000000,   1.594587]
    |<r_e - r_h>| [Ang]:            1.365721
    Hole size [Ang]:                1.798742
      Cartesian components [Ang]: [  0.821784,   0.917194,   1.311068]
    Electron size [Ang]:            2.531435
      Cartesian components [Ang]: [  1.319215,   1.322783,   1.708238]

  Transition density matrix analysis:
  -----------------------------------
  
  CT numbers (Mulliken)
    omega =     0.9057
    <Phe> =    -0.0100
  
  Exciton analysis of the transition density matrix
    Trans. dipole moment [D]:             0.963121
      Cartesian components [D]:         [ -0.000000,  -0.963121,   0.000000]
    <r_h> [Ang]:                        [  0.000000,  -0.000000,   0.285575]
    <r_e> [Ang]:                        [  0.000000,  -0.000000,   2.333432]
    |<r_e - r_h>| [Ang]:                  2.047857
    Hole size [Ang]:                      1.280881
      Cartesian components [Ang]:       [  0.522967,   0.886692,   0.762193]
    Electron size [Ang]:                  2.507545
      Cartesian components [Ang]:       [  1.510431,   1.535131,   1.284426]
    RMS electron-hole separation [Ang]:   3.474924
      Cartesian components [Ang]:       [  1.597687,   1.763313,   2.532434]
    Covariance(r_h, r_e) [Ang^2]:         0.023527
    Correlation coefficient:              0.007325
    Center-of-mass size [Ang]:            1.412045
      Cartesian components [Ang]:       [  0.799561,   0.891127,   0.748644]

  Decomposition into state-averaged NTOs
    H- 0 -> L+ 2:  0.5430 ( 59.0%)
    H- 0 -> L+ 1: -0.3968 ( 31.5%)
                   omega =  90.6%
  ----------------------------------------------------------------------------


  Excited state 5 (singlet, B2)                                    [converged]
  ----------------------------------------------------------------------------
  Term symbol:  5 (1) B2                                    R^2 =  1.96533e-10

  Total energy:                                            -78.5819050770 a.u.
  Excitation energy:                                               6.837267 eV

  Osc. strength:                                                      0.000089
  Trans. dip. moment [a.u.]:           [   0.000000,    0.023044,   -0.000000]
  <i|r^2|0> [a.u.]:                    [  -0.000000,   -0.000000,   -0.000000]

  Dip. moment [a.u.]:                  [   0.000000,   -0.000000,    0.814318]
  Total dipole [Debye]:                                               2.069791
  <r^2> [a.u.]:                        [  30.612872,   31.440598,   98.089247]
  Total <r^2> [a.u.]:                                               160.142718

  V1^2 = 0.0170, V2^2 = 0.9830

  Important amplitudes:
      occ i      occ j       vir a       vir b          v   
    ---------------------------------------------------------
     6 (A1) A   1 (B2) B    3 (B2) A    3 (B2) B     -0.2041
     6 (A1) A   1 (B2) B    4 (B2) A    3 (B2) B     -0.1749
    ---------------------------------------------------------

  Density matrix analysis:
  ------------------------
  NOs
    Occupation of frontier NOs:
       0.9661   0.9760
    Number of electrons: 18.000000
    Number of unpaired electrons: n_u =  2.91559, n_u,nl =  2.53770
    NO participation ratio (PR_NO):  4.107387
  
  
  Mulliken Population Analysis
  Atom      Charge (e)              h+              e-           Del q
  --------------------------------------------------------------------
   1 C       -0.788429        1.032402       -0.501160        0.531242
   2 C       -1.064991        0.314647       -1.468797       -1.154149
   3 H        0.077136        0.007037       -0.007375       -0.000339
   4 H        0.180585       -0.002371       -0.007081       -0.009453
   5 H        0.077136        0.007037       -0.007375       -0.000339
   6 H        0.180585       -0.002371       -0.007081       -0.009453
   7 H        0.337978        0.647044       -0.004554        0.642490
  --------------------------------------------------------------------
  Sum:       -1.000000        2.003424       -2.003424       -0.000000
  
  Multipole moment analysis of the density matrix
    Molecular charge:                      -1.000000
    Number of electrons:                   18.000000
      Center of electronic charge [Ang]: [ -0.000000,   0.000000,  -0.023940]
    Total nuclear charge:                  17.000000
      Center of nuclear charge [Ang]:    [ -0.000000,   0.000000,  -0.000000]
    Dipole moment [D]:                     2.069790
      Cartesian components [D]:          [  0.000000,  -0.000000,   2.069790]
    RMS size of the density [Ang]:         1.578224
      Cartesian components [Ang]:        [  0.690108,   0.699375,   1.235077]
  
  Exciton analysis of the difference density matrix
    <r_h> [Ang]:                  [  0.000000,  -0.000000,  -1.269449]
    <r_e> [Ang]:                  [ -0.000000,   0.000000,  -0.256417]
    |<r_e - r_h>| [Ang]:            1.013032
    Hole size [Ang]:                2.055889
      Cartesian components [Ang]: [  0.687179,   0.857347,   1.737648]
    Electron size [Ang]:            2.527081
      Cartesian components [Ang]: [  0.975525,   1.658620,   1.638130]

  Transition density matrix analysis:
  -----------------------------------
  
  CT numbers (Mulliken)
    omega =     0.0179
    <Phe> =     0.0147
  
  Exciton analysis of the transition density matrix
    Trans. dipole moment [D]:             0.029286
      Cartesian components [D]:         [  0.000000,   0.029286,  -0.000000]
    <r_h> [Ang]:                        [ -0.000000,   0.000000,  -1.695189]
    <r_e> [Ang]:                        [ -0.000000,  -0.000000,  -0.031640]
    |<r_e - r_h>| [Ang]:                  1.663549
    Hole size [Ang]:                      1.998981
      Cartesian components [Ang]:       [  0.725707,   0.805364,   1.679483]
    Electron size [Ang]:                  2.453524
      Cartesian components [Ang]:       [  0.931452,   1.392007,   1.792901]
    RMS electron-hole separation [Ang]:   3.758226
      Cartesian components [Ang]:       [  1.180461,   1.592552,   3.192890]
    Covariance(r_h, r_e) [Ang^2]:        -0.670578
    Correlation coefficient:             -0.136726
    Center-of-mass size [Ang]:            1.472629
      Cartesian components [Ang]:       [  0.590555,   0.811845,   1.077400]

  Decomposition into state-averaged NTOs
                   omega =   1.8%
  ----------------------------------------------------------------------------


  Excited state 6 (singlet, B2)                                    [converged]
  ----------------------------------------------------------------------------
  Term symbol:  6 (1) B2                                    R^2 =  2.53713e-09

  Total energy:                                            -78.5535512841 a.u.
  Excitation energy:                                               7.608813 eV

  Osc. strength:                                                      0.000272
  Trans. dip. moment [a.u.]:           [   0.000000,   -0.038212,   -0.000000]
  <i|r^2|0> [a.u.]:                    [  -0.000000,   -0.000000,   -0.000000]

  Dip. moment [a.u.]:                  [   0.000000,    0.000000,   -1.884112]
  Total dipole [Debye]:                                               4.788937
  <r^2> [a.u.]:                        [  32.964568,   38.191603,   93.866399]
  Total <r^2> [a.u.]:                                               165.022570

  V1^2 = 0.0328, V2^2 = 0.9672

  Important amplitudes:
      occ i      occ j       vir a       vir b          v   
    ---------------------------------------------------------
     6 (A1) A   1 (B2) B    4 (B2) A    2 (B2) B     -0.1944
     6 (A1) A   1 (B2) B    3 (B2) A    2 (B2) B     -0.1291
    ---------------------------------------------------------

  Density matrix analysis:
  ------------------------
  NOs
    Occupation of frontier NOs:
       0.9653   0.9792
    Number of electrons: 18.000000
    Number of unpaired electrons: n_u =  3.77333, n_u,nl =  3.70807
    NO participation ratio (PR_NO):  4.896357
  
  
  Mulliken Population Analysis
  Atom      Charge (e)              h+              e-           Del q
  --------------------------------------------------------------------
   1 C       -1.520885        1.076973       -1.278187       -0.201214
   2 C       -0.305475        0.271339       -0.665973       -0.394634
   3 H        0.072840        0.004371       -0.009007       -0.004635
   4 H        0.174460       -0.001562       -0.014014       -0.015577
   5 H        0.072840        0.004371       -0.009007       -0.004635
   6 H        0.174460       -0.001562       -0.014014       -0.015577
   7 H        0.331760        0.637461       -0.001189        0.636272
  --------------------------------------------------------------------
  Sum:       -1.000000        1.991391       -1.991391       -0.000000
  
  Multipole moment analysis of the density matrix
    Molecular charge:                      -1.000000
    Number of electrons:                   18.000000
      Center of electronic charge [Ang]: [ -0.000000,  -0.000000,   0.055391]
    Total nuclear charge:                  17.000000
      Center of nuclear charge [Ang]:    [ -0.000000,   0.000000,  -0.000000]
    Dipole moment [D]:                     4.788936
      Cartesian components [D]:          [  0.000000,   0.000000,  -4.788936]
    RMS size of the density [Ang]:         1.601315
      Cartesian components [Ang]:        [  0.716125,   0.770813,   1.207156]
  
  Exciton analysis of the difference density matrix
    <r_h> [Ang]:                  [  0.000000,  -0.000000,  -1.256733]
    <r_e> [Ang]:                  [ -0.000000,  -0.000000,   0.479481]
    |<r_e - r_h>| [Ang]:            1.736214
    Hole size [Ang]:                2.075780
      Cartesian components [Ang]: [  0.695430,   0.877122,   1.748112]
    Electron size [Ang]:            2.638552
      Cartesian components [Ang]: [  1.138705,   1.935671,   1.385093]

  Transition density matrix analysis:
  -----------------------------------
  
  CT numbers (Mulliken)
    omega =     0.0323
    <Phe> =    -0.0055
  
  Exciton analysis of the transition density matrix
    Trans. dipole moment [D]:             0.048562
      Cartesian components [D]:         [  0.000000,  -0.048562,  -0.000000]
    <r_h> [Ang]:                        [ -0.000000,   0.000000,  -2.034387]
    <r_e> [Ang]:                        [ -0.000000,  -0.000000,   0.202104]
    |<r_e - r_h>| [Ang]:                  2.236491
    Hole size [Ang]:                      1.903065
      Cartesian components [Ang]:       [  0.783320,   0.808690,   1.534304]
    Electron size [Ang]:                  2.961427
      Cartesian components [Ang]:       [  1.158082,   1.870459,   1.982494]
    RMS electron-hole separation [Ang]:   4.117956
      Cartesian components [Ang]:       [  1.397878,   2.037714,   3.294119]
    Covariance(r_h, r_e) [Ang^2]:         0.218019
    Correlation coefficient:              0.038685
    Center-of-mass size [Ang]:            1.790792
      Cartesian components [Ang]:       [  0.699182,   1.018935,   1.296091]

  Decomposition into state-averaged NTOs
    H- 1 -> L+ 4: -0.0714 (  1.0%)
                   omega =   3.2%
  ----------------------------------------------------------------------------


  Excited state 7 (singlet, B2)                                    [converged]
  ----------------------------------------------------------------------------
  Term symbol:  7 (1) B2                                    R^2 =  3.63404e-10

  Total energy:                                            -78.5444787358 a.u.
  Excitation energy:                                               7.855690 eV

  Osc. strength:                                                      0.128131
  Trans. dip. moment [a.u.]:           [  -0.000000,   -0.815934,    0.000000]
  <i|r^2|0> [a.u.]:                    [   0.000000,    0.000000,   -0.000000]

  Dip. moment [a.u.]:                  [   0.000000,   -0.000000,    3.382694]
  Total dipole [Debye]:                                               8.597952
  <r^2> [a.u.]:                        [  33.225271,   21.618566,  120.867036]
  Total <r^2> [a.u.]:                                               175.710873

  V1^2 = 0.9260, V2^2 = 0.0740

  Important amplitudes:
      occ i      occ j       vir a       vir b          v   
    ---------------------------------------------------------
     1 (B2) A               8 (A1) A                  0.6209
     1 (B2) A               7 (A1) A                 -0.1954
    ---------------------------------------------------------

  Density matrix analysis:
  ------------------------
  NOs
    Occupation of frontier NOs:
       0.9738   0.9810
    Number of electrons: 18.000000
    Number of unpaired electrons: n_u =  2.39064, n_u,nl =  2.03717
    NO participation ratio (PR_NO):  2.975712
  
  
  Mulliken Population Analysis
  Atom      Charge (e)              h+              e-           Del q
  --------------------------------------------------------------------
   1 C       -4.754467        0.528220       -3.963016       -3.434796
   2 C        3.267367        0.537481        2.640726        3.178208
   3 H        0.161992        0.092043       -0.007526        0.084517
   4 H        0.244861        0.067547       -0.012724        0.054823
   5 H        0.161992        0.092043       -0.007526        0.084517
   6 H        0.244861        0.067547       -0.012724        0.054823
   7 H       -0.326604        0.014596       -0.036689       -0.022093
  --------------------------------------------------------------------
  Sum:       -1.000000        1.399479       -1.399479        0.000000
  
  Multipole moment analysis of the density matrix
    Molecular charge:                      -1.000000
    Number of electrons:                   18.000000
      Center of electronic charge [Ang]: [ -0.000000,   0.000000,  -0.099447]
    Total nuclear charge:                  17.000000
      Center of nuclear charge [Ang]:    [ -0.000000,   0.000000,  -0.000000]
    Dipole moment [D]:                     8.597950
      Cartesian components [D]:          [  0.000000,  -0.000000,   8.597950]
    RMS size of the density [Ang]:         1.650354
      Cartesian components [Ang]:        [  0.718951,   0.579934,   1.367646]
  
  Exciton analysis of the difference density matrix
    <r_h> [Ang]:                  [ -0.000000,  -0.000000,   0.101778]
    <r_e> [Ang]:                  [ -0.000000,   0.000000,   0.580819]
    |<r_e - r_h>| [Ang]:            0.479040
    Hole size [Ang]:                1.763283
      Cartesian components [Ang]: [  0.812617,   0.920084,   1.265807]
    Electron size [Ang]:            2.603044
      Cartesian components [Ang]: [  1.367263,   1.329355,   1.771792]

  Transition density matrix analysis:
  -----------------------------------
  
  CT numbers (Mulliken)
    omega =     0.8962
    <Phe> =    -0.0138
  
  Exciton analysis of the transition density matrix
    Trans. dipole moment [D]:             1.036949
      Cartesian components [D]:         [ -0.000000,  -1.036949,   0.000000]
    <r_h> [Ang]:                        [  0.000000,  -0.000000,   0.269212]
    <r_e> [Ang]:                        [ -0.000000,   0.000000,   0.843170]
    |<r_e - r_h>| [Ang]:                  0.573959
    Hole size [Ang]:                      1.282930
      Cartesian components [Ang]:       [  0.523043,   0.886566,   0.765727]
    Electron size [Ang]:                  2.861005
      Cartesian components [Ang]:       [  1.545341,   1.511553,   1.874160]
    RMS electron-hole separation [Ang]:   3.174397
      Cartesian components [Ang]:       [  1.630467,   1.743560,   2.092455]
    Covariance(r_h, r_e) [Ang^2]:         0.041946
    Correlation coefficient:              0.011428
    Center-of-mass size [Ang]:            1.574417
      Cartesian components [Ang]:       [  0.816223,   0.880566,   1.018416]

  Decomposition into state-averaged NTOs
    H- 0 -> L+ 1:  0.5282 ( 55.8%)
    H- 0 -> L+ 2:  0.3862 ( 29.8%)
    H- 0 -> L+ 5: -0.1380 (  3.8%)
                   omega =  89.6%
  ----------------------------------------------------------------------------


  Excited state 8 (singlet, B2)                                    [converged]
  ----------------------------------------------------------------------------
  Term symbol:  8 (1) B2                                    R^2 =  5.41685e-07

  Total energy:                                            -78.5017665398 a.u.
  Excitation energy:                                               9.017948 eV

  Osc. strength:                                                      0.000000
  Trans. dip. moment [a.u.]:           [  -0.000000,   -0.000397,    0.000000]
  <i|r^2|0> [a.u.]:                    [   0.000000,   -0.000000,    0.000000]

  Dip. moment [a.u.]:                  [   0.000000,   -0.000000,   -0.115892]
  Total dipole [Debye]:                                               0.294567
  <r^2> [a.u.]:                        [  42.769455,   32.496956,  103.663036]
  Total <r^2> [a.u.]:                                               178.929446

  V1^2 = 0.0139, V2^2 = 0.9861

  Important amplitudes:
      occ i      occ j       vir a       vir b          v   
    ---------------------------------------------------------
     6 (A1) A   1 (B2) B    7 (A1) A    8 (A1) B     -0.1458
     6 (A1) A   1 (B2) B    8 (A1) A    8 (A1) B     -0.1454
    ---------------------------------------------------------

  Density matrix analysis:
  ------------------------
  NOs
    Occupation of frontier NOs:
       0.9531   0.9768
    Number of electrons: 18.000000
    Number of unpaired electrons: n_u =  3.32581, n_u,nl =  2.89845
    NO participation ratio (PR_NO):  4.975050
  
  
  Mulliken Population Analysis
  Atom      Charge (e)              h+              e-           Del q
  --------------------------------------------------------------------
   1 C       -3.953260        1.099354       -3.732943       -2.633589
   2 C        1.974660        0.228680        1.656821        1.885501
   3 H        0.134557        0.005276        0.051806        0.057082
   4 H        0.220974       -0.004395        0.035331        0.030937
   5 H        0.134557        0.005276        0.051806        0.057082
   6 H        0.220974       -0.004395        0.035331        0.030937
   7 H        0.267539        0.656924       -0.084873        0.572051
  --------------------------------------------------------------------
  Sum:       -1.000000        1.986721       -1.986721       -0.000000
  
  Multipole moment analysis of the density matrix
    Molecular charge:                      -1.000000
    Number of electrons:                   18.000000
      Center of electronic charge [Ang]: [ -0.000000,   0.000000,   0.003407]
    Total nuclear charge:                  17.000000
      Center of nuclear charge [Ang]:    [ -0.000000,   0.000000,  -0.000000]
    Dipole moment [D]:                     0.294567
      Cartesian components [D]:          [  0.000000,  -0.000000,  -0.294567]
    RMS size of the density [Ang]:         1.668418
      Cartesian components [Ang]:        [  0.815702,   0.711027,   1.269917]
  
  Exciton analysis of the difference density matrix
    <r_h> [Ang]:                  [  0.000000,   0.000000,  -1.281811]
    <r_e> [Ang]:                  [ -0.000000,   0.000000,  -0.012494]
    |<r_e - r_h>| [Ang]:            1.269317
    Hole size [Ang]:                2.053848
      Cartesian components [Ang]: [  0.680132,   0.850645,   1.741297]
    Electron size [Ang]:            3.021264
      Cartesian components [Ang]: [  1.630802,   1.704528,   1.887618]

  Transition density matrix analysis:
  -----------------------------------
  
  CT numbers (Mulliken)
    omega =     0.0137
    <Phe> =    -0.0022
  
  Exciton analysis of the transition density matrix
    Trans. dipole moment [D]:             0.000505
      Cartesian components [D]:         [ -0.000000,  -0.000505,   0.000000]
    <r_h> [Ang]:                        [ -0.000000,   0.000000,  -2.001631]
    <r_e> [Ang]:                        [  0.000000,  -0.000000,   0.471605]
    |<r_e - r_h>| [Ang]:                  2.473236
    Hole size [Ang]:                      1.947723
      Cartesian components [Ang]:       [  0.763936,   0.845782,   1.579455]
    Electron size [Ang]:                  3.117998
      Cartesian components [Ang]:       [  1.475329,   2.219209,   1.618774]
    RMS electron-hole separation [Ang]:   4.372775
      Cartesian components [Ang]:       [  1.661165,   2.370543,   3.277532]
    Covariance(r_h, r_e) [Ang^2]:         0.255637
    Correlation coefficient:              0.042094
    Center-of-mass size [Ang]:            1.872619
      Cartesian components [Ang]:       [  0.830800,   1.189643,   1.183733]

  Decomposition into state-averaged NTOs
                   omega =   1.4%
  ----------------------------------------------------------------------------


  Excited state 9 (singlet, B2)                                    [converged]
  ----------------------------------------------------------------------------
  Term symbol:  9 (1) B2                                    R^2 =  2.65542e-07

  Total energy:                                            -78.4888576681 a.u.
  Excitation energy:                                               9.369216 eV

  Osc. strength:                                                      0.000466
  Trans. dip. moment [a.u.]:           [   0.000000,   -0.045076,   -0.000000]
  <i|r^2|0> [a.u.]:                    [  -0.000000,    0.000000,    0.000000]

  Dip. moment [a.u.]:                  [   0.000000,   -0.000000,    4.100714]
  Total dipole [Debye]:                                              10.422976
  <r^2> [a.u.]:                        [  27.347176,   20.487707,  110.977732]
  Total <r^2> [a.u.]:                                               158.812615

  V1^2 = 0.9031, V2^2 = 0.0969

  Important amplitudes:
      occ i      occ j       vir a       vir b          v   
    ---------------------------------------------------------
     5 (A1) A               4 (B2) A                 -0.4369
     5 (A1) A               3 (B2) A                 -0.3642
    ---------------------------------------------------------

  Density matrix analysis:
  ------------------------
  NOs
    Occupation of frontier NOs:
       0.9764   1.0602
    Number of electrons: 18.000000
    Number of unpaired electrons: n_u =  2.52037, n_u,nl =  2.08985
    NO participation ratio (PR_NO):  3.410110
  
  
  Mulliken Population Analysis
  Atom      Charge (e)              h+              e-           Del q
  --------------------------------------------------------------------
   1 C       -1.454157        0.441781       -0.576267       -0.134486
   2 C       -0.015799        0.428610       -0.533568       -0.104958
   3 H        0.133959        0.066932       -0.010448        0.056484
   4 H        0.238543        0.061259       -0.012753        0.048506
   5 H        0.133959        0.066932       -0.010448        0.056484
   6 H        0.238543        0.061259       -0.012753        0.048506
   7 H       -0.275049        0.043462       -0.013999        0.029463
  --------------------------------------------------------------------
  Sum:       -1.000000        1.170234       -1.170234        0.000000
  
  Multipole moment analysis of the density matrix
    Molecular charge:                      -1.000000
    Number of electrons:                   18.000000
      Center of electronic charge [Ang]: [ -0.000000,   0.000000,  -0.120556]
    Total nuclear charge:                  17.000000
      Center of nuclear charge [Ang]:    [ -0.000000,   0.000000,  -0.000000]
    Dipole moment [D]:                     10.422973
      Cartesian components [D]:          [  0.000000,  -0.000000,  10.422973]
    RMS size of the density [Ang]:         1.567207
      Cartesian components [Ang]:        [  0.652261,   0.564562,   1.308420]
  
  Exciton analysis of the difference density matrix
    <r_h> [Ang]:                  [ -0.000000,   0.000000,  -0.095987]
    <r_e> [Ang]:                  [ -0.000000,   0.000000,   0.152209]
    |<r_e - r_h>| [Ang]:            0.248196
    Hole size [Ang]:                1.622049
      Cartesian components [Ang]: [  0.698641,   0.569353,   1.348622]
    Electron size [Ang]:            1.830154
      Cartesian components [Ang]: [  0.726241,   1.074493,   1.291318]

  Transition density matrix analysis:
  -----------------------------------
  
  CT numbers (Mulliken)
    omega =     0.8734
    <Phe> =    -0.0174
  
  Exciton analysis of the transition density matrix
    Trans. dipole moment [D]:             0.057286
      Cartesian components [D]:         [  0.000000,  -0.057286,  -0.000000]
    <r_h> [Ang]:                        [ -0.000000,   0.000000,   0.034543]
    <r_e> [Ang]:                        [ -0.000000,   0.000000,   0.219580]
    |<r_e - r_h>| [Ang]:                  0.185037
    Hole size [Ang]:                      1.324073
      Cartesian components [Ang]:       [  0.599638,   0.426883,   1.100625]
    Electron size [Ang]:                  1.789139
      Cartesian components [Ang]:       [  0.678708,   1.096839,   1.239885]
    RMS electron-hole separation [Ang]:   2.214078
      Cartesian components [Ang]:       [  0.906140,   1.175537,   1.642914]
    Covariance(r_h, r_e) [Ang^2]:         0.043142
    Correlation coefficient:              0.018211
    Center-of-mass size [Ang]:            1.122550
      Cartesian components [Ang]:       [  0.452585,   0.589212,   0.841495]

  Decomposition into state-averaged NTOs
    H- 2 -> L+ 0:  0.6520 ( 85.0%)
    H- 0 -> L+ 5: -0.0709 (  1.0%)
                   omega =  87.3%
  ----------------------------------------------------------------------------


  Excited state 10 (singlet, B2)                                    [converged]
  ----------------------------------------------------------------------------
  Term symbol:  10 (1) B2                                   R^2 =  9.73182e-06

  Total energy:                                            -78.4781996379 a.u.
  Excitation energy:                                               9.659236 eV

  Osc. strength:                                                      0.011319
  Trans. dip. moment [a.u.]:           [   0.000000,    0.218702,    0.000000]
  <i|r^2|0> [a.u.]:                    [   0.000000,    0.000000,   -0.000000]

  Dip. moment [a.u.]:                  [   0.000000,   -0.000000,    3.873557]
  Total dipole [Debye]:                                               9.845602
  <r^2> [a.u.]:                        [  37.425417,   24.837117,  121.162022]
  Total <r^2> [a.u.]:                                               183.424556

  V1^2 = 0.8142, V2^2 = 0.1858

  Important amplitudes:
      occ i      occ j       vir a       vir b          v   
    ---------------------------------------------------------
     1 (B2) A               9 (A1) A                 -0.5905
     1 (B2) A              10 (A1) A                  0.1871
    ---------------------------------------------------------

  Density matrix analysis:
  ------------------------
  NOs
    Occupation of frontier NOs:
       0.8748   0.9809
    Number of electrons: 18.000000
    Number of unpaired electrons: n_u =  2.60598, n_u,nl =  2.12883
    NO participation ratio (PR_NO):  3.833552
  
  
  Mulliken Population Analysis
  Atom      Charge (e)              h+              e-           Del q
  --------------------------------------------------------------------
   1 C        1.098233        0.522002        1.895902        2.417904
   2 C       -2.573351        0.598939       -3.261448       -2.662510
   3 H        0.102226        0.080669       -0.055918        0.024751
   4 H        0.256857        0.064999        0.001822        0.066820
   5 H        0.102226        0.080669       -0.055918        0.024751
   6 H        0.256857        0.064999        0.001822        0.066820
   7 H       -0.243048        0.097825       -0.036362        0.061463
  --------------------------------------------------------------------
  Sum:       -1.000000        1.510102       -1.510102        0.000000
  
  Multipole moment analysis of the density matrix
    Molecular charge:                      -1.000000
    Number of electrons:                   18.000000
      Center of electronic charge [Ang]: [ -0.000000,   0.000000,  -0.113878]
    Total nuclear charge:                  17.000000
      Center of nuclear charge [Ang]:    [ -0.000000,   0.000000,  -0.000000]
    Dipole moment [D]:                     9.845599
      Cartesian components [D]:          [  0.000000,  -0.000000,   9.845599]
    RMS size of the density [Ang]:         1.685406
      Cartesian components [Ang]:        [  0.763042,   0.621606,   1.368198]
  
  Exciton analysis of the difference density matrix
    <r_h> [Ang]:                  [ -0.000000,  -0.000000,  -0.110499]
    <r_e> [Ang]:                  [ -0.000000,   0.000000,   0.161439]
    |<r_e - r_h>| [Ang]:            0.271937
    Hole size [Ang]:                1.968575
      Cartesian components [Ang]: [  0.809506,   0.908548,   1.547426]
    Electron size [Ang]:            2.998823
      Cartesian components [Ang]: [  1.598328,   1.508472,   2.040294]

  Transition density matrix analysis:
  -----------------------------------
  
  CT numbers (Mulliken)
    omega =     0.7873
    <Phe> =     0.0001
  
  Exciton analysis of the transition density matrix
    Trans. dipole moment [D]:             0.277942
      Cartesian components [D]:         [  0.000000,   0.277942,   0.000000]
    <r_h> [Ang]:                        [ -0.000000,  -0.000000,   0.264052]
    <r_e> [Ang]:                        [ -0.000000,   0.000000,   0.311640]
    |<r_e - r_h>| [Ang]:                  0.047588
    Hole size [Ang]:                      1.283356
      Cartesian components [Ang]:       [  0.524102,   0.881298,   0.771774]
    Electron size [Ang]:                  3.312962
      Cartesian components [Ang]:       [  1.817222,   1.704972,   2.183230]
    RMS electron-hole separation [Ang]:   3.542300
      Cartesian components [Ang]:       [  1.889907,   1.914375,   2.304628]
    Covariance(r_h, r_e) [Ang^2]:         0.038547
    Correlation coefficient:              0.009066
    Center-of-mass size [Ang]:            1.781840
      Cartesian components [Ang]:       [  0.946336,   0.962081,   1.163530]

  Decomposition into state-averaged NTOs
    H- 0 -> L+ 5:  0.6044 ( 73.0%)
    H- 0 -> L+ 1:  0.1199 (  2.9%)
    H- 0 -> L+ 2:  0.0859 (  1.5%)
    H- 2 -> L+ 0:  0.0760 (  1.2%)
                   omega =  78.7%
  ----------------------------------------------------------------------------


--------------------------------------------------------------------------------
  Time of ADC calculation:  CPU 500.30 s  wall 126.46 s
================================================================================
 
 --------------------------------------------------------------
             Orbital Energies (a.u.) and Symmetries
 --------------------------------------------------------------
 
 Alpha MOs, Restricted
 -- Occupied --                  
-11.069 -11.064  -0.877  -0.614  -0.496  -0.399  -0.347  -0.213
  1 A1    2 A1    3 A1    4 A1    1 B1    5 A1    2 B1    1 B2                 
 -0.025
  6 A1                                                                         
 -- Virtual --                   
  0.195   0.219   0.227   0.266   0.274   0.281   0.313   0.362
  7 A1    3 B1    2 B2    3 B2    8 A1    4 B1    9 A1    4 B2                 
  0.408   0.433   0.480   0.498   0.513   0.546   0.566   0.599
 10 A1   11 A1    5 B1   12 A1   13 A1    6 B1    5 B2    7 B1                 
  0.604   0.670   0.701   0.781   1.004   1.008   1.082   1.154
 14 A1    6 B2    8 B1   15 A1   16 A1    9 B1   17 A1   18 A1                 
  1.200   1.209   1.279   1.296   1.317   1.346   1.378   1.443
 19 A1   10 B1    1 A2   20 A1   11 B1   21 A1    7 B2    8 B2                 
  1.452   1.472   1.581   1.661   1.777   1.860   1.904   1.920
  2 A2    9 B2   22 A1   12 B1   23 A1   13 B1   10 B2   14 B1                 
  2.038   2.045   2.072   2.116   2.183   2.266   2.278   2.321
 15 B1   11 B2   24 A1   12 B2    3 A2   25 A1   16 B1   26 A1                 
  2.356   2.534   2.578   2.651   2.725   2.754   3.052   3.055
 13 B2   27 A1    4 A2   28 A1   17 B1   29 A1   30 A1   18 B1                 
  3.482   3.528
 31 A1   19 B1                                                                 
 
 Beta MOs, Restricted
 -- Occupied --                  
-11.069 -11.064  -0.877  -0.614  -0.496  -0.399  -0.347  -0.213
  1 A1    2 A1    3 A1    4 A1    1 B1    5 A1    2 B1    1 B2                 
 -0.025
  6 A1                                                                         
 -- Virtual --                   
  0.195   0.219   0.227   0.266   0.274   0.281   0.313   0.362
  7 A1    3 B1    2 B2    3 B2    8 A1    4 B1    9 A1    4 B2                 
  0.408   0.433   0.480   0.498   0.513   0.546   0.566   0.599
 10 A1   11 A1    5 B1   12 A1   13 A1    6 B1    5 B2    7 B1                 
  0.604   0.670   0.701   0.781   1.004   1.008   1.082   1.154
 14 A1    6 B2    8 B1   15 A1   16 A1    9 B1   17 A1   18 A1                 
  1.200   1.209   1.279   1.296   1.317   1.346   1.378   1.443
 19 A1   10 B1    1 A2   20 A1   11 B1   21 A1    7 B2    8 B2                 
  1.452   1.472   1.581   1.661   1.777   1.860   1.904   1.920
  2 A2    9 B2   22 A1   12 B1   23 A1   13 B1   10 B2   14 B1                 
  2.038   2.045   2.072   2.116   2.183   2.266   2.278   2.321
 15 B1   11 B2   24 A1   12 B2    3 A2   25 A1   16 B1   26 A1                 
  2.356   2.534   2.578   2.651   2.725   2.754   3.052   3.055
 13 B2   27 A1    4 A2   28 A1   17 B1   29 A1   30 A1   18 B1                 
  3.482   3.528
 31 A1   19 B1                                                                 
 --------------------------------------------------------------
 
          Ground-State Mulliken Net Atomic Charges

     Atom                 Charge (a.u.)
  ----------------------------------------
      1 C                    -1.340045
      2 C                     0.162908
      3 H                     0.069476
      4 H                     0.186509
      5 H                     0.069476
      6 H                     0.186509
      7 H                    -0.334833
  ----------------------------------------
  Sum of atomic charges =    -1.000000

 -----------------------------------------------------------------
                    Cartesian Multipole Moments
 -----------------------------------------------------------------
    Charge (ESU x 10^10)
                -4.8032
    Dipole Moment (Debye)
         X      -0.0000      Y      -0.0000      Z      11.8348
       Tot      11.8348
    Quadrupole Moments (Debye-Ang)
        XX     -18.5437     XY      -0.0000     YY     -22.9424
        XZ       0.0000     YZ      -0.0000     ZZ     -58.2185
    Octopole Moments (Debye-Ang^2)
       XXX      -0.0000    XXY      -0.0000    XYY       0.0000
       YYY      -0.0000    XXZ      13.5243    XYZ      -0.0000
       YYZ      13.3484    XZZ      -0.0000    YZZ      -0.0000
       ZZZ     142.0087
    Hexadecapole Moments (Debye-Ang^3)
      XXXX     -47.4725   XXXY      -0.0000   XXYY     -16.2063
      XYYY      -0.0000   YYYY     -44.2335   XXXZ       0.0000
      XXYZ      -0.0000   XYYZ      -0.0000   YYYZ      -0.0000
      XXZZ     -68.3481   XYZZ      -0.0000   YYZZ     -71.9953
      XZZZ       0.0000   YZZZ       0.0000   ZZZZ    -637.5034
 -----------------------------------------------------------------
 Total job time:  209.50s(wall), 547.33s(cpu) 
 Sun Mar 27 13:52:53 2022

        *************************************************************
        *                                                           *
        *  Thank you very much for using Q-Chem.  Have a nice day.  *
        *                                                           *
        *************************************************************


