/src/tsommerfeld/qchem/exe/qcprog.exe .input1.444444.31045.qcin.1 /src/jdavis/qchem.scratch/qchem31045/

                  Welcome to Q-Chem
     A Quantum Leap Into The Future Of Chemistry


 Q-Chem 5.4 (devel), Q-Chem, Inc., Pleasanton, CA (2021)

 E. Epifanovsky,  A. T. B. Gilbert,  Xintian Feng,  Joonho Lee,  Yuezhi Mao,  
 N. Mardirossian,  P. Pokhilko,  A. White,  M. Wormit,  M. P. Coons,  
 A. L. Dempwolff,  Zhengting Gan,  D. Hait,  P. R. Horn,  L. D. Jacobson,  
 I. Kaliman,  J. Kussmann,  A. W. Lange,  Ka Un Lao,  D. S. Levine,  Jie Liu,  
 S. C. McKenzie,  A. F. Morrison,  K. Nanda,  F. Plasser,  D. R. Rehn,  
 M. L. Vidal,  Zhi-Qiang You,  Ying Zhu,  B. Alam,  B. Albrecht,  
 A. Aldossary,  E. Alguire,  J. H. Andersen,  D. Barton,  K. Begam,  A. Behn,  
 Y. A. Bernard,  E. J. Berquist,  H. Burton,  A. Carreras,  K. Carter-Fenk,  
 R. Chakraborty,  A. D. Chien,  K. D. Closser,  V. Cofer-Shabica,  
 S. Dasgupta,  Jia Deng,  M. de Wergifosse,  M. Diedenhofen,  Hainam Do,  
 S. Ehlert,  Po-Tung Fang,  S. Fatehi,  Qingguo Feng,  T. Friedhoff,  
 J. Gayvert,  Qinghui Ge,  G. Gidofalvi,  M. Goldey,  J. Gomes,  
 C. Gonzalez-Espinoza,  S. Gulania,  A. Gunina,  M. W. D. Hanson-Heine,  
 P. H. P. Harbach,  A. W. Hauser,  M. F. Herbst,  M. Hernandez Vera,  
 M. Hodecker,  Z. C. Holden,  S. Houck,  Xunkun Huang,  Kerwin Hui,  
 B. C. Huynh,  M. Ivanov,  Hyunjun Ji,  Hanjie Jiang,  B. Kaduk,  S. Kaehler,  
 K. Khistyaev,  Jaehoon Kim,  P. Klunzinger,  Z. Koczor-Benda,  
 Joong Hoon Koh,  D. Kosenkov,  L. Koulias,  T. Kowalczyk,  C. M. Krauter,  
 K. Kue,  A. Kunitsa,  T. Kus,  A. Landau,  K. V. Lawler,  D. Lefrancois,  
 S. Lehtola,  Rain Li,  Yi-Pei Li,  Jiashu Liang,  M. Liebenthal,  
 Hung-Hsuan Lin,  You-Sheng Lin,  Fenglai Liu,  Kuan-Yu Liu,  
 M. Loipersberger,  A. Luenser,  A. Manjanath,  P. Manohar,  E. Mansoor,  
 S. F. Manzer,  Shan-Ping Mao,  A. V. Marenich,  T. Markovich,  S. Mason,  
 S. A. Maurer,  P. F. McLaughlin,  M. F. S. J. Menger,  J.-M. Mewes,  
 S. A. Mewes,  P. Morgante,  J. W. Mullinax,  K. J. Oosterbaan,  G. Paran,  
 Alexander C. Paul,  Suranjan K. Paul,  F. Pavosevic,  Zheng Pei,  S. Prager,  
 E. I. Proynov,  E. Ramos,  B. Rana,  A. E. Rask,  A. Rettig,  R. M. Richard,  
 F. Rob,  E. Rossomme,  T. Scheele,  M. Scheurer,  M. Schneider,  
 N. Sergueev,  S. M. Sharada,  W. Skomorowski,  D. W. Small,  C. J. Stein,  
 Yu-Chuan Su,  E. J. Sundstrom,  Zhen Tao,  J. Thirman,  T. Tsuchimochi,  
 N. M. Tubman,  S. P. Veccham,  O. Vydrov,  J. Wenzel,  J. Witte,  A. Yamada,  
 Kun Yao,  S. Yeganeh,  S. R. Yost,  A. Zech,  Igor Ying Zhang,  Xing Zhang,  
 Yu Zhang,  D. Zuev,  A. Aspuru-Guzik,  A. T. Bell,  N. A. Besley,  
 K. B. Bravaya,  B. R. Brooks,  D. Casanova,  Jeng-Da Chai,  S. Coriani,  
 C. J. Cramer,  A. E. DePrince, III,  R. A. DiStasio Jr.,  A. Dreuw,  
 B. D. Dunietz,  T. R. Furlani,  W. A. Goddard III,  S. Grimme,  
 S. Hammes-Schiffer,  T. Head-Gordon,  W. J. Hehre,  Chao-Ping Hsu,  
 T.-C. Jagau,  Yousung Jung,  A. Klamt,  Jing Kong,  D. S. Lambrecht,  
 WanZhen Liang,  N. J. Mayhall,  C. W. McCurdy,  J. B. Neaton,  
 C. Ochsenfeld,  J. A. Parkhill,  R. Peverati,  V. A. Rassolov,  Yihan Shao,  
 L. V. Slipchenko,  T. Stauch,  R. P. Steele,  J. E. Subotnik,  
 A. J. W. Thom,  A. Tkatchenko,  D. G. Truhlar,  T. Van Voorhis,  
 T. A. Wesolowski,  K. B. Whaley,  H. L. Woodcock III,  P. M. Zimmerman,  
 S. Faraji,  P. M. W. Gill,  M. Head-Gordon,  J. M. Herbert,  A. I. Krylov

 Additional authors for Version 5.4.1: 
 S. Kotaru,  Shaozhi Li,  Xiangyuan Li,  F. Matz,  A. Molle,  Haisheng Ren,  
 Yingli Su,  Hung-Yi Tsai,  C. Utku,  Fang Wang

 Contributors to earlier versions of Q-Chem not listed above: 
 R. D. Adamson,  B. Austin,  R. Baer,  J. Baker,  G. J. O. Beran,  
 K. Brandhorst,  S. T. Brown,  E. F. C. Byrd,  A. K. Chakraborty,  
 G. K. L. Chan,  Chun-Min Chang,  Yunqing Chen,  C.-L. Cheng,  
 Siu Hung Chien,  D. M. Chipman,  D. L. Crittenden,  H. Dachsel,  
 R. J. Doerksen,  A. D. Dutoi,  R. G. Edgar,  J. Fosso-Tande,  
 L. Fusti-Molnar,  D. Ghosh,  A. Ghysels,  A. Golubeva-Zadorozhnaya,  
 J. Gonthier,  M. S. Gordon,  S. R. Gwaltney,  G. Hawkins,  J. E. Herr,  
 A. Heyden,  S. Hirata,  E. G. Hohenstein,  G. Kedziora,  F. J. Keil,  
 C. Kelley,  Jihan Kim,  R. A. King,  R. Z. Khaliullin,  P. P. Korambath,  
 W. Kurlancheek,  A. Laurent,  A. M. Lee,  M. S. Lee,  S. V. Levchenko,  
 Ching Yeh Lin,  D. Liotard,  E. Livshits,  R. C. Lochan,  I. Lotan,  
 L. A. Martinez-Martinez,  P. E. Maslen,  N. Nair,  D. P. O'Neill,  
 D. Neuhauser,  E. Neuscamman,  C. M. Oana,  R. Olivares-Amaya,  R. Olson,  
 T. M. Perrine,  B. Peters,  P. A. Pieniazek,  A. Prociuk,  Y. M. Rhee,  
 J. Ritchie,  M. A. Rohrdanz,  E. Rosta,  N. J. Russ,  H. F. Schaefer III,  
 M. W. Schmidt,  N. E. Schultz,  S. Sharma,  N. Shenvi,  C. D. Sherrill,  
 A. C. Simmonett,  A. Sodt,  T. Stein,  D. Stuck,  K. S. Thanthiriwatte,  
 V. Vanovschi,  L. Vogt,  Tao Wang,  A. Warshel,  M. A. Watson,  
 C. F. Williams,  Q. Wu,  X. Xu,  Jun Yang,  W. Zhang,  Yan Zhao

 Please cite Q-Chem as follows:
 Y. Shao et al., Mol. Phys. 113, 184-215 (2015)
 DOI: 10.1080/00268976.2014.952696

 Q-Chem 5.4.1 for Intel X86 EM64T Linux

 Parts of Q-Chem use Armadillo 9.900.5 (Nocturnal Misbehaviour).
 http://arma.sourceforge.net/

 Q-Chem begins on Sun Mar 27 13:22:07 2022  

 Host: node01
0

     Scratch files written to /src/jdavis/qchem.scratch/qchem31045//
 Processing $rem in /src/tsommerfeld/qchem/config/preferences:
 Processing $rem in /home/jdavis/.qchemrc:

 Checking the input file for inconsistencies... 	...done.

--------------------------------------------------------------
User input:
--------------------------------------------------------------
$molecule
-1 1
C         0.0000000000    0.0000000000    0.8417902907
C         0.0000000000    0.0000000000   -0.4872097093
H         0.9623488518    0.0000000000    1.3363703127
H         0.9623489048    0.0000000000   -0.9817896873
H        -0.9623488518    0.0000000000    1.3363703127
H        -0.9623489048    0.0000000000   -0.9817896873
H         0.0000000000    0.0000000000   -2.8366446508
$end

$rem
   METHOD adc(3)
   BASIS gen
   PURECART 11
   EE_STATES [0,0,0,10]
   scf_convergence 8
   ADC_DAVIDSON_MAXITER 120
   ADC_DAVIDSON_MAXSUBSPACE 200
   adc_nguess_singles 100
   THRESH 14
   S2THRESH 14
   adc_davidson_conv 5
   adc_davidson_thresh 14
   THREADS 10
   MEM_TOTAL 95000
   STATE_ANALYSIS TRUE
$end
$basis
C 1
S   9   1.00
      6.665000D+03           6.920000D-04
      1.000000D+03           5.329000D-03
      2.280000D+02           2.707700D-02
      6.471000D+01           1.017180D-01
      2.106000D+01           2.747400D-01
      7.495000D+00           4.485640D-01
      2.797000D+00           2.850740D-01
      5.215000D-01           1.520400D-02
      1.596000D-01          -3.191000D-03
S   9   1.00
      6.665000D+03          -1.460000D-04
      1.000000D+03          -1.154000D-03
      2.280000D+02          -5.725000D-03
      6.471000D+01          -2.331200D-02
      2.106000D+01          -6.395500D-02
      7.495000D+00          -1.499810D-01
      2.797000D+00          -1.272620D-01
      5.215000D-01           5.445290D-01
      1.596000D-01           5.804960D-01
S   1   1.00
      1.596000D-01           1.000000D+00
S   1   1.00
      0.0469000              1.0000000
P   4   1.00
      9.439000D+00           3.810900D-02
      2.002000D+00           2.094800D-01
      5.456000D-01           5.085570D-01
      1.517000D-01           4.688420D-01
P   1   1.00
      1.517000D-01           1.000000D+00
P   1   1.00
      0.0876489      1.0000000
P   1   1.00
      0.0438244      1.0000000
D   1   1.00
      5.500000D-01           1.0000000
****
C 2
S   9   1.00
      6.665000D+03           6.920000D-04
      1.000000D+03           5.329000D-03
      2.280000D+02           2.707700D-02
      6.471000D+01           1.017180D-01
      2.106000D+01           2.747400D-01
      7.495000D+00           4.485640D-01
      2.797000D+00           2.850740D-01
      5.215000D-01           1.520400D-02
      1.596000D-01          -3.191000D-03
S   9   1.00
      6.665000D+03          -1.460000D-04
      1.000000D+03          -1.154000D-03
      2.280000D+02          -5.725000D-03
      6.471000D+01          -2.331200D-02
      2.106000D+01          -6.395500D-02
      7.495000D+00          -1.499810D-01
      2.797000D+00          -1.272620D-01
      5.215000D-01           5.445290D-01
      1.596000D-01           5.804960D-01
S   1   1.00
      1.596000D-01           1.000000D+00
S   1   1.00
      0.0469000              1.0000000
P   4   1.00
      9.439000D+00           3.810900D-02
      2.002000D+00           2.094800D-01
      5.456000D-01           5.085570D-01
      1.517000D-01           4.688420D-01
P   1   1.00
      1.517000D-01           1.000000D+00
P   1   1.00
      0.0876489      1.0000000
P   1   1.00
      0.0438244      1.0000000
D   1   1.00
      5.500000D-01           1.0000000
****
H 3
cc-pVDZ
****
H 4
cc-pVDZ
****
H 5
cc-pVDZ
****
H 6
cc-pVDZ
****
H 7
aug-cc-pVDZ
****
$end
--------------------------------------------------------------
 ----------------------------------------------------------------
             Standard Nuclear Orientation (Angstroms)
    I     Atom           X                Y                Z
 ----------------------------------------------------------------
    1      C       0.0000000000     0.0000000000     0.8417902855
    2      C       0.0000000000     0.0000000000    -0.4872097145
    3      H       0.9623488518     0.0000000000     1.3363703075
    4      H       0.9623489048     0.0000000000    -0.9817896925
    5      H      -0.9623488518     0.0000000000     1.3363703075
    6      H      -0.9623489048     0.0000000000    -0.9817896925
    7      H       0.0000000000     0.0000000000    -2.8366446560
 ----------------------------------------------------------------
 Molecular Point Group                 C2v   NOp =  4
 Largest Abelian Subgroup              C2v   NOp =  4
 Nuclear Repulsion Energy =          36.55739271 hartrees
 There are        9 alpha and        9 beta electrons
 Requested basis set is non-standard
 There are 33 shells and 67 basis functions
 Total memory of 95000 MB is distributed as follows: 
   MEM_STATIC is set to 192 MB
   QALLOC/CCMAN JOB total memory use is  94808 MB
 Warning: actual memory use might exceed 95000 MB

 Total QAlloc Memory Limit  95000 MB
 Mega-Array Size       188 MB
 MEM_STATIC part       192 MB

                       Distance Matrix (Angstroms)
             C (  1)   C (  2)   H (  3)   H (  4)   H (  5)   H (  6)
   C (  2)  1.329000
   H (  3)  1.082000  2.061931
   H (  4)  2.061931  1.082000  2.318160
   H (  5)  1.082000  2.061931  1.924698  3.013026
   H (  6)  2.061931  1.082000  3.013026  1.924698  2.318160
   H (  7)  3.678435  2.349435  4.282542  2.089642  4.282542  2.089642

 
 A cutoff of  1.0D-14 yielded    561 shell pairs
 There are      2337 function pairs (      2484 Cartesian)
 Smallest overlap matrix eigenvalue = 1.34E-04

 Scale SEOQF with 1.000000e-01/1.000000e-01/1.000000e-01

 Standard Electronic Orientation quadrupole field applied
 Nucleus-field energy     =    -0.0000000019 hartrees
 ================ Generating on-the-fly SAD Guess ================
Attempting to make child job directory: /src/jdavis/qchem.scratch/qchem31045//Frg1/
Attempting to make child job directory: /src/jdavis/qchem.scratch/qchem31045//Frg2/
Creating input file /src/jdavis/qchem.scratch/qchem31045/Frg1.input
using default PutDataFrgm: nothing
calling putenv with: QCSCRATCH=/src/jdavis/qchem.scratch/qchem31045/ 
Spawning Job For Fragment 0
Done Job For Fragment 0
calling putenv with: QCSCRATCH=/src/jdavis/qchem.scratch 
calling putenv with: QCTHREADS=1 
Creating input file /src/jdavis/qchem.scratch/qchem31045/Frg2.input
using default PutDataFrgm: nothing
calling putenv with: QCSCRATCH=/src/jdavis/qchem.scratch/qchem31045/ 
Spawning Job For Fragment 1
Done Job For Fragment 1
calling putenv with: QCSCRATCH=/src/jdavis/qchem.scratch 
calling putenv with: QCTHREADS=1 
 Time for running child jobs:  CPU 1.77 s  wall 54.45 s
 ============= Method Specific SAD Guess Constructed =============
 Guess from on-the-fly superposition of atomic densities
 Warning: Energy on first SCF cycle will be non-variational
 A restricted Hartree-Fock SCF calculation will be
 performed using Pulay DIIS extrapolation
 SCF converges when DIIS error is below 1.0E-08
 using 10 threads for integral computing
 -------------------------------------------------------
 OpenMP Integral computing Module                
 Release: version 1.0, May 2013, Q-Chem Inc. Pittsburgh 
 -------------------------------------------------------
 ---------------------------------------
  Cycle       Energy         DIIS Error
 ---------------------------------------
    1     -78.8401966079      7.39E-02
    2     -78.4380745727      7.16E-03
    3     -78.4945072820      2.33E-03
    4     -78.4986366173      8.98E-04
    5     -78.4994066412      2.37E-04
    6     -78.4994924606      7.70E-05
    7     -78.4995052782      3.71E-05
    8     -78.4995079998      7.22E-06
    9     -78.4995081252      1.39E-06
   10     -78.4995081300      2.51E-07
   11     -78.4995081302      5.23E-08
   12     -78.4995081302      1.09E-08
   13     -78.4995081302      1.83E-09 Convergence criterion met
 ---------------------------------------
 SCF time:  CPU 12.74 s  wall 1.28 s
 SCF   energy in the final basis set = -78.49950813
 Total energy in the final basis set = -78.49950813
================================================================================
|                                                                              |
|                                 A D C  M A N                                 |
|                                                                              |
 ------------------------------------------------------------------------------ 
|                                                                              |
| Components:                                                                  |
|                                                                              |
| - libvmm - 1.3-trunk                                                         |
|   Authors:                                                                   |
|   Evgeny Epifanovsky, Ilya Kaliman                                           |
|                                                                              |
| - libtensor - 2.5-trunk                                                      |
|   Authors:                                                                   |
|   Evgeny Epifanovsky, Michael Wormit, Dmitry Zuev, Sam Manzer,               |
|   Ilya Kaliman                                                               |
|                                                                              |
| - libwfa - 1.1-trunk                                                         |
|   Authors:                                                                   |
|   Felix Plasser, Stefanie Mewes (Baeppler), Benjamin Thomitzni,              |
|   Michael Wormit, Feng Chen, Anna I. Krylov, Pavel Pokhilko                  |
|                                                                              |
| - libadc - 1.1-trunk                                                         |
|   Authors:                                                                   |
|   Michael Wormit, Adrian L. Dempwolff, Philipp H. P. Harbach,                |
|   Caroline Krauter, Dirk Rehn, Matthias Schneider, Jan Wenzel                |
|                                                                              |
| - adcman - 2.6-trunk                                                         |
|   Authors:                                                                   |
|   Michael Wormit, Adrian L. Dempwolff, Philipp H. P. Harbach,                |
|   Caroline Krauter, Daniel Lefrancois, Jan-Michael Mewes, Dirk Rehn,         |
|   Matthias Schneider, Jan Wenzel, Andreas Dreuw                              |
|                                                                              |
| Authors of earlier versions of ADCMAN:                                       |
| Andreas Dreuw, Jan Hendrik Starcke, Dirk Rehn, Michael Wormit                |
|                                                                              |
================================================================================

 
 Alpha MOs, Restricted
 -- Occupied --                  
-11.073 -11.068  -0.880  -0.617  -0.499  -0.403  -0.350  -0.216
  1 A1    2 A1    3 A1    4 A1    1 B1    5 A1    2 B1    1 B2                 
 -0.031
  6 A1                                                                         
 -- Virtual --                   
  0.179   0.202   0.210   0.252   0.260   0.263   0.332   0.344
  7 A1    3 B1    2 B2    3 B2    4 B1    8 A1    9 A1    4 B2                 
  0.370   0.407   0.468   0.479   0.507   0.508   0.520   0.550
 10 A1   11 A1    5 B1   12 A1   13 A1    6 B1    5 B2    7 B1                 
  0.601   0.621   0.694   0.776   0.997   1.006   1.092   1.128
 14 A1    6 B2    8 B1   15 A1   16 A1    9 B1   17 A1   18 A1                 
  1.159   1.185   1.245   1.246   1.275   1.313   1.343   1.368
 19 A1   10 B1   11 B1   20 A1    1 A2    7 B2   21 A1    8 B2                 
  1.449   1.456   1.508   1.634   1.770   1.834   1.875   1.892
  2 A2    9 B2   22 A1   12 B1   23 A1   13 B1   14 B1   10 B2                 
  2.006   2.037   2.065   2.111   2.179   2.247   2.268   2.309
 15 B1   11 B2   24 A1   12 B2    3 A2   25 A1   16 B1   26 A1                 
  2.350   2.534   2.575   2.641   2.730   2.749   3.021   3.023
 13 B2   27 A1    4 A2   28 A1   17 B1   29 A1   18 B1   30 A1                 
  3.456   3.514
 31 A1   19 B1                                                                 
 
 Beta MOs, Restricted
 -- Occupied --                  
-11.073 -11.068  -0.880  -0.617  -0.499  -0.403  -0.350  -0.216
  1 A1    2 A1    3 A1    4 A1    1 B1    5 A1    2 B1    1 B2                 
 -0.031
  6 A1                                                                         
 -- Virtual --                   
  0.179   0.202   0.210   0.252   0.260   0.263   0.332   0.344
  7 A1    3 B1    2 B2    3 B2    4 B1    8 A1    9 A1    4 B2                 
  0.370   0.407   0.468   0.479   0.507   0.508   0.520   0.550
 10 A1   11 A1    5 B1   12 A1   13 A1    6 B1    5 B2    7 B1                 
  0.601   0.621   0.694   0.776   0.997   1.006   1.092   1.128
 14 A1    6 B2    8 B1   15 A1   16 A1    9 B1   17 A1   18 A1                 
  1.159   1.185   1.245   1.246   1.275   1.313   1.343   1.368
 19 A1   10 B1   11 B1   20 A1    1 A2    7 B2   21 A1    8 B2                 
  1.449   1.456   1.508   1.634   1.770   1.834   1.875   1.892
  2 A2    9 B2   22 A1   12 B1   23 A1   13 B1   14 B1   10 B2                 
  2.006   2.037   2.065   2.111   2.179   2.247   2.268   2.309
 15 B1   11 B2   24 A1   12 B2    3 A2   25 A1   16 B1   26 A1                 
  2.350   2.534   2.575   2.641   2.730   2.749   3.021   3.023
 13 B2   27 A1    4 A2   28 A1   17 B1   29 A1   18 B1   30 A1                 
  3.456   3.514
 31 A1   19 B1                                                                 

--------------------------------------------------------------------------------
                                   HF Summary                                   
--------------------------------------------------------------------------------
  Energy:                                                  -78.4995081302 a.u.
  Dip. moment [a.u.]:                  [   0.000000,   -0.000000,    4.781369]
  Total dipole [Debye]:                                              12.153030
  <r^2> [a.u.]:                        [  27.457681,   17.457076,  113.556854]
  Total <r^2> [a.u.]:                                               158.471611
--------------------------------------------------------------------------------

--------------------------------------------------------------------------------
                                 MP(2) Summary                                  
--------------------------------------------------------------------------------
  MP energy contribution:                                   -0.3080125649 a.u.
  Total energy:                                            -78.8075206951 a.u.
  Dip. moment [a.u.]:                  [   0.000000,   -0.000000,    4.771758]
  Total dipole [Debye]:                                              12.128602
  <r^2> [a.u.]:                        [  27.683628,   17.468577,  113.322321]
  Total <r^2> [a.u.]:                                               158.474526

  Density matrix analysis:
  ------------------------
  NOs
    Occupation of frontier NOs:
       0.0435   1.9374
    Number of electrons: 18.000000
    Number of unpaired electrons: n_u =  0.47023, n_u,nl =  0.05116
    NO participation ratio (PR_NO): 16.610633
  
  
  Mulliken Population Analysis
  Atom      Charge (e)              h+              e-           Del q
  --------------------------------------------------------------------
   1 C       -1.349643        0.125610       -0.123588        0.002021
   2 C        0.110936        0.053916       -0.111849       -0.057933
   3 H        0.068903        0.019683       -0.012272        0.007411
   4 H        0.177080        0.016639       -0.013766        0.002873
   5 H        0.068903        0.019683       -0.012272        0.007411
   6 H        0.177080        0.016639       -0.013766        0.002873
   7 H       -0.253261        0.048899       -0.013556        0.035342
  --------------------------------------------------------------------
  Sum:       -1.000000        0.301068       -0.301068        0.000000
  
  Multipole moment analysis of the density matrix
    Molecular charge:                      -1.000000
    Number of electrons:                   18.000000
      Center of electronic charge [Ang]: [ -0.000000,   0.000000,  -0.140284]
    Total nuclear charge:                  17.000000
      Center of nuclear charge [Ang]:    [ -0.000000,   0.000000,  -0.000000]
    Dipole moment [D]:                     12.128598
      Cartesian components [D]:          [  0.000000,  -0.000000,  12.128598]
    RMS size of the density [Ang]:         1.563883
      Cartesian components [Ang]:        [  0.656261,   0.521307,   1.320338]
  
  Exciton analysis of the difference density matrix
    <r_h> [Ang]:                  [  0.000000,   0.000000,  -0.187218]
    <r_e> [Ang]:                  [ -0.000000,   0.000000,  -0.170325]
    |<r_e - r_h>| [Ang]:            0.016893
    Hole size [Ang]:                1.877826
      Cartesian components [Ang]: [  0.756048,   0.764178,   1.539692]
    Electron size [Ang]:            1.880154
      Cartesian components [Ang]: [  0.884176,   0.771146,   1.469200]
--------------------------------------------------------------------------------

--------------------------------------------------------------------------------
                                 MP(3) Summary                                  
--------------------------------------------------------------------------------
  MP energy contribution:                                   -0.0293728114 a.u.
  Total energy:                                            -78.8368935065 a.u.
--------------------------------------------------------------------------------
  Starting Davidson for singlet states of irrep B2 ... 
--------------------------------------------------------------------------------
   It NVec Conv  Avg. Norm  Max. Norm  Conv. states           Remark
--------------------------------------------------------------------------------
       100    0  9.894e-02  3.643e-01  0.1613 n n n n n n n n Guess.
    1  110    0  4.595e-02  3.119e-01  0.0903 n n n n n n n n 
    2  120    0  3.109e-02  1.634e-01  0.0839 n n n n n n n n 
    3  130    0  2.023e-02  1.339e-01  0.0833 n n n n n n n n 
    4  140    0  8.184e-03  5.385e-02  0.0833 n n n n n n n n 
    5  150    0  5.432e-03  4.045e-02  0.0833 n n n n n n n n 
    6  160    0  6.148e-03  4.301e-02  0.0833 n n n n n n n n 
    7  170    0  4.118e-03  2.953e-02  0.0833 n n n n n n n n 
    8  180    1  2.156e-03  1.720e-02  0.0833 n y n n n n n n 
    9  190    4  1.109e-03  9.330e-03  0.0833 y y y y n n n n 
   10  200    5  6.621e-04  5.958e-03  0.0833 y y y y n n y n 
   11   20    5  2.850e-04  2.581e-03  0.0833 y y y y n n y n Subspace collapsed.
   12   30    7  2.685e-04  2.538e-03  0.0833 y y y y y y y n 
   13   40    7  1.856e-04  1.805e-03  0.0833 y y y y y y y n 
   14   50    7  1.240e-04  1.217e-03  0.0833 y y y y y y y n 
   15   60    7  8.539e-05  8.444e-04  0.0833 y y y y y y y n 
   16   70    7  5.759e-05  5.709e-04  0.0833 y y y y y y y n 
   17   80    7  4.448e-05  4.428e-04  0.0833 y y y y y y y n 
   18   90    8  2.841e-05  2.832e-04  0.0833 y y y y y y y n 
   19  100    8  1.925e-05  1.921e-04  0.0833 y y y y y y y n 
   20  110    9  2.005e-05  2.004e-04  0.0833 y y y y y y y y 
   21  120    9  2.117e-05  2.117e-04  0.0833 y y y y y y y y 
   22  130    9  1.875e-05  1.875e-04  0.0833 y y y y y y y y 
   23  140    9  1.207e-05  1.207e-04  0.0833 y y y y y y y y 
   24  148    9  5.212e-06  5.212e-05  0.0833 y y y y y y y y 
   25  156    9  2.119e-06  2.119e-05  0.0833 y y y y y y y y 
   26  164   10  7.754e-07  7.754e-06  0.0833 y y y y y y y y Converged.
--------------------------------------------------------------------------------
  Davidson Summary: 
 ------------------------------------------------------------
  State  0: excitation energy =   0.0833 a.u.   (converged)
  State  1: excitation energy =   0.0951 a.u.   (converged)
  State  2: excitation energy =   0.1612 a.u.   (converged)
  State  3: excitation energy =   0.2338 a.u.   (converged)
  State  4: excitation energy =   0.2490 a.u.   (converged)
  State  5: excitation energy =   0.2713 a.u.   (converged)
  State  6: excitation energy =   0.2824 a.u.   (converged)
  State  7: excitation energy =   0.3306 a.u.   (converged)
  State  8: excitation energy =   0.3438 a.u.   (converged)
  State  9: excitation energy =   0.3535 a.u.   (converged)
 ------------------------------------------------------------


--------------------------------------------------------------------------------
                   State-averaged natural transition orbitals
--------------------------------------------------------------------------------
--------------------------------------------------------------------------------

--------------------------------------------------------------------------------
                             Excited State Summary
--------------------------------------------------------------------------------
--------------------------------------------------------------------------------

  Excited state 1 (singlet, B2)                                    [converged]
  ----------------------------------------------------------------------------
  Term symbol:  1 (1) B2                                    R^2 =  6.86317e-15

  Total energy:                                            -78.7536291222 a.u.
  Excitation energy:                                               2.265739 eV

  Osc. strength:                                                      0.045039
  Trans. dip. moment [a.u.]:           [   0.000000,    0.900766,   -0.000000]
  <i|r^2|0> [a.u.]:                    [  -0.000000,   -0.000000,   -0.000000]

  Dip. moment [a.u.]:                  [  -0.000000,   -0.000000,   -0.202553]
  Total dipole [Debye]:                                               0.514839
  <r^2> [a.u.]:                        [  28.261531,   25.497136,   94.344892]
  Total <r^2> [a.u.]:                                               148.103559

  V1^2 = 0.8565, V2^2 = 0.1435

  Important amplitudes:
      occ i      occ j       vir a       vir b          v   
    ---------------------------------------------------------
     6 (A1) A               3 (B2) A                 -0.5098
     6 (A1) A               2 (B2) A                  0.3190
    ---------------------------------------------------------

  Density matrix analysis:
  ------------------------
  NOs
    Occupation of frontier NOs:
       0.9869   0.9888
    Number of electrons: 18.000000
    Number of unpaired electrons: n_u =  2.43506, n_u,nl =  2.04970
    NO participation ratio (PR_NO):  3.018120
  
  
  Mulliken Population Analysis
  Atom      Charge (e)              h+              e-           Del q
  --------------------------------------------------------------------
   1 C       -0.695273        1.244310       -0.589940        0.654370
   2 C       -0.630502       -0.195324       -0.546114       -0.741438
   3 H        0.074147        0.011987       -0.006743        0.005244
   4 H        0.085034       -0.002469       -0.089577       -0.092046
   5 H        0.074147        0.011987       -0.006743        0.005244
   6 H        0.085034       -0.002469       -0.089577       -0.092046
   7 H        0.007412        0.361076       -0.100404        0.260673
  --------------------------------------------------------------------
  Sum:       -1.000000        1.429098       -1.429098       -0.000000
  
  Multipole moment analysis of the density matrix
    Molecular charge:                      -1.000000
    Number of electrons:                   18.000000
      Center of electronic charge [Ang]: [  0.000000,   0.000000,   0.005955]
    Total nuclear charge:                  17.000000
      Center of nuclear charge [Ang]:    [ -0.000000,   0.000000,  -0.000000]
    Dipole moment [D]:                     0.514838
      Cartesian components [D]:          [ -0.000000,  -0.000000,  -0.514838]
    RMS size of the density [Ang]:         1.517904
      Cartesian components [Ang]:        [  0.663075,   0.629811,   1.211487]
  
  Exciton analysis of the difference density matrix
    <r_h> [Ang]:                  [ -0.000000,   0.000000,  -2.232194]
    <r_e> [Ang]:                  [  0.000000,   0.000000,  -0.390269]
    |<r_e - r_h>| [Ang]:            1.841925
    Hole size [Ang]:                2.179646
      Cartesian components [Ang]: [  1.045473,   1.070470,   1.584909]
    Electron size [Ang]:            2.747557
      Cartesian components [Ang]: [  1.098295,   1.648964,   1.903611]

  Transition density matrix analysis:
  -----------------------------------
  
  CT numbers (Mulliken)
    omega =     0.8368
    <Phe> =    -0.0157
  
  Exciton analysis of the transition density matrix
    Trans. dipole moment [D]:             1.144759
      Cartesian components [D]:         [  0.000000,   1.144759,  -0.000000]
    <r_h> [Ang]:                        [ -0.000000,   0.000000,  -2.801069]
    <r_e> [Ang]:                        [  0.000000,   0.000000,   0.076354]
    |<r_e - r_h>| [Ang]:                  2.877422
    Hole size [Ang]:                      1.571321
      Cartesian components [Ang]:       [  0.877663,   0.880873,   0.960635]
    Electron size [Ang]:                  2.789804
      Cartesian components [Ang]:       [  1.040793,   1.791143,   1.868573]
    RMS electron-hole separation [Ang]:   4.303926
      Cartesian components [Ang]:       [  1.361315,   1.995758,   3.561959]
    Covariance(r_h, r_e) [Ang^2]:         0.003917
    Correlation coefficient:              0.000893
    Center-of-mass size [Ang]:            1.601553
      Cartesian components [Ang]:       [  0.680791,   0.998149,   1.051282]

  Decomposition into state-averaged NTOs
    H- 0 -> L+ 0: -0.5839 ( 68.2%)
    H- 0 -> L+ 4: -0.2331 ( 10.9%)
    H- 0 -> L+ 3:  0.1462 (  4.3%)
                   omega =  83.7%
  ----------------------------------------------------------------------------


  Excited state 2 (singlet, B2)                                    [converged]
  ----------------------------------------------------------------------------
  Term symbol:  2 (1) B2                                    R^2 =  3.78877e-15

  Total energy:                                            -78.7417813684 a.u.
  Excitation energy:                                               2.588133 eV

  Osc. strength:                                                      0.029683
  Trans. dip. moment [a.u.]:           [  -0.000000,   -0.684202,    0.000000]
  <i|r^2|0> [a.u.]:                    [  -0.000000,   -0.000000,   -0.000000]

  Dip. moment [a.u.]:                  [  -0.000000,    0.000000,   -0.366570]
  Total dipole [Debye]:                                               0.931728
  <r^2> [a.u.]:                        [  32.584097,   40.201166,   90.594863]
  Total <r^2> [a.u.]:                                               163.380126

  V1^2 = 0.8676, V2^2 = 0.1324

  Important amplitudes:
      occ i      occ j       vir a       vir b          v   
    ---------------------------------------------------------
     6 (A1) A               2 (B2) A                  0.5403
     6 (A1) A               3 (B2) A                  0.3681
    ---------------------------------------------------------

  Density matrix analysis:
  ------------------------
  NOs
    Occupation of frontier NOs:
       0.9902   0.9924
    Number of electrons: 18.000000
    Number of unpaired electrons: n_u =  2.42939, n_u,nl =  2.05199
    NO participation ratio (PR_NO):  2.982065
  
  
  Mulliken Population Analysis
  Atom      Charge (e)              h+              e-           Del q
  --------------------------------------------------------------------
   1 C       -0.688782        1.342868       -0.682006        0.660861
   2 C       -0.683241       -0.297088       -0.497090       -0.794178
   3 H        0.086929        0.022708       -0.004682        0.018026
   4 H        0.098819       -0.009264       -0.068998       -0.078262
   5 H        0.086929        0.022708       -0.004682        0.018026
   6 H        0.098819       -0.009264       -0.068998       -0.078262
   7 H        0.000527        0.367125       -0.113337        0.253788
  --------------------------------------------------------------------
  Sum:       -1.000000        1.439793       -1.439793       -0.000000
  
  Multipole moment analysis of the density matrix
    Molecular charge:                      -1.000000
    Number of electrons:                   18.000000
      Center of electronic charge [Ang]: [  0.000000,  -0.000000,   0.010777]
    Total nuclear charge:                  17.000000
      Center of nuclear charge [Ang]:    [ -0.000000,   0.000000,  -0.000000]
    Dipole moment [D]:                     0.931728
      Cartesian components [D]:          [ -0.000000,   0.000000,  -0.931728]
    RMS size of the density [Ang]:         1.594243
      Cartesian components [Ang]:        [  0.711980,   0.790832,   1.187131]
  
  Exciton analysis of the difference density matrix
    <r_h> [Ang]:                  [ -0.000000,   0.000000,  -2.190103]
    <r_e> [Ang]:                  [  0.000000,  -0.000000,  -0.301577]
    |<r_e - r_h>| [Ang]:            1.888526
    Hole size [Ang]:                2.247299
      Cartesian components [Ang]: [  1.051682,   1.054826,   1.682753]
    Electron size [Ang]:            3.272622
      Cartesian components [Ang]: [  1.434970,   2.352439,   1.765488]

  Transition density matrix analysis:
  -----------------------------------
  
  CT numbers (Mulliken)
    omega =     0.8548
    <Phe> =    -0.0056
  
  Exciton analysis of the transition density matrix
    Trans. dipole moment [D]:             0.869533
      Cartesian components [D]:         [ -0.000000,  -0.869533,   0.000000]
    <r_h> [Ang]:                        [ -0.000000,   0.000000,  -2.828083]
    <r_e> [Ang]:                        [ -0.000000,  -0.000000,   0.187674]
    |<r_e - r_h>| [Ang]:                  3.015756
    Hole size [Ang]:                      1.554137
      Cartesian components [Ang]:       [  0.881970,   0.885957,   0.923337]
    Electron size [Ang]:                  3.580710
      Cartesian components [Ang]:       [  1.591364,   2.756416,   1.640493]
    RMS electron-hole separation [Ang]:   4.931122
      Cartesian components [Ang]:       [  1.819410,   2.895261,   3.552911]
    Covariance(r_h, r_e) [Ang^2]:         0.007823
    Correlation coefficient:              0.001406
    Center-of-mass size [Ang]:            1.952721
      Cartesian components [Ang]:       [  0.909721,   1.447667,   0.943285]

  Decomposition into state-averaged NTOs
    H- 0 -> L+ 3: -0.6273 ( 78.7%)
    H- 0 -> L+ 4: -0.1554 (  4.8%)
    H- 0 -> L+ 0: -0.0949 (  1.8%)
                   omega =  85.5%
  ----------------------------------------------------------------------------


  Excited state 3 (singlet, B2)                                    [converged]
  ----------------------------------------------------------------------------
  Term symbol:  3 (1) B2                                    R^2 =  5.90609e-15

  Total energy:                                            -78.6757351369 a.u.
  Excitation energy:                                               4.385342 eV

  Osc. strength:                                                      0.101177
  Trans. dip. moment [a.u.]:           [   0.000000,    0.970421,    0.000000]
  <i|r^2|0> [a.u.]:                    [   0.000000,    0.000000,    0.000000]

  Dip. moment [a.u.]:                  [  -0.000000,    0.000000,   -0.274754]
  Total dipole [Debye]:                                               0.698356
  <r^2> [a.u.]:                        [  30.132686,   31.087953,   99.226547]
  Total <r^2> [a.u.]:                                               160.447186

  V1^2 = 0.8351, V2^2 = 0.1649

  Important amplitudes:
      occ i      occ j       vir a       vir b          v   
    ---------------------------------------------------------
     6 (A1) A               4 (B2) A                  0.5794
     6 (A1) A               2 (B2) A                  0.1918
    ---------------------------------------------------------

  Density matrix analysis:
  ------------------------
  NOs
    Occupation of frontier NOs:
       0.9647   0.9852
    Number of electrons: 18.000000
    Number of unpaired electrons: n_u =  2.48977, n_u,nl =  2.07500
    NO participation ratio (PR_NO):  3.225152
  
  
  Mulliken Population Analysis
  Atom      Charge (e)              h+              e-           Del q
  --------------------------------------------------------------------
   1 C       -0.659012        1.265001       -0.574370        0.690631
   2 C       -0.657537       -0.199867       -0.568607       -0.768474
   3 H        0.066501        0.008080       -0.010482       -0.002403
   4 H        0.078670       -0.005298       -0.093112       -0.098410
   5 H        0.066501        0.008080       -0.010482       -0.002403
   6 H        0.078670       -0.005298       -0.093112       -0.098410
   7 H        0.026208        0.374802       -0.095333        0.279468
  --------------------------------------------------------------------
  Sum:       -1.000000        1.445499       -1.445499        0.000000
  
  Multipole moment analysis of the density matrix
    Molecular charge:                      -1.000000
    Number of electrons:                   18.000000
      Center of electronic charge [Ang]: [  0.000000,  -0.000000,   0.008077]
    Total nuclear charge:                  17.000000
      Center of nuclear charge [Ang]:    [ -0.000000,   0.000000,  -0.000000]
    Dipole moment [D]:                     0.698355
      Cartesian components [D]:          [ -0.000000,   0.000000,  -0.698355]
    RMS size of the density [Ang]:         1.579884
      Cartesian components [Ang]:        [  0.684674,   0.695442,   1.242423]
  
  Exciton analysis of the difference density matrix
    <r_h> [Ang]:                  [ -0.000000,   0.000000,  -2.226730]
    <r_e> [Ang]:                  [  0.000000,  -0.000000,  -0.379270]
    |<r_e - r_h>| [Ang]:            1.847459
    Hole size [Ang]:                2.146255
      Cartesian components [Ang]: [  1.023974,   1.049849,   1.567068]
    Electron size [Ang]:            3.130981
      Cartesian components [Ang]: [  1.234085,   1.934061,   2.130607]

  Transition density matrix analysis:
  -----------------------------------
  
  CT numbers (Mulliken)
    omega =     0.8175
    <Phe> =    -0.0076
  
  Exciton analysis of the transition density matrix
    Trans. dipole moment [D]:             1.233282
      Cartesian components [D]:         [  0.000000,   1.233282,   0.000000]
    <r_h> [Ang]:                        [ -0.000000,   0.000000,  -2.808590]
    <r_e> [Ang]:                        [ -0.000000,  -0.000000,   0.157084]
    |<r_e - r_h>| [Ang]:                  2.965674
    Hole size [Ang]:                      1.567853
      Cartesian components [Ang]:       [  0.878544,   0.882345,   0.952780]
    Electron size [Ang]:                  3.377422
      Cartesian components [Ang]:       [  1.268190,   2.189130,   2.237496]
    RMS electron-hole separation [Ang]:   4.759025
      Cartesian components [Ang]:       [  1.542700,   2.359596,   3.834150]
    Covariance(r_h, r_e) [Ang^2]:         0.006022
    Correlation coefficient:              0.001137
    Center-of-mass size [Ang]:            1.862605
      Cartesian components [Ang]:       [  0.771422,   1.180461,   1.216847]

  Decomposition into state-averaged NTOs
    H- 0 -> L+ 4: -0.5814 ( 67.6%)
    H- 0 -> L+ 0:  0.2399 ( 11.5%)
    H- 0 -> L+ 3:  0.1092 (  2.4%)
                   omega =  81.8%
  ----------------------------------------------------------------------------


  Excited state 4 (singlet, B2)                                    [converged]
  ----------------------------------------------------------------------------
  Term symbol:  4 (1) B2                                    R^2 =  1.53991e-14

  Total energy:                                            -78.6031103627 a.u.
  Excitation energy:                                               6.361563 eV

  Osc. strength:                                                      0.069408
  Trans. dip. moment [a.u.]:           [  -0.000000,   -0.667333,    0.000000]
  <i|r^2|0> [a.u.]:                    [  -0.000000,    0.000000,   -0.000000]

  Dip. moment [a.u.]:                  [  -0.000000,    0.000000,    0.418271]
  Total dipole [Debye]:                                               1.063138
  <r^2> [a.u.]:                        [  32.705067,   21.544853,  137.611969]
  Total <r^2> [a.u.]:                                               191.861889

  V1^2 = 0.9352, V2^2 = 0.0648

  Important amplitudes:
      occ i      occ j       vir a       vir b          v   
    ---------------------------------------------------------
     1 (B2) A               7 (A1) A                  0.6340
     1 (B2) A               8 (A1) A                  0.2258
    ---------------------------------------------------------

  Density matrix analysis:
  ------------------------
  NOs
    Occupation of frontier NOs:
       0.9843   0.9922
    Number of electrons: 18.000000
    Number of unpaired electrons: n_u =  2.36977, n_u,nl =  2.03244
    NO participation ratio (PR_NO):  2.862415
  
  
  Mulliken Population Analysis
  Atom      Charge (e)              h+              e-           Del q
  --------------------------------------------------------------------
   1 C       -0.403022        0.724082        0.222540        0.946621
   2 C       -1.150226        0.365512       -1.626675       -1.261163
   3 H        0.177963        0.123718       -0.014658        0.109060
   4 H        0.246661        0.060133        0.009447        0.069580
   5 H        0.177963        0.123718       -0.014658        0.109060
   6 H        0.246661        0.060133        0.009447        0.069580
   7 H       -0.295999        0.012917       -0.055656       -0.042738
  --------------------------------------------------------------------
  Sum:       -1.000000        1.470214       -1.470214       -0.000000
  
  Multipole moment analysis of the density matrix
    Molecular charge:                      -1.000000
    Number of electrons:                   18.000000
      Center of electronic charge [Ang]: [  0.000000,  -0.000000,  -0.012297]
    Total nuclear charge:                  17.000000
      Center of nuclear charge [Ang]:    [ -0.000000,   0.000000,  -0.000000]
    Dipole moment [D]:                     1.063138
      Cartesian components [D]:          [ -0.000000,   0.000000,   1.063138]
    RMS size of the density [Ang]:         1.727620
      Cartesian components [Ang]:        [  0.713300,   0.578944,   1.463112]
  
  Exciton analysis of the difference density matrix
    <r_h> [Ang]:                  [ -0.000000,   0.000000,   0.178448]
    <r_e> [Ang]:                  [  0.000000,  -0.000000,   1.745408]
    |<r_e - r_h>| [Ang]:            1.566960
    Hole size [Ang]:                1.878890
      Cartesian components [Ang]: [  0.847194,   0.930522,   1.395212]
    Electron size [Ang]:            2.621992
      Cartesian components [Ang]: [  1.293894,   1.281511,   1.886374]

  Transition density matrix analysis:
  -----------------------------------
  
  CT numbers (Mulliken)
    omega =     0.9047
    <Phe> =    -0.0079
  
  Exciton analysis of the transition density matrix
    Trans. dipole moment [D]:             0.848096
      Cartesian components [D]:         [ -0.000000,  -0.848096,   0.000000]
    <r_h> [Ang]:                        [ -0.000000,  -0.000000,   0.282509]
    <r_e> [Ang]:                        [  0.000000,  -0.000000,   2.643215]
    |<r_e - r_h>| [Ang]:                  2.360705
    Hole size [Ang]:                      1.279834
      Cartesian components [Ang]:       [  0.522674,   0.886186,   0.761223]
    Electron size [Ang]:                  2.485738
      Cartesian components [Ang]:       [  1.483402,   1.490945,   1.324951]
    RMS electron-hole separation [Ang]:   3.654230
      Cartesian components [Ang]:       [  1.572162,   1.726378,   2.810930]
    Covariance(r_h, r_e) [Ang^2]:         0.018200
    Correlation coefficient:              0.005721
    Center-of-mass size [Ang]:            1.401184
      Cartesian components [Ang]:       [  0.786709,   0.871221,   0.765100]

  Decomposition into state-averaged NTOs
    H- 1 -> L+ 1:  0.6579 ( 86.6%)
    H- 1 -> L+ 2:  0.1384 (  3.8%)
                   omega =  90.5%
  ----------------------------------------------------------------------------


  Excited state 5 (singlet, B2)                                    [converged]
  ----------------------------------------------------------------------------
  Term symbol:  5 (1) B2                                    R^2 =  1.57840e-12

  Total energy:                                            -78.5878452900 a.u.
  Excitation energy:                                               6.776947 eV

  Osc. strength:                                                      0.000074
  Trans. dip. moment [a.u.]:           [  -0.000000,   -0.021151,    0.000000]
  <i|r^2|0> [a.u.]:                    [   0.000000,    0.000000,    0.000000]

  Dip. moment [a.u.]:                  [   0.000000,   -0.000000,    1.318811]
  Total dipole [Debye]:                                               3.352084
  <r^2> [a.u.]:                        [  31.750471,   34.312339,  100.188726]
  Total <r^2> [a.u.]:                                               166.251536

  V1^2 = 0.0170, V2^2 = 0.9830

  Important amplitudes:
      occ i      occ j       vir a       vir b          v   
    ---------------------------------------------------------
     6 (A1) A   1 (B2) B    4 (B2) A    3 (B2) B      0.2021
     6 (A1) A   1 (B2) B    3 (B2) A    3 (B2) B      0.1935
    ---------------------------------------------------------

  Density matrix analysis:
  ------------------------
  NOs
    Occupation of frontier NOs:
       0.9669   0.9721
    Number of electrons: 18.000000
    Number of unpaired electrons: n_u =  3.03714, n_u,nl =  2.72049
    NO participation ratio (PR_NO):  4.300327
  
  
  Mulliken Population Analysis
  Atom      Charge (e)              h+              e-           Del q
  --------------------------------------------------------------------
   1 C       -0.669587        1.047002       -0.366946        0.680057
   2 C       -1.171424        0.318318       -1.600678       -1.282360
   3 H        0.068122        0.007110       -0.007892       -0.000781
   4 H        0.168833       -0.001121       -0.007126       -0.008247
   5 H        0.068122        0.007110       -0.007892       -0.000781
   6 H        0.168833       -0.001121       -0.007126       -0.008247
   7 H        0.367101        0.625097       -0.004736        0.620361
  --------------------------------------------------------------------
  Sum:       -1.000000        2.002395       -2.002395       -0.000000
  
  Multipole moment analysis of the density matrix
    Molecular charge:                      -1.000000
    Number of electrons:                   18.000000
      Center of electronic charge [Ang]: [ -0.000000,   0.000000,  -0.038771]
    Total nuclear charge:                  17.000000
      Center of nuclear charge [Ang]:    [ -0.000000,   0.000000,  -0.000000]
    Dipole moment [D]:                     3.352083
      Cartesian components [D]:          [  0.000000,  -0.000000,   3.352083]
    RMS size of the density [Ang]:         1.607761
      Cartesian components [Ang]:        [  0.702813,   0.730617,   1.247857]
  
  Exciton analysis of the difference density matrix
    <r_h> [Ang]:                  [ -0.000000,  -0.000000,  -1.288020]
    <r_e> [Ang]:                  [ -0.000000,   0.000000,  -0.375502]
    |<r_e - r_h>| [Ang]:            0.912518
    Hole size [Ang]:                2.092777
      Cartesian components [Ang]: [  0.711928,   0.877885,   1.761304]
    Electron size [Ang]:            2.642971
      Cartesian components [Ang]: [  1.037100,   1.768114,   1.668381]

  Transition density matrix analysis:
  -----------------------------------
  
  CT numbers (Mulliken)
    omega =     0.0176
    <Phe> =     0.0106
  
  Exciton analysis of the transition density matrix
    Trans. dipole moment [D]:             0.026881
      Cartesian components [D]:         [ -0.000000,  -0.026881,   0.000000]
    <r_h> [Ang]:                        [ -0.000000,   0.000000,  -1.827691]
    <r_e> [Ang]:                        [ -0.000000,  -0.000000,   0.021934]
    |<r_e - r_h>| [Ang]:                  1.849624
    Hole size [Ang]:                      2.034527
      Cartesian components [Ang]:       [  0.777406,   0.843021,   1.680552]
    Electron size [Ang]:                  2.572229
      Cartesian components [Ang]:       [  0.985964,   1.510836,   1.833470]
    RMS electron-hole separation [Ang]:   3.947879
      Cartesian components [Ang]:       [  1.255287,   1.715581,   3.326678]
    Covariance(r_h, r_e) [Ang^2]:        -0.704488
    Correlation coefficient:             -0.134617
    Center-of-mass size [Ang]:            1.528618
      Cartesian components [Ang]:       [  0.627938,   0.872267,   1.086976]

  Decomposition into state-averaged NTOs
                   omega =   1.8%
  ----------------------------------------------------------------------------


  Excited state 6 (singlet, B2)                                    [converged]
  ----------------------------------------------------------------------------
  Term symbol:  6 (1) B2                                    R^2 =  3.33955e-12

  Total energy:                                            -78.5655948574 a.u.
  Excitation energy:                                               7.382412 eV

  Osc. strength:                                                      0.000510
  Trans. dip. moment [a.u.]:           [   0.000000,    0.053085,    0.000000]
  <i|r^2|0> [a.u.]:                    [   0.000000,    0.000000,    0.000000]

  Dip. moment [a.u.]:                  [   0.000000,   -0.000000,   -2.317127]
  Total dipole [Debye]:                                               5.889551
  <r^2> [a.u.]:                        [  33.903057,   40.636489,   96.488973]
  Total <r^2> [a.u.]:                                               171.028519

  V1^2 = 0.0251, V2^2 = 0.9749

  Important amplitudes:
      occ i      occ j       vir a       vir b          v   
    ---------------------------------------------------------
     6 (A1) A   1 (B2) B    4 (B2) A    2 (B2) B      0.2160
     6 (A1) A   1 (B2) B    3 (B2) A    2 (B2) B      0.1274
    ---------------------------------------------------------

  Density matrix analysis:
  ------------------------
  NOs
    Occupation of frontier NOs:
       0.9618   0.9730
    Number of electrons: 18.000000
    Number of unpaired electrons: n_u =  3.69668, n_u,nl =  3.64776
    NO participation ratio (PR_NO):  4.854392
  
  
  Mulliken Population Analysis
  Atom      Charge (e)              h+              e-           Del q
  --------------------------------------------------------------------
   1 C       -1.691667        1.080003       -1.422027       -0.342024
   2 C       -0.131575        0.286429       -0.528940       -0.242511
   3 H        0.065528        0.004790       -0.008166       -0.003376
   4 H        0.163593       -0.000103       -0.013384       -0.013487
   5 H        0.065528        0.004790       -0.008166       -0.003376
   6 H        0.163593       -0.000103       -0.013384       -0.013487
   7 H        0.365000        0.619234       -0.000973        0.618261
  --------------------------------------------------------------------
  Sum:       -1.000000        1.995041       -1.995041       -0.000000
  
  Multipole moment analysis of the density matrix
    Molecular charge:                      -1.000000
    Number of electrons:                   18.000000
      Center of electronic charge [Ang]: [ -0.000000,   0.000000,   0.068121]
    Total nuclear charge:                  17.000000
      Center of nuclear charge [Ang]:    [ -0.000000,   0.000000,  -0.000000]
    Dipole moment [D]:                     5.889550
      Cartesian components [D]:          [  0.000000,  -0.000000,  -5.889550]
    RMS size of the density [Ang]:         1.629747
      Cartesian components [Ang]:        [  0.726247,   0.795102,   1.223296]
  
  Exciton analysis of the difference density matrix
    <r_h> [Ang]:                  [ -0.000000,   0.000000,  -1.274706]
    <r_e> [Ang]:                  [ -0.000000,   0.000000,   0.605595]
    |<r_e - r_h>| [Ang]:            1.880301
    Hole size [Ang]:                2.106426
      Cartesian components [Ang]: [  0.715995,   0.890367,   1.769641]
    Electron size [Ang]:            2.730800
      Cartesian components [Ang]: [  1.177124,   2.011133,   1.423725]

  Transition density matrix analysis:
  -----------------------------------
  
  CT numbers (Mulliken)
    omega =     0.0248
    <Phe> =    -0.0050
  
  Exciton analysis of the transition density matrix
    Trans. dipole moment [D]:             0.067464
      Cartesian components [D]:         [  0.000000,   0.067464,   0.000000]
    <r_h> [Ang]:                        [ -0.000000,   0.000000,  -2.309039]
    <r_e> [Ang]:                        [ -0.000000,  -0.000000,   0.108959]
    |<r_e - r_h>| [Ang]:                  2.417998
    Hole size [Ang]:                      1.883403
      Cartesian components [Ang]:       [  0.854057,   0.859589,   1.441840]
    Electron size [Ang]:                  3.105700
      Cartesian components [Ang]:       [  1.189036,   1.977371,   2.078838]
    RMS electron-hole separation [Ang]:   4.319195
      Cartesian components [Ang]:       [  1.463792,   2.155934,   3.444518]
    Covariance(r_h, r_e) [Ang^2]:         0.191923
    Correlation coefficient:              0.032811
    Center-of-mass size [Ang]:            1.842310
      Cartesian components [Ang]:       [  0.732078,   1.078162,   1.302204]

  Decomposition into state-averaged NTOs
                   omega =   2.5%
  ----------------------------------------------------------------------------


  Excited state 7 (singlet, B2)                                    [converged]
  ----------------------------------------------------------------------------
  Term symbol:  7 (1) B2                                    R^2 =  4.82186e-13

  Total energy:                                            -78.5545209373 a.u.
  Excitation energy:                                               7.683748 eV

  Osc. strength:                                                      0.145774
  Trans. dip. moment [a.u.]:           [  -0.000000,   -0.879982,    0.000000]
  <i|r^2|0> [a.u.]:                    [   0.000000,    0.000000,   -0.000000]

  Dip. moment [a.u.]:                  [   0.000000,   -0.000000,    3.440249]
  Total dipole [Debye]:                                               8.744242
  <r^2> [a.u.]:                        [  34.394822,   22.868503,  123.001789]
  Total <r^2> [a.u.]:                                               180.265114

  V1^2 = 0.9277, V2^2 = 0.0723

  Important amplitudes:
      occ i      occ j       vir a       vir b          v   
    ---------------------------------------------------------
     1 (B2) A               8 (A1) A                  0.6104
     1 (B2) A               7 (A1) A                 -0.2245
    ---------------------------------------------------------

  Density matrix analysis:
  ------------------------
  NOs
    Occupation of frontier NOs:
       0.9767   0.9811
    Number of electrons: 18.000000
    Number of unpaired electrons: n_u =  2.39098, n_u,nl =  2.03701
    NO participation ratio (PR_NO):  2.967418
  
  
  Mulliken Population Analysis
  Atom      Charge (e)              h+              e-           Del q
  --------------------------------------------------------------------
   1 C       -5.898748        0.432997       -4.982102       -4.549105
   2 C        4.397923        0.642382        3.644604        4.286986
   3 H        0.158823        0.092277       -0.002358        0.089919
   4 H        0.236350        0.069895       -0.010625        0.059270
   5 H        0.158823        0.092277       -0.002358        0.089919
   6 H        0.236350        0.069895       -0.010625        0.059270
   7 H       -0.289520        0.012921       -0.049181       -0.036259
  --------------------------------------------------------------------
  Sum:       -1.000000        1.412644       -1.412644        0.000000
  
  Multipole moment analysis of the density matrix
    Molecular charge:                      -1.000000
    Number of electrons:                   18.000000
      Center of electronic charge [Ang]: [ -0.000000,   0.000000,  -0.101139]
    Total nuclear charge:                  17.000000
      Center of nuclear charge [Ang]:    [ -0.000000,   0.000000,  -0.000000]
    Dipole moment [D]:                     8.744239
      Cartesian components [D]:          [  0.000000,  -0.000000,   8.744239]
    RMS size of the density [Ang]:         1.671580
      Cartesian components [Ang]:        [  0.731495,   0.596463,   1.379611]
  
  Exciton analysis of the difference density matrix
    <r_h> [Ang]:                  [  0.000000,   0.000000,   0.071706]
    <r_e> [Ang]:                  [ -0.000000,   0.000000,   0.570490]
    |<r_e - r_h>| [Ang]:            0.498784
    Hole size [Ang]:                1.819842
      Cartesian components [Ang]: [  0.828903,   0.933675,   1.324008]
    Electron size [Ang]:            2.703897
      Cartesian components [Ang]: [  1.420366,   1.393620,   1.830694]

  Transition density matrix analysis:
  -----------------------------------
  
  CT numbers (Mulliken)
    omega =     0.8976
    <Phe> =    -0.0146
  
  Exciton analysis of the transition density matrix
    Trans. dipole moment [D]:             1.118346
      Cartesian components [D]:         [ -0.000000,  -1.118346,   0.000000]
    <r_h> [Ang]:                        [  0.000000,  -0.000000,   0.267067]
    <r_e> [Ang]:                        [ -0.000000,   0.000000,   0.862868]
    |<r_e - r_h>| [Ang]:                  0.595801
    Hole size [Ang]:                      1.281895
      Cartesian components [Ang]:       [  0.522725,   0.886033,   0.764826]
    Electron size [Ang]:                  2.965777
      Cartesian components [Ang]:       [  1.613423,   1.594361,   1.910683]
    RMS electron-hole separation [Ang]:   3.273047
      Cartesian components [Ang]:       [  1.695037,   1.814864,   2.132124]
    Covariance(r_h, r_e) [Ang^2]:         0.040615
    Correlation coefficient:              0.010683
    Center-of-mass size [Ang]:            1.621752
      Cartesian components [Ang]:       [  0.848470,   0.916563,   1.034452]

  Decomposition into state-averaged NTOs
    H- 1 -> L+ 2:  0.6550 ( 85.8%)
    H- 1 -> L+ 1: -0.1380 (  3.8%)
                   omega =  89.8%
  ----------------------------------------------------------------------------


  Excited state 8 (singlet, B2)                                    [converged]
  ----------------------------------------------------------------------------
  Term symbol:  8 (1) B2                                    R^2 =  2.00070e-08

  Total energy:                                            -78.5062591898 a.u.
  Excitation energy:                                               8.997017 eV

  Osc. strength:                                                      0.000014
  Trans. dip. moment [a.u.]:           [   0.000000,    0.008069,    0.000000]
  <i|r^2|0> [a.u.]:                    [  -0.000000,   -0.000000,    0.000000]

  Dip. moment [a.u.]:                  [   0.000000,   -0.000000,    0.572327]
  Total dipole [Debye]:                                               1.454711
  <r^2> [a.u.]:                        [  42.626116,   32.761332,  110.163369]
  Total <r^2> [a.u.]:                                               185.550816

  V1^2 = 0.0453, V2^2 = 0.9547

  Important amplitudes:
      occ i      occ j       vir a       vir b          v   
    ---------------------------------------------------------
     6 (A1) A   1 (B2) B    8 (A1) A    8 (A1) B      0.1695
     6 (A1) A               5 (B2) A                  0.1438
    ---------------------------------------------------------

  Density matrix analysis:
  ------------------------
  NOs
    Occupation of frontier NOs:
       0.9693   0.9907
    Number of electrons: 18.000000
    Number of unpaired electrons: n_u =  3.66879, n_u,nl =  3.29328
    NO participation ratio (PR_NO):  5.266462
  
  
  Mulliken Population Analysis
  Atom      Charge (e)              h+              e-           Del q
  --------------------------------------------------------------------
   1 C       -3.530922        1.136326       -3.317605       -2.181279
   2 C        1.655474        0.190147        1.354391        1.544538
   3 H        0.116914        0.005162        0.042848        0.048010
   4 H        0.196575       -0.003483        0.022977        0.019494
   5 H        0.116914        0.005162        0.042848        0.048010
   6 H        0.196575       -0.003483        0.022977        0.019494
   7 H        0.248472        0.629998       -0.128265        0.501732
  --------------------------------------------------------------------
  Sum:       -1.000000        1.959830       -1.959830        0.000000
  
  Multipole moment analysis of the density matrix
    Molecular charge:                      -1.000000
    Number of electrons:                   18.000000
      Center of electronic charge [Ang]: [ -0.000000,   0.000000,  -0.016826]
    Total nuclear charge:                  17.000000
      Center of nuclear charge [Ang]:    [ -0.000000,   0.000000,  -0.000000]
    Dipole moment [D]:                     1.454711
      Cartesian components [D]:          [  0.000000,  -0.000000,   1.454711]
    RMS size of the density [Ang]:         1.698928
      Cartesian components [Ang]:        [  0.814334,   0.713914,   1.309024]
  
  Exciton analysis of the difference density matrix
    <r_h> [Ang]:                  [ -0.000000,   0.000000,  -1.325479]
    <r_e> [Ang]:                  [ -0.000000,   0.000000,  -0.191583]
    |<r_e - r_h>| [Ang]:            1.133896
    Hole size [Ang]:                2.090634
      Cartesian components [Ang]: [  0.709504,   0.865926,   1.765652]
    Electron size [Ang]:            3.155901
      Cartesian components [Ang]: [  1.624327,   1.713161,   2.094362]

  Transition density matrix analysis:
  -----------------------------------
  
  CT numbers (Mulliken)
    omega =     0.0446
    <Phe> =    -0.0007
  
  Exciton analysis of the transition density matrix
    Trans. dipole moment [D]:             0.010254
      Cartesian components [D]:         [  0.000000,   0.010254,   0.000000]
    <r_h> [Ang]:                        [ -0.000000,   0.000000,  -2.746460]
    <r_e> [Ang]:                        [  0.000000,   0.000000,   0.260355]
    |<r_e - r_h>| [Ang]:                  3.006815
    Hole size [Ang]:                      1.617464
      Cartesian components [Ang]:       [  0.871023,   0.881534,   1.039426]
    Electron size [Ang]:                  2.995606
      Cartesian components [Ang]:       [  1.348700,   2.300122,   1.365322]
    RMS electron-hole separation [Ang]:   4.526770
      Cartesian components [Ang]:       [  1.605474,   2.459485,   3.444566]
    Covariance(r_h, r_e) [Ang^2]:         0.069570
    Correlation coefficient:              0.014358
    Center-of-mass size [Ang]:            1.712380
      Cartesian components [Ang]:       [  0.802777,   1.233517,   0.875347]

  Decomposition into state-averaged NTOs
    H- 0 -> L+ 5:  0.1463 (  4.3%)
                   omega =   4.5%
  ----------------------------------------------------------------------------


  Excited state 9 (singlet, B2)                                    [converged]
  ----------------------------------------------------------------------------
  Term symbol:  9 (1) B2                                    R^2 =  3.50227e-08

  Total energy:                                            -78.4930740969 a.u.
  Excitation energy:                                               9.355802 eV

  Osc. strength:                                                      0.000242
  Trans. dip. moment [a.u.]:           [  -0.000000,   -0.032512,    0.000000]
  <i|r^2|0> [a.u.]:                    [   0.000000,    0.000000,    0.000000]

  Dip. moment [a.u.]:                  [   0.000000,   -0.000000,    4.148485]
  Total dipole [Debye]:                                              10.544399
  <r^2> [a.u.]:                        [  28.056318,   21.255541,  112.773673]
  Total <r^2> [a.u.]:                                               162.085533

  V1^2 = 0.8853, V2^2 = 0.1147

  Important amplitudes:
      occ i      occ j       vir a       vir b          v   
    ---------------------------------------------------------
     5 (A1) A               4 (B2) A                 -0.4705
     5 (A1) A               3 (B2) A                 -0.3349
    ---------------------------------------------------------

  Density matrix analysis:
  ------------------------
  NOs
    Occupation of frontier NOs:
       0.9750   1.0739
    Number of electrons: 18.000000
    Number of unpaired electrons: n_u =  2.56331, n_u,nl =  2.12177
    NO participation ratio (PR_NO):  3.561177
  
  
  Mulliken Population Analysis
  Atom      Charge (e)              h+              e-           Del q
  --------------------------------------------------------------------
   1 C       -1.538438        0.427767       -0.616562       -0.188795
   2 C        0.045439        0.438955       -0.504452       -0.065497
   3 H        0.124721        0.066156       -0.010338        0.055818
   4 H        0.225064        0.061024       -0.013041        0.047983
   5 H        0.124721        0.066156       -0.010338        0.055818
   6 H        0.225064        0.061024       -0.013041        0.047983
   7 H       -0.206570        0.065043       -0.018353        0.046690
  --------------------------------------------------------------------
  Sum:       -1.000000        1.186126       -1.186126        0.000000
  
  Multipole moment analysis of the density matrix
    Molecular charge:                      -1.000000
    Number of electrons:                   18.000000
      Center of electronic charge [Ang]: [ -0.000000,   0.000000,  -0.121960]
    Total nuclear charge:                  17.000000
      Center of nuclear charge [Ang]:    [ -0.000000,   0.000000,  -0.000000]
    Dipole moment [D]:                     10.544396
      Cartesian components [D]:          [  0.000000,  -0.000000,  10.544396]
    RMS size of the density [Ang]:         1.583260
      Cartesian components [Ang]:        [  0.660663,   0.575044,   1.318924]
  
  Exciton analysis of the difference density matrix
    <r_h> [Ang]:                  [  0.000000,   0.000000,  -0.166703]
    <r_e> [Ang]:                  [ -0.000000,   0.000000,   0.111363]
    |<r_e - r_h>| [Ang]:            0.278067
    Hole size [Ang]:                1.680608
      Cartesian components [Ang]: [  0.703266,   0.576020,   1.413528]
    Electron size [Ang]:            1.921547
      Cartesian components [Ang]: [  0.763263,   1.107182,   1.372560]

  Transition density matrix analysis:
  -----------------------------------
  
  CT numbers (Mulliken)
    omega =     0.8562
    <Phe> =    -0.0170
  
  Exciton analysis of the transition density matrix
    Trans. dipole moment [D]:             0.041318
      Cartesian components [D]:         [ -0.000000,  -0.041318,   0.000000]
    <r_h> [Ang]:                        [ -0.000000,   0.000000,   0.045092]
    <r_e> [Ang]:                        [ -0.000000,   0.000000,   0.230592]
    |<r_e - r_h>| [Ang]:                  0.185500
    Hole size [Ang]:                      1.315876
      Cartesian components [Ang]:       [  0.599179,   0.424826,   1.091804]
    Electron size [Ang]:                  1.818153
      Cartesian components [Ang]:       [  0.690816,   1.119568,   1.254998]
    RMS electron-hole separation [Ang]:   2.236330
      Cartesian components [Ang]:       [  0.914945,   1.195826,   1.653496]
    Covariance(r_h, r_e) [Ang^2]:         0.035222
    Correlation coefficient:              0.014722
    Center-of-mass size [Ang]:            1.130006
      Cartesian components [Ang]:       [  0.456990,   0.599545,   0.841795]

  Decomposition into state-averaged NTOs
    H- 2 -> L+ 0: -0.6448 ( 83.2%)
    H- 1 -> L+ 6: -0.0773 (  1.2%)
                   omega =  85.6%
  ----------------------------------------------------------------------------


  Excited state 10 (singlet, B2)                                    [converged]
  ----------------------------------------------------------------------------
  Term symbol:  10 (1) B2                                   R^2 =  7.75439e-06

  Total energy:                                            -78.4833922530 a.u.
  Excitation energy:                                               9.619258 eV

  Osc. strength:                                                      0.003951
  Trans. dip. moment [a.u.]:           [   0.000000,    0.129481,    0.000000]
  <i|r^2|0> [a.u.]:                    [  -0.000000,   -0.000000,    0.000000]

  Dip. moment [a.u.]:                  [   0.000000,   -0.000000,   -0.174608]
  Total dipole [Debye]:                                               0.443810
  <r^2> [a.u.]:                        [  34.380192,   30.235830,  106.196602]
  Total <r^2> [a.u.]:                                               170.812624

  V1^2 = 0.5164, V2^2 = 0.4836

  Important amplitudes:
      occ i      occ j       vir a       vir b          v   
    ---------------------------------------------------------
     6 (A1) A               5 (B2) A                  0.4630
     1 (B2) A               9 (A1) A                  0.1496
    ---------------------------------------------------------

  Density matrix analysis:
  ------------------------
  NOs
    Occupation of frontier NOs:
       0.5180   1.0315
    Number of electrons: 18.000000
    Number of unpaired electrons: n_u =  3.32302, n_u,nl =  2.91748
    NO participation ratio (PR_NO):  6.346183
  
  
  Mulliken Population Analysis
  Atom      Charge (e)              h+              e-           Del q
  --------------------------------------------------------------------
   1 C       -1.500927        1.106666       -1.257950       -0.151284
   2 C        0.056000       -0.007648       -0.047289       -0.054937
   3 H        0.056522        0.003827       -0.016208       -0.012381
   4 H        0.114221       -0.010662       -0.052198       -0.062860
   5 H        0.056522        0.003827       -0.016208       -0.012381
   6 H        0.114221       -0.010662       -0.052198       -0.062860
   7 H        0.103442        0.474515       -0.117812        0.356703
  --------------------------------------------------------------------
  Sum:       -1.000000        1.559863       -1.559863        0.000000
  
  Multipole moment analysis of the density matrix
    Molecular charge:                      -1.000000
    Number of electrons:                   18.000000
      Center of electronic charge [Ang]: [ -0.000000,   0.000000,   0.005133]
    Total nuclear charge:                  17.000000
      Center of nuclear charge [Ang]:    [ -0.000000,   0.000000,  -0.000000]
    Dipole moment [D]:                     0.443809
      Cartesian components [D]:          [  0.000000,  -0.000000,  -0.443809]
    RMS size of the density [Ang]:         1.630132
      Cartesian components [Ang]:        [  0.731339,   0.685845,   1.285336]
  
  Exciton analysis of the difference density matrix
    <r_h> [Ang]:                  [ -0.000000,   0.000000,  -1.694361]
    <r_e> [Ang]:                  [ -0.000000,   0.000000,  -0.016326]
    |<r_e - r_h>| [Ang]:            1.678035
    Hole size [Ang]:                2.156394
      Cartesian components [Ang]: [  0.835443,   0.915786,   1.764485]
    Electron size [Ang]:            3.120189
      Cartesian components [Ang]: [  1.378456,   1.769366,   2.169051]

  Transition density matrix analysis:
  -----------------------------------
  
  CT numbers (Mulliken)
    omega =     0.5076
    <Phe> =    -0.0016
  
  Exciton analysis of the transition density matrix
    Trans. dipole moment [D]:             0.164553
      Cartesian components [D]:         [  0.000000,   0.164553,   0.000000]
    <r_h> [Ang]:                        [ -0.000000,   0.000000,  -2.444121]
    <r_e> [Ang]:                        [ -0.000000,   0.000000,   0.093588]
    |<r_e - r_h>| [Ang]:                  2.537709
    Hole size [Ang]:                      1.824562
      Cartesian components [Ang]:       [  0.843073,   0.875072,   1.361067]
    Electron size [Ang]:                  2.894460
      Cartesian components [Ang]:       [  1.319651,   2.135666,   1.440607]
    RMS electron-hole separation [Ang]:   4.251416
      Cartesian components [Ang]:       [  1.565646,   2.304908,   3.211027]
    Covariance(r_h, r_e) [Ang^2]:         0.036177
    Correlation coefficient:              0.006850
    Center-of-mass size [Ang]:            1.716048
      Cartesian components [Ang]:       [  0.783144,   1.155535,   0.998121]

  Decomposition into state-averaged NTOs
    H- 0 -> L+ 5:  0.4726 ( 44.7%)
    H- 1 -> L+ 6:  0.1591 (  5.1%)
                   omega =  50.8%
  ----------------------------------------------------------------------------


--------------------------------------------------------------------------------
  Time of ADC calculation:  CPU 636.47 s  wall 159.07 s
================================================================================
 
 --------------------------------------------------------------
             Orbital Energies (a.u.) and Symmetries
 --------------------------------------------------------------
 
 Alpha MOs, Restricted
 -- Occupied --                  
-11.073 -11.068  -0.880  -0.617  -0.499  -0.403  -0.350  -0.216
  1 A1    2 A1    3 A1    4 A1    1 B1    5 A1    2 B1    1 B2                 
 -0.031
  6 A1                                                                         
 -- Virtual --                   
  0.179   0.202   0.210   0.252   0.260   0.263   0.332   0.344
  7 A1    3 B1    2 B2    3 B2    4 B1    8 A1    9 A1    4 B2                 
  0.370   0.407   0.468   0.479   0.507   0.508   0.520   0.550
 10 A1   11 A1    5 B1   12 A1   13 A1    6 B1    5 B2    7 B1                 
  0.601   0.621   0.694   0.776   0.997   1.006   1.092   1.128
 14 A1    6 B2    8 B1   15 A1   16 A1    9 B1   17 A1   18 A1                 
  1.159   1.185   1.245   1.246   1.275   1.313   1.343   1.368
 19 A1   10 B1   11 B1   20 A1    1 A2    7 B2   21 A1    8 B2                 
  1.449   1.456   1.508   1.634   1.770   1.834   1.875   1.892
  2 A2    9 B2   22 A1   12 B1   23 A1   13 B1   14 B1   10 B2                 
  2.006   2.037   2.065   2.111   2.179   2.247   2.268   2.309
 15 B1   11 B2   24 A1   12 B2    3 A2   25 A1   16 B1   26 A1                 
  2.350   2.534   2.575   2.641   2.730   2.749   3.021   3.023
 13 B2   27 A1    4 A2   28 A1   17 B1   29 A1   18 B1   30 A1                 
  3.456   3.514
 31 A1   19 B1                                                                 
 
 Beta MOs, Restricted
 -- Occupied --                  
-11.073 -11.068  -0.880  -0.617  -0.499  -0.403  -0.350  -0.216
  1 A1    2 A1    3 A1    4 A1    1 B1    5 A1    2 B1    1 B2                 
 -0.031
  6 A1                                                                         
 -- Virtual --                   
  0.179   0.202   0.210   0.252   0.260   0.263   0.332   0.344
  7 A1    3 B1    2 B2    3 B2    4 B1    8 A1    9 A1    4 B2                 
  0.370   0.407   0.468   0.479   0.507   0.508   0.520   0.550
 10 A1   11 A1    5 B1   12 A1   13 A1    6 B1    5 B2    7 B1                 
  0.601   0.621   0.694   0.776   0.997   1.006   1.092   1.128
 14 A1    6 B2    8 B1   15 A1   16 A1    9 B1   17 A1   18 A1                 
  1.159   1.185   1.245   1.246   1.275   1.313   1.343   1.368
 19 A1   10 B1   11 B1   20 A1    1 A2    7 B2   21 A1    8 B2                 
  1.449   1.456   1.508   1.634   1.770   1.834   1.875   1.892
  2 A2    9 B2   22 A1   12 B1   23 A1   13 B1   14 B1   10 B2                 
  2.006   2.037   2.065   2.111   2.179   2.247   2.268   2.309
 15 B1   11 B2   24 A1   12 B2    3 A2   25 A1   16 B1   26 A1                 
  2.350   2.534   2.575   2.641   2.730   2.749   3.021   3.023
 13 B2   27 A1    4 A2   28 A1   17 B1   29 A1   18 B1   30 A1                 
  3.456   3.514
 31 A1   19 B1                                                                 
 --------------------------------------------------------------
 
          Ground-State Mulliken Net Atomic Charges

     Atom                 Charge (a.u.)
  ----------------------------------------
      1 C                    -1.351664
      2 C                     0.168869
      3 H                     0.061492
      4 H                     0.174207
      5 H                     0.061492
      6 H                     0.174207
      7 H                    -0.288603
  ----------------------------------------
  Sum of atomic charges =    -1.000000

 -----------------------------------------------------------------
                    Cartesian Multipole Moments
 -----------------------------------------------------------------
    Charge (ESU x 10^10)
                -4.8032
    Dipole Moment (Debye)
         X       0.0000      Y      -0.0000      Z      12.1530
       Tot      12.1530
    Quadrupole Moments (Debye-Ang)
        XX     -19.1382     XY      -0.0000     YY     -23.4804
        XZ      -0.0000     YZ       0.0000     ZZ     -60.4104
    Octopole Moments (Debye-Ang^2)
       XXX       0.0000    XXY      -0.0000    XYY       0.0000
       YYY      -0.0000    XXZ      15.7049    XYZ      -0.0000
       YYZ      15.4688    XZZ       0.0000    YZZ      -0.0000
       ZZZ     152.5113
    Hexadecapole Moments (Debye-Ang^3)
      XXXX     -53.6617   XXXY      -0.0000   XXYY     -18.1986
      XYYY      -0.0000   YYYY     -50.1070   XXXZ      -0.0000
      XXYZ       0.0000   XYYZ      -0.0000   YYYZ       0.0000
      XXZZ     -77.8022   XYZZ      -0.0000   YYZZ     -81.1906
      XZZZ      -0.0000   YZZZ       0.0000   ZZZZ    -698.3151
 -----------------------------------------------------------------
 Total job time:  241.69s(wall), 682.93s(cpu) 
 Sun Mar 27 13:26:09 2022

        *************************************************************
        *                                                           *
        *  Thank you very much for using Q-Chem.  Have a nice day.  *
        *                                                           *
        *************************************************************


