/src/tsommerfeld/qchem/exe/qcprog.exe .input1.788889.14305.qcin.1 /src/jdavis/qchem.scratch/qchem14305/

                  Welcome to Q-Chem
     A Quantum Leap Into The Future Of Chemistry


 Q-Chem 5.4 (devel), Q-Chem, Inc., Pleasanton, CA (2021)

 E. Epifanovsky,  A. T. B. Gilbert,  Xintian Feng,  Joonho Lee,  Yuezhi Mao,  
 N. Mardirossian,  P. Pokhilko,  A. White,  M. Wormit,  M. P. Coons,  
 A. L. Dempwolff,  Zhengting Gan,  D. Hait,  P. R. Horn,  L. D. Jacobson,  
 I. Kaliman,  J. Kussmann,  A. W. Lange,  Ka Un Lao,  D. S. Levine,  Jie Liu,  
 S. C. McKenzie,  A. F. Morrison,  K. Nanda,  F. Plasser,  D. R. Rehn,  
 M. L. Vidal,  Zhi-Qiang You,  Ying Zhu,  B. Alam,  B. Albrecht,  
 A. Aldossary,  E. Alguire,  J. H. Andersen,  D. Barton,  K. Begam,  A. Behn,  
 Y. A. Bernard,  E. J. Berquist,  H. Burton,  A. Carreras,  K. Carter-Fenk,  
 R. Chakraborty,  A. D. Chien,  K. D. Closser,  V. Cofer-Shabica,  
 S. Dasgupta,  Jia Deng,  M. de Wergifosse,  M. Diedenhofen,  Hainam Do,  
 S. Ehlert,  Po-Tung Fang,  S. Fatehi,  Qingguo Feng,  T. Friedhoff,  
 J. Gayvert,  Qinghui Ge,  G. Gidofalvi,  M. Goldey,  J. Gomes,  
 C. Gonzalez-Espinoza,  S. Gulania,  A. Gunina,  M. W. D. Hanson-Heine,  
 P. H. P. Harbach,  A. W. Hauser,  M. F. Herbst,  M. Hernandez Vera,  
 M. Hodecker,  Z. C. Holden,  S. Houck,  Xunkun Huang,  Kerwin Hui,  
 B. C. Huynh,  M. Ivanov,  Hyunjun Ji,  Hanjie Jiang,  B. Kaduk,  S. Kaehler,  
 K. Khistyaev,  Jaehoon Kim,  P. Klunzinger,  Z. Koczor-Benda,  
 Joong Hoon Koh,  D. Kosenkov,  L. Koulias,  T. Kowalczyk,  C. M. Krauter,  
 K. Kue,  A. Kunitsa,  T. Kus,  A. Landau,  K. V. Lawler,  D. Lefrancois,  
 S. Lehtola,  Rain Li,  Yi-Pei Li,  Jiashu Liang,  M. Liebenthal,  
 Hung-Hsuan Lin,  You-Sheng Lin,  Fenglai Liu,  Kuan-Yu Liu,  
 M. Loipersberger,  A. Luenser,  A. Manjanath,  P. Manohar,  E. Mansoor,  
 S. F. Manzer,  Shan-Ping Mao,  A. V. Marenich,  T. Markovich,  S. Mason,  
 S. A. Maurer,  P. F. McLaughlin,  M. F. S. J. Menger,  J.-M. Mewes,  
 S. A. Mewes,  P. Morgante,  J. W. Mullinax,  K. J. Oosterbaan,  G. Paran,  
 Alexander C. Paul,  Suranjan K. Paul,  F. Pavosevic,  Zheng Pei,  S. Prager,  
 E. I. Proynov,  E. Ramos,  B. Rana,  A. E. Rask,  A. Rettig,  R. M. Richard,  
 F. Rob,  E. Rossomme,  T. Scheele,  M. Scheurer,  M. Schneider,  
 N. Sergueev,  S. M. Sharada,  W. Skomorowski,  D. W. Small,  C. J. Stein,  
 Yu-Chuan Su,  E. J. Sundstrom,  Zhen Tao,  J. Thirman,  T. Tsuchimochi,  
 N. M. Tubman,  S. P. Veccham,  O. Vydrov,  J. Wenzel,  J. Witte,  A. Yamada,  
 Kun Yao,  S. Yeganeh,  S. R. Yost,  A. Zech,  Igor Ying Zhang,  Xing Zhang,  
 Yu Zhang,  D. Zuev,  A. Aspuru-Guzik,  A. T. Bell,  N. A. Besley,  
 K. B. Bravaya,  B. R. Brooks,  D. Casanova,  Jeng-Da Chai,  S. Coriani,  
 C. J. Cramer,  A. E. DePrince, III,  R. A. DiStasio Jr.,  A. Dreuw,  
 B. D. Dunietz,  T. R. Furlani,  W. A. Goddard III,  S. Grimme,  
 S. Hammes-Schiffer,  T. Head-Gordon,  W. J. Hehre,  Chao-Ping Hsu,  
 T.-C. Jagau,  Yousung Jung,  A. Klamt,  Jing Kong,  D. S. Lambrecht,  
 WanZhen Liang,  N. J. Mayhall,  C. W. McCurdy,  J. B. Neaton,  
 C. Ochsenfeld,  J. A. Parkhill,  R. Peverati,  V. A. Rassolov,  Yihan Shao,  
 L. V. Slipchenko,  T. Stauch,  R. P. Steele,  J. E. Subotnik,  
 A. J. W. Thom,  A. Tkatchenko,  D. G. Truhlar,  T. Van Voorhis,  
 T. A. Wesolowski,  K. B. Whaley,  H. L. Woodcock III,  P. M. Zimmerman,  
 S. Faraji,  P. M. W. Gill,  M. Head-Gordon,  J. M. Herbert,  A. I. Krylov

 Additional authors for Version 5.4.1: 
 S. Kotaru,  Shaozhi Li,  Xiangyuan Li,  F. Matz,  A. Molle,  Haisheng Ren,  
 Yingli Su,  Hung-Yi Tsai,  C. Utku,  Fang Wang

 Contributors to earlier versions of Q-Chem not listed above: 
 R. D. Adamson,  B. Austin,  R. Baer,  J. Baker,  G. J. O. Beran,  
 K. Brandhorst,  S. T. Brown,  E. F. C. Byrd,  A. K. Chakraborty,  
 G. K. L. Chan,  Chun-Min Chang,  Yunqing Chen,  C.-L. Cheng,  
 Siu Hung Chien,  D. M. Chipman,  D. L. Crittenden,  H. Dachsel,  
 R. J. Doerksen,  A. D. Dutoi,  R. G. Edgar,  J. Fosso-Tande,  
 L. Fusti-Molnar,  D. Ghosh,  A. Ghysels,  A. Golubeva-Zadorozhnaya,  
 J. Gonthier,  M. S. Gordon,  S. R. Gwaltney,  G. Hawkins,  J. E. Herr,  
 A. Heyden,  S. Hirata,  E. G. Hohenstein,  G. Kedziora,  F. J. Keil,  
 C. Kelley,  Jihan Kim,  R. A. King,  R. Z. Khaliullin,  P. P. Korambath,  
 W. Kurlancheek,  A. Laurent,  A. M. Lee,  M. S. Lee,  S. V. Levchenko,  
 Ching Yeh Lin,  D. Liotard,  E. Livshits,  R. C. Lochan,  I. Lotan,  
 L. A. Martinez-Martinez,  P. E. Maslen,  N. Nair,  D. P. O'Neill,  
 D. Neuhauser,  E. Neuscamman,  C. M. Oana,  R. Olivares-Amaya,  R. Olson,  
 T. M. Perrine,  B. Peters,  P. A. Pieniazek,  A. Prociuk,  Y. M. Rhee,  
 J. Ritchie,  M. A. Rohrdanz,  E. Rosta,  N. J. Russ,  H. F. Schaefer III,  
 M. W. Schmidt,  N. E. Schultz,  S. Sharma,  N. Shenvi,  C. D. Sherrill,  
 A. C. Simmonett,  A. Sodt,  T. Stein,  D. Stuck,  K. S. Thanthiriwatte,  
 V. Vanovschi,  L. Vogt,  Tao Wang,  A. Warshel,  M. A. Watson,  
 C. F. Williams,  Q. Wu,  X. Xu,  Jun Yang,  W. Zhang,  Yan Zhao

 Please cite Q-Chem as follows:
 Y. Shao et al., Mol. Phys. 113, 184-215 (2015)
 DOI: 10.1080/00268976.2014.952696

 Q-Chem 5.4.1 for Intel X86 EM64T Linux

 Parts of Q-Chem use Armadillo 9.900.5 (Nocturnal Misbehaviour).
 http://arma.sourceforge.net/

 Q-Chem begins on Thu Feb 17 13:39:15 2022  

 Host: node01
0

     Scratch files written to /src/jdavis/qchem.scratch/qchem14305//
 Processing $rem in /src/tsommerfeld/qchem/config/preferences:
 Processing $rem in /home/jdavis/.qchemrc:

 Checking the input file for inconsistencies... 	...done.

--------------------------------------------------------------
User input:
--------------------------------------------------------------
$molecule
-1 1
C        -0.6645000000    0.0000000000   -0.2082049804
C         0.6645000000    0.0000000000   -0.2082049804
H        -1.1590800000    0.0000000000    0.7541440196
H         1.1590800000    0.0000000000    0.7541440196
H        -1.1590800000    0.0000000000   -1.1705529804
H         1.1590800000    0.0000000000   -1.1705529804
H         0.0000000000    0.0000000000    3.0139349415
$end

$rem
   METHOD adc(2)
   BASIS gen
   PURECART 11
   EE_STATES [0,10,0,0]
   scf_convergence 8
   ADC_DAVIDSON_MAXITER 120
   ADC_DAVIDSON_MAXSUBSPACE 200
   adc_nguess_singles 100
   THRESH 14
   S2THRESH 14
   adc_davidson_conv 5
   adc_davidson_thresh 14
   THREADS 10
   MEM_TOTAL 95000
   STATE_ANALYSIS TRUE
$end
$basis
C 1
S   9   1.00
      6.665000D+03           6.920000D-04
      1.000000D+03           5.329000D-03
      2.280000D+02           2.707700D-02
      6.471000D+01           1.017180D-01
      2.106000D+01           2.747400D-01
      7.495000D+00           4.485640D-01
      2.797000D+00           2.850740D-01
      5.215000D-01           1.520400D-02
      1.596000D-01          -3.191000D-03
S   9   1.00
      6.665000D+03          -1.460000D-04
      1.000000D+03          -1.154000D-03
      2.280000D+02          -5.725000D-03
      6.471000D+01          -2.331200D-02
      2.106000D+01          -6.395500D-02
      7.495000D+00          -1.499810D-01
      2.797000D+00          -1.272620D-01
      5.215000D-01           5.445290D-01
      1.596000D-01           5.804960D-01
S   1   1.00
      1.596000D-01           1.000000D+00
S   1   1.00
      0.0469000              1.0000000
P   4   1.00
      9.439000D+00           3.810900D-02
      2.002000D+00           2.094800D-01
      5.456000D-01           5.085570D-01
      1.517000D-01           4.688420D-01
P   1   1.00
      1.517000D-01           1.000000D+00
P   1   1.00
      0.0775356      1.0000000
P   1   1.00
      0.0387678      1.0000000
D   1   1.00
      5.500000D-01           1.0000000
****
C 2
S   9   1.00
      6.665000D+03           6.920000D-04
      1.000000D+03           5.329000D-03
      2.280000D+02           2.707700D-02
      6.471000D+01           1.017180D-01
      2.106000D+01           2.747400D-01
      7.495000D+00           4.485640D-01
      2.797000D+00           2.850740D-01
      5.215000D-01           1.520400D-02
      1.596000D-01          -3.191000D-03
S   9   1.00
      6.665000D+03          -1.460000D-04
      1.000000D+03          -1.154000D-03
      2.280000D+02          -5.725000D-03
      6.471000D+01          -2.331200D-02
      2.106000D+01          -6.395500D-02
      7.495000D+00          -1.499810D-01
      2.797000D+00          -1.272620D-01
      5.215000D-01           5.445290D-01
      1.596000D-01           5.804960D-01
S   1   1.00
      1.596000D-01           1.000000D+00
S   1   1.00
      0.0469000              1.0000000
P   4   1.00
      9.439000D+00           3.810900D-02
      2.002000D+00           2.094800D-01
      5.456000D-01           5.085570D-01
      1.517000D-01           4.688420D-01
P   1   1.00
      1.517000D-01           1.000000D+00
P   1   1.00
      0.0775356      1.0000000
P   1   1.00
      0.0387678      1.0000000
D   1   1.00
      5.500000D-01           1.0000000
****
H 3
cc-pVDZ
****
H 4
cc-pVDZ
****
H 5
cc-pVDZ
****
H 6
cc-pVDZ
****
H 7
aug-cc-pVDZ
****
$end
--------------------------------------------------------------
 ----------------------------------------------------------------
             Standard Nuclear Orientation (Angstroms)
    I     Atom           X                Y                Z
 ----------------------------------------------------------------
    1      C      -0.6645000000    -0.0000000000    -0.1895377601
    2      C       0.6645000000     0.0000000000    -0.1895377601
    3      H      -1.1590800000    -0.0000000000     0.7728112399
    4      H       1.1590800000     0.0000000000     0.7728112399
    5      H      -1.1590800000    -0.0000000000    -1.1518857601
    6      H       1.1590800000     0.0000000000    -1.1518857601
    7      H      -0.0000000000     0.0000000000     3.0326021618
 ----------------------------------------------------------------
 Molecular Point Group                 C2v   NOp =  4
 Largest Abelian Subgroup              C2v   NOp =  4
 Nuclear Repulsion Energy =          36.17984589 hartrees
 There are        9 alpha and        9 beta electrons
 Requested basis set is non-standard
 There are 33 shells and 67 basis functions
 Total memory of 95000 MB is distributed as follows: 
   MEM_STATIC is set to 192 MB
   QALLOC/CCMAN JOB total memory use is  94808 MB
 Warning: actual memory use might exceed 95000 MB

 Total QAlloc Memory Limit  95000 MB
 Mega-Array Size       188 MB
 MEM_STATIC part       192 MB

                       Distance Matrix (Angstroms)
             C (  1)   C (  2)   H (  3)   H (  4)   H (  5)   H (  6)
   C (  2)  1.329000
   H (  3)  1.082000  2.061931
   H (  4)  2.061931  1.082000  2.318160
   H (  5)  1.082000  2.061931  1.924697  3.013026
   H (  6)  2.061931  1.082000  3.013026  1.924697  2.318160
   H (  7)  3.289946  3.289946  2.539709  2.539709  4.342051  4.342051

 
 A cutoff of  1.0D-14 yielded    561 shell pairs
 There are      2337 function pairs (      2484 Cartesian)
 Smallest overlap matrix eigenvalue = 2.45E-04

 Scale SEOQF with 1.000000e-01/1.000000e-01/1.000000e-01

 Standard Electronic Orientation quadrupole field applied
 Nucleus-field energy     =    -0.0000000011 hartrees
 ================ Generating on-the-fly SAD Guess ================
Attempting to make child job directory: /src/jdavis/qchem.scratch/qchem14305//Frg1/
Attempting to make child job directory: /src/jdavis/qchem.scratch/qchem14305//Frg2/
Creating input file /src/jdavis/qchem.scratch/qchem14305/Frg1.input
using default PutDataFrgm: nothing
calling putenv with: QCSCRATCH=/src/jdavis/qchem.scratch/qchem14305/ 
Spawning Job For Fragment 0
Done Job For Fragment 0
calling putenv with: QCSCRATCH=/src/jdavis/qchem.scratch 
calling putenv with: QCTHREADS=1 
Creating input file /src/jdavis/qchem.scratch/qchem14305/Frg2.input
using default PutDataFrgm: nothing
calling putenv with: QCSCRATCH=/src/jdavis/qchem.scratch/qchem14305/ 
Spawning Job For Fragment 1
Done Job For Fragment 1
calling putenv with: QCSCRATCH=/src/jdavis/qchem.scratch 
calling putenv with: QCTHREADS=1 
 Time for running child jobs:  CPU 1.77 s  wall 53.16 s
 ============= Method Specific SAD Guess Constructed =============
 Guess from on-the-fly superposition of atomic densities
 Warning: Energy on first SCF cycle will be non-variational
 A restricted Hartree-Fock SCF calculation will be
 performed using Pulay DIIS extrapolation
 SCF converges when DIIS error is below 1.0E-08
 using 10 threads for integral computing
 -------------------------------------------------------
 OpenMP Integral computing Module                
 Release: version 1.0, May 2013, Q-Chem Inc. Pittsburgh 
 -------------------------------------------------------
 ---------------------------------------
  Cycle       Energy         DIIS Error
 ---------------------------------------
    1     -78.8088560141      7.36E-02
    2     -78.4598840014      6.89E-03
    3     -78.5073021966      1.66E-03
    4     -78.5098808195      5.36E-04
    5     -78.5101698685      1.15E-04
    6     -78.5101933423      2.59E-05
    7     -78.5101953061      7.29E-06
    8     -78.5101954997      9.91E-07
    9     -78.5101955043      2.39E-07
   10     -78.5101955046      4.96E-08
   11     -78.5101955047      1.05E-08
   12     -78.5101955047      1.46E-09 Convergence criterion met
 ---------------------------------------
 SCF time:  CPU 10.53 s  wall 1.06 s
 SCF   energy in the final basis set = -78.51019550
 Total energy in the final basis set = -78.51019550
================================================================================
|                                                                              |
|                                 A D C  M A N                                 |
|                                                                              |
 ------------------------------------------------------------------------------ 
|                                                                              |
| Components:                                                                  |
|                                                                              |
| - libvmm - 1.3-trunk                                                         |
|   Authors:                                                                   |
|   Evgeny Epifanovsky, Ilya Kaliman                                           |
|                                                                              |
| - libtensor - 2.5-trunk                                                      |
|   Authors:                                                                   |
|   Evgeny Epifanovsky, Michael Wormit, Dmitry Zuev, Sam Manzer,               |
|   Ilya Kaliman                                                               |
|                                                                              |
| - libwfa - 1.1-trunk                                                         |
|   Authors:                                                                   |
|   Felix Plasser, Stefanie Mewes (Baeppler), Benjamin Thomitzni,              |
|   Michael Wormit, Feng Chen, Anna I. Krylov, Pavel Pokhilko                  |
|                                                                              |
| - libadc - 1.1-trunk                                                         |
|   Authors:                                                                   |
|   Michael Wormit, Adrian L. Dempwolff, Philipp H. P. Harbach,                |
|   Caroline Krauter, Dirk Rehn, Matthias Schneider, Jan Wenzel                |
|                                                                              |
| - adcman - 2.6-trunk                                                         |
|   Authors:                                                                   |
|   Michael Wormit, Adrian L. Dempwolff, Philipp H. P. Harbach,                |
|   Caroline Krauter, Daniel Lefrancois, Jan-Michael Mewes, Dirk Rehn,         |
|   Matthias Schneider, Jan Wenzel, Andreas Dreuw                              |
|                                                                              |
| Authors of earlier versions of ADCMAN:                                       |
| Andreas Dreuw, Jan Hendrik Starcke, Dirk Rehn, Michael Wormit                |
|                                                                              |
================================================================================

 
 Alpha MOs, Restricted
 -- Occupied --                  
-11.074 -11.072  -0.879  -0.622  -0.496  -0.407  -0.350  -0.216
  1 A1    1 B1    2 A1    2 B1    3 A1    4 A1    3 B1    1 B2                 
 -0.024
  5 A1                                                                         
 -- Virtual --                   
  0.173   0.191   0.211   0.215   0.219   0.237   0.303   0.322
  4 B1    6 A1    2 B2    1 A2    7 A1    5 B1    8 A1    2 A2                 
  0.339   0.422   0.455   0.464   0.485   0.486   0.489   0.524
  6 B1    9 A1    7 B1   10 A1   11 A1    3 B2    8 B1   12 A1                 
  0.527   0.568   0.705   0.767   0.976   1.009   1.050   1.092
  9 B1    3 A2   10 B1   11 B1   13 A1   14 A1   15 A1   12 B1                 
  1.116   1.187   1.226   1.250   1.255   1.278   1.286   1.298
 16 A1   13 B1   17 A1   18 A1    4 B2    5 B2   14 B1    4 A2                 
  1.434   1.448   1.450   1.605   1.783   1.827   1.897   1.903
 15 B1    5 A2    6 B2   16 B1   19 A1   17 B1   20 A1    7 B2                 
  1.937   2.007   2.035   2.104   2.124   2.184   2.230   2.262
 18 B1   21 A1    6 A2    8 B2   19 B1    9 B2   22 A1   23 A1                 
  2.341   2.490   2.576   2.650   2.731   2.755   2.993   3.019
  7 A2   20 B1    8 A2   24 A1   21 B1   22 B1   25 A1   26 A1                 
  3.424   3.507
 23 B1   24 B1                                                                 
 
 Beta MOs, Restricted
 -- Occupied --                  
-11.074 -11.072  -0.879  -0.622  -0.496  -0.407  -0.350  -0.216
  1 A1    1 B1    2 A1    2 B1    3 A1    4 A1    3 B1    1 B2                 
 -0.024
  5 A1                                                                         
 -- Virtual --                   
  0.173   0.191   0.211   0.215   0.219   0.237   0.303   0.322
  4 B1    6 A1    2 B2    1 A2    7 A1    5 B1    8 A1    2 A2                 
  0.339   0.422   0.455   0.464   0.485   0.486   0.489   0.524
  6 B1    9 A1    7 B1   10 A1   11 A1    3 B2    8 B1   12 A1                 
  0.527   0.568   0.705   0.767   0.976   1.009   1.050   1.092
  9 B1    3 A2   10 B1   11 B1   13 A1   14 A1   15 A1   12 B1                 
  1.116   1.187   1.226   1.250   1.255   1.278   1.286   1.298
 16 A1   13 B1   17 A1   18 A1    4 B2    5 B2   14 B1    4 A2                 
  1.434   1.448   1.450   1.605   1.783   1.827   1.897   1.903
 15 B1    5 A2    6 B2   16 B1   19 A1   17 B1   20 A1    7 B2                 
  1.937   2.007   2.035   2.104   2.124   2.184   2.230   2.262
 18 B1   21 A1    6 A2    8 B2   19 B1    9 B2   22 A1   23 A1                 
  2.341   2.490   2.576   2.650   2.731   2.755   2.993   3.019
  7 A2   20 B1    8 A2   24 A1   21 B1   22 B1   25 A1   26 A1                 
  3.424   3.507
 23 B1   24 B1                                                                 

--------------------------------------------------------------------------------
                                   HF Summary                                   
--------------------------------------------------------------------------------
  Energy:                                                  -78.5101955047 a.u.
  Dip. moment [a.u.]:                  [   0.000000,    0.000000,   -4.670875]
  Total dipole [Debye]:                                              11.872182
  <r^2> [a.u.]:                        [  52.346235,   16.374960,   90.063227]
  Total <r^2> [a.u.]:                                               158.784422
--------------------------------------------------------------------------------

--------------------------------------------------------------------------------
                                 MP(2) Summary                                  
--------------------------------------------------------------------------------
  MP energy contribution:                                   -0.3049061349 a.u.
  Total energy:                                            -78.8151016396 a.u.
  Dip. moment [a.u.]:                  [  -0.000000,   -0.000000,   -4.548573]
  Total dipole [Debye]:                                              11.561322
  <r^2> [a.u.]:                        [  52.680495,   16.361931,   89.479809]
  Total <r^2> [a.u.]:                                               158.522236

  Density matrix analysis:
  ------------------------
  NOs
    Occupation of frontier NOs:
       0.0448   1.9362
    Number of electrons: 18.000000
    Number of unpaired electrons: n_u =  0.45886, n_u,nl =  0.05012
    NO participation ratio (PR_NO): 16.126660
  
  
  Mulliken Population Analysis
  Atom      Charge (e)              h+              e-           Del q
  --------------------------------------------------------------------
   1 C       -0.393188        0.087505       -0.113240       -0.025735
   2 C       -0.393188        0.087505       -0.113240       -0.025735
   3 H        0.172065        0.016923       -0.017292       -0.000369
   4 H        0.172065        0.016923       -0.017292       -0.000369
   5 H        0.045321        0.019393       -0.011537        0.007856
   6 H        0.045321        0.019393       -0.011537        0.007856
   7 H       -0.648397        0.051365       -0.014870        0.036495
  --------------------------------------------------------------------
  Sum:       -1.000000        0.299008       -0.299008       -0.000000
  
  Multipole moment analysis of the density matrix
    Molecular charge:                      -1.000000
    Number of electrons:                   18.000000
      Center of electronic charge [Ang]: [  0.000000,   0.000000,   0.133722]
    Total nuclear charge:                  17.000000
      Center of nuclear charge [Ang]:    [ -0.000000,   0.000000,  -0.000000]
    Dipole moment [D]:                     11.561318
      Cartesian components [D]:          [ -0.000000,  -0.000000, -11.561318]
    RMS size of the density [Ang]:         1.564695
      Cartesian components [Ang]:        [  0.905294,   0.504524,   1.172249]
  
  Exciton analysis of the difference density matrix
    <r_h> [Ang]:                  [  0.000000,  -0.000000,   0.288286]
    <r_e> [Ang]:                  [  0.000000,   0.000000,   0.071839]
    |<r_e - r_h>| [Ang]:            0.216448
    Hole size [Ang]:                1.878576
      Cartesian components [Ang]: [  0.961160,   0.762004,   1.422873]
    Electron size [Ang]:            1.833426
      Cartesian components [Ang]: [  1.112147,   0.753955,   1.247449]
--------------------------------------------------------------------------------
Less singles guess vectors found than requested: 85 (found), 100 (requested).
Adjusting number of doubles guess vectors to 15.
  Starting Davidson for singlet states of irrep A2 ... 
--------------------------------------------------------------------------------
   It NVec Conv  Avg. Norm  Max. Norm  Conv. states           Remark
--------------------------------------------------------------------------------
       100    0  9.792e-02  4.573e-01  0.1271 n n n n n n n n Guess.
    1  110    0  5.361e-03  2.758e-02  0.0905 n n n n n n n n 
    2  120    0  2.487e-03  2.404e-02  0.0904 n n n n n n n n 
    3  130    0  4.735e-04  4.690e-03  0.0904 n n n n n n n n 
    4  140    9  1.750e-05  1.741e-04  0.0904 y y y y y y y y 
    5  150   10  8.691e-07  8.675e-06  0.0904 y y y y y y y y Converged.
--------------------------------------------------------------------------------
  Davidson Summary: 
 ------------------------------------------------------------
  State  0: excitation energy =   0.0904 a.u.   (converged)
  State  1: excitation energy =   0.1575 a.u.   (converged)
  State  2: excitation energy =   0.2451 a.u.   (converged)
  State  3: excitation energy =   0.3127 a.u.   (converged)
  State  4: excitation energy =   0.3525 a.u.   (converged)
  State  5: excitation energy =   0.3704 a.u.   (converged)
  State  6: excitation energy =   0.3819 a.u.   (converged)
  State  7: excitation energy =   0.4011 a.u.   (converged)
  State  8: excitation energy =   0.4313 a.u.   (converged)
  State  9: excitation energy =   0.4455 a.u.   (converged)
 ------------------------------------------------------------


--------------------------------------------------------------------------------
                   State-averaged natural transition orbitals
--------------------------------------------------------------------------------
--------------------------------------------------------------------------------

--------------------------------------------------------------------------------
                             Excited State Summary
--------------------------------------------------------------------------------
--------------------------------------------------------------------------------

  Excited state 1 (singlet, A2)                                    [converged]
  ----------------------------------------------------------------------------
  Term symbol:  1 (1) A2                                    R^2 =  4.36285e-09

  Total energy:                                            -78.7247229682 a.u.
  Excitation energy:                                               2.459329 eV

  Osc. strength:                                                      0.000000
  Trans. dip. moment [a.u.]:           [   0.000000,   -0.000000,   -0.000000]
  <i|r^2|0> [a.u.]:                    [  -0.000000,   -0.000000,    0.000000]

  Dip. moment [a.u.]:                  [  -0.000000,    0.000000,    0.595067]
  Total dipole [Debye]:                                               1.512510
  <r^2> [a.u.]:                        [  65.349744,   28.123937,   63.780243]
  Total <r^2> [a.u.]:                                               157.253924

  V1^2 = 0.9296, V2^2 = 0.0704

  Important amplitudes:
      occ i      occ j       vir a       vir b          v   
    ---------------------------------------------------------
     5 (A1) A               1 (A2) A                  0.6220
     5 (A1) A               2 (A2) A                  0.2759
    ---------------------------------------------------------

  Density matrix analysis:
  ------------------------
  NOs
    Occupation of frontier NOs:
       0.9913   0.9931
    Number of electrons: 18.000000
    Number of unpaired electrons: n_u =  2.41480, n_u,nl =  2.04462
    NO participation ratio (PR_NO):  2.944170
  
  
  Mulliken Population Analysis
  Atom      Charge (e)              h+              e-           Del q
  --------------------------------------------------------------------
   1 C       -0.679251        0.255366       -0.541429       -0.286063
   2 C       -0.679251        0.255366       -0.541429       -0.286063
   3 H        0.114574        0.019343       -0.076834       -0.057491
   4 H        0.114574        0.019343       -0.076834       -0.057491
   5 H        0.050813        0.010230       -0.004738        0.005492
   6 H        0.050813        0.010230       -0.004738        0.005492
   7 H        0.027728        0.709201       -0.033077        0.676125
  --------------------------------------------------------------------
  Sum:       -1.000000        1.279080       -1.279080       -0.000000
  
  Multipole moment analysis of the density matrix
    Molecular charge:                      -1.000000
    Number of electrons:                   18.000000
      Center of electronic charge [Ang]: [  0.000000,  -0.000000,  -0.017494]
    Total nuclear charge:                  17.000000
      Center of nuclear charge [Ang]:    [ -0.000000,   0.000000,  -0.000000]
    Dipole moment [D]:                     1.512510
      Cartesian components [D]:          [ -0.000000,   0.000000,   1.512510]
    RMS size of the density [Ang]:         1.564006
      Cartesian components [Ang]:        [  1.008293,   0.661459,   0.995958]
  
  Exciton analysis of the difference density matrix
    <r_h> [Ang]:                  [  0.000000,  -0.000000,   2.142164]
    <r_e> [Ang]:                  [  0.000000,  -0.000000,   0.014152]
    |<r_e - r_h>| [Ang]:            2.128012
    Hole size [Ang]:                2.154675
      Cartesian components [Ang]: [  0.995179,   0.920941,   1.674548]
    Electron size [Ang]:            2.992260
      Cartesian components [Ang]: [  1.940117,   1.850185,   1.329053]

  Transition density matrix analysis:
  -----------------------------------
  
  CT numbers (Mulliken)
    omega =     0.9119
    <Phe> =     0.0006
  
  Exciton analysis of the transition density matrix
    Trans. dipole moment [D]:             0.000000
      Cartesian components [D]:         [  0.000000,  -0.000000,  -0.000000]
    <r_h> [Ang]:                        [  0.000000,  -0.000000,   2.817023]
    <r_e> [Ang]:                        [  0.000000,  -0.000000,  -0.188753]
    |<r_e - r_h>| [Ang]:                  3.005776
    Hole size [Ang]:                      1.536864
      Cartesian components [Ang]:       [  0.797618,   0.781483,   1.055955]
    Electron size [Ang]:                  3.130446
      Cartesian components [Ang]:       [  2.087175,   2.018503,   1.170059]
    RMS electron-hole separation [Ang]:   4.601927
      Cartesian components [Ang]:       [  2.230715,   2.164058,   3.393891]
    Covariance(r_h, r_e) [Ang^2]:         0.009297
    Correlation coefficient:              0.001933
    Center-of-mass size [Ang]:            1.745010
      Cartesian components [Ang]:       [  1.119028,   1.082473,   0.788091]

  Decomposition into state-averaged NTOs
    H- 1 -> L+ 0:  0.5998 ( 72.0%)
    H- 1 -> L+ 1:  0.2938 ( 17.3%)
    H- 1 -> L+ 6: -0.0986 (  1.9%)
                   omega =  91.2%
  ----------------------------------------------------------------------------


  Excited state 2 (singlet, A2)                                    [converged]
  ----------------------------------------------------------------------------
  Term symbol:  2 (1) A2                                    R^2 =  8.12814e-09

  Total energy:                                            -78.6575692861 a.u.
  Excitation energy:                                               4.286673 eV

  Osc. strength:                                                      0.000000
  Trans. dip. moment [a.u.]:           [  -0.000000,   -0.000000,    0.000000]
  <i|r^2|0> [a.u.]:                    [   0.000000,    0.000000,   -0.000000]

  Dip. moment [a.u.]:                  [  -0.000000,   -0.000000,    0.610602]
  Total dipole [Debye]:                                               1.551995
  <r^2> [a.u.]:                        [  67.605504,   30.354952,   64.660959]
  Total <r^2> [a.u.]:                                               162.621415

  V1^2 = 0.9231, V2^2 = 0.0769

  Important amplitudes:
      occ i      occ j       vir a       vir b          v   
    ---------------------------------------------------------
     5 (A1) A               2 (A2) A                 -0.6075
     5 (A1) A               1 (A2) A                  0.2849
    ---------------------------------------------------------

  Density matrix analysis:
  ------------------------
  NOs
    Occupation of frontier NOs:
       0.9891   0.9904
    Number of electrons: 18.000000
    Number of unpaired electrons: n_u =  2.42337, n_u,nl =  2.04679
    NO participation ratio (PR_NO):  2.978889
  
  
  Mulliken Population Analysis
  Atom      Charge (e)              h+              e-           Del q
  --------------------------------------------------------------------
   1 C       -0.651384        0.272471       -0.530667       -0.258196
   2 C       -0.651384        0.272471       -0.530667       -0.258196
   3 H        0.101296        0.018345       -0.089113       -0.070768
   4 H        0.101296        0.018345       -0.089113       -0.070768
   5 H        0.034214        0.007168       -0.018275       -0.011107
   6 H        0.034214        0.007168       -0.018275       -0.011107
   7 H        0.031746        0.711567       -0.031425        0.680142
  --------------------------------------------------------------------
  Sum:       -1.000000        1.307535       -1.307535       -0.000000
  
  Multipole moment analysis of the density matrix
    Molecular charge:                      -1.000000
    Number of electrons:                   18.000000
      Center of electronic charge [Ang]: [  0.000000,   0.000000,  -0.017951]
    Total nuclear charge:                  17.000000
      Center of nuclear charge [Ang]:    [ -0.000000,   0.000000,  -0.000000]
    Dipole moment [D]:                     1.551995
      Cartesian components [D]:          [ -0.000000,  -0.000000,   1.551995]
    RMS size of the density [Ang]:         1.590472
      Cartesian components [Ang]:        [  1.025548,   0.687194,   1.002805]
  
  Exciton analysis of the difference density matrix
    <r_h> [Ang]:                  [  0.000000,   0.000000,   2.094384]
    <r_e> [Ang]:                  [  0.000000,   0.000000,   0.006395]
    |<r_e - r_h>| [Ang]:            2.087988
    Hole size [Ang]:                2.142717
      Cartesian components [Ang]: [  0.979931,   0.894306,   1.682613]
    Electron size [Ang]:            3.139353
      Cartesian components [Ang]: [  2.038794,   1.948487,   1.379222]

  Transition density matrix analysis:
  -----------------------------------
  
  CT numbers (Mulliken)
    omega =     0.9043
    <Phe> =     0.0000
  
  Exciton analysis of the transition density matrix
    Trans. dipole moment [D]:             0.000000
      Cartesian components [D]:         [ -0.000000,  -0.000000,   0.000000]
    <r_h> [Ang]:                        [  0.000000,  -0.000000,   2.816153]
    <r_e> [Ang]:                        [  0.000000,   0.000000,  -0.188640]
    |<r_e - r_h>| [Ang]:                  3.004793
    Hole size [Ang]:                      1.537328
      Cartesian components [Ang]:       [  0.797279,   0.781110,   1.057163]
    Electron size [Ang]:                  3.359133
      Cartesian components [Ang]:       [  2.228053,   2.174772,   1.260922]
    RMS electron-hole separation [Ang]:   4.760442
      Cartesian components [Ang]:       [  2.364127,   2.310182,   3.425751]
    Covariance(r_h, r_e) [Ang^2]:         0.007066
    Correlation coefficient:              0.001368
    Center-of-mass size [Ang]:            1.848059
      Cartesian components [Ang]:       [  1.184340,   1.155703,   0.822807]

  Decomposition into state-averaged NTOs
    H- 1 -> L+ 1:  0.5991 ( 71.8%)
    H- 1 -> L+ 0: -0.2922 ( 17.1%)
    H- 1 -> L+ 6: -0.0874 (  1.5%)
                   omega =  90.4%
  ----------------------------------------------------------------------------


  Excited state 3 (singlet, A2)                                    [converged]
  ----------------------------------------------------------------------------
  Term symbol:  3 (1) A2                                    R^2 =  1.26063e-08

  Total energy:                                            -78.5699910277 a.u.
  Excitation energy:                                               6.669799 eV

  Osc. strength:                                                      0.000000
  Trans. dip. moment [a.u.]:           [  -0.000000,    0.000000,   -0.000000]
  <i|r^2|0> [a.u.]:                    [  -0.000000,   -0.000000,   -0.000000]

  Dip. moment [a.u.]:                  [   0.000000,    0.000000,   -2.803320]
  Total dipole [Debye]:                                               7.125329
  <r^2> [a.u.]:                        [  85.365843,   21.603114,   97.984630]
  Total <r^2> [a.u.]:                                               204.953587

  V1^2 = 0.9431, V2^2 = 0.0569

  Important amplitudes:
      occ i      occ j       vir a       vir b          v   
    ---------------------------------------------------------
     1 (B2) A               4 (B1) A                  0.6717
     1 (B2) A               6 (B1) A                 -0.1167
    ---------------------------------------------------------

  Density matrix analysis:
  ------------------------
  NOs
    Occupation of frontier NOs:
       0.9823   0.9936
    Number of electrons: 18.000000
    Number of unpaired electrons: n_u =  2.34345, n_u,nl =  2.02840
    NO participation ratio (PR_NO):  2.802520
  
  
  Mulliken Population Analysis
  Atom      Charge (e)              h+              e-           Del q
  --------------------------------------------------------------------
   1 C       -0.511615        0.545304       -0.663732       -0.118428
   2 C       -0.511615        0.545304       -0.663732       -0.118428
   3 H        0.235472        0.071263       -0.007855        0.063407
   4 H        0.235472        0.071263       -0.007855        0.063407
   5 H        0.094134        0.115838       -0.067025        0.048813
   6 H        0.094134        0.115838       -0.067025        0.048813
   7 H       -0.635982        0.035367       -0.022952        0.012415
  --------------------------------------------------------------------
  Sum:       -1.000000        1.500176       -1.500176        0.000000
  
  Multipole moment analysis of the density matrix
    Molecular charge:                      -1.000000
    Number of electrons:                   18.000000
      Center of electronic charge [Ang]: [ -0.000000,  -0.000000,   0.082414]
    Total nuclear charge:                  17.000000
      Center of nuclear charge [Ang]:    [ -0.000000,   0.000000,  -0.000000]
    Dipole moment [D]:                     7.125327
      Cartesian components [D]:          [  0.000000,   0.000000,  -7.125327]
    RMS size of the density [Ang]:         1.783732
      Cartesian components [Ang]:        [  1.152410,   0.579726,   1.231896]
  
  Exciton analysis of the difference density matrix
    <r_h> [Ang]:                  [ -0.000000,   0.000000,  -0.145361]
    <r_e> [Ang]:                  [ -0.000000,  -0.000000,  -0.760987]
    |<r_e - r_h>| [Ang]:            0.615626
    Hole size [Ang]:                1.758163
      Cartesian components [Ang]: [  1.081094,   0.898294,   1.056144]
    Electron size [Ang]:            3.346672
      Cartesian components [Ang]: [  2.696281,   1.336141,   1.464585]

  Transition density matrix analysis:
  -----------------------------------
  
  CT numbers (Mulliken)
    omega =     0.9124
    <Phe> =    -0.0024
  
  Exciton analysis of the transition density matrix
    Trans. dipole moment [D]:             0.000000
      Cartesian components [D]:         [ -0.000000,   0.000000,  -0.000000]
    <r_h> [Ang]:                        [ -0.000000,   0.000000,  -0.196567]
    <r_e> [Ang]:                        [ -0.000000,  -0.000000,  -1.135203]
    |<r_e - r_h>| [Ang]:                  0.938636
    Hole size [Ang]:                      1.276147
      Cartesian components [Ang]:       [  0.763788,   0.880432,   0.519633]
    Electron size [Ang]:                  3.883944
      Cartesian components [Ang]:       [  3.220677,   1.573062,   1.495907]
    RMS electron-hole separation [Ang]:   4.186879
      Cartesian components [Ang]:       [  3.303581,   1.796958,   1.840448]
    Covariance(r_h, r_e) [Ang^2]:         0.032327
    Correlation coefficient:              0.006522
    Center-of-mass size [Ang]:            2.048061
      Cartesian components [Ang]:       [  1.658208,   0.904200,   0.792039]

  Decomposition into state-averaged NTOs
    H- 0 -> L+ 5:  0.5012 ( 50.2%)
    H- 0 -> L+ 3: -0.3483 ( 24.3%)
    H- 0 -> L+ 4:  0.2889 ( 16.7%)
                   omega =  91.2%
  ----------------------------------------------------------------------------


  Excited state 4 (singlet, A2)                                    [converged]
  ----------------------------------------------------------------------------
  Term symbol:  4 (1) A2                                    R^2 =  2.10717e-08

  Total energy:                                            -78.5024248332 a.u.
  Excitation energy:                                               8.508369 eV

  Osc. strength:                                                      0.000000
  Trans. dip. moment [a.u.]:           [  -0.000000,    0.000000,   -0.000000]
  <i|r^2|0> [a.u.]:                    [   0.000000,    0.000000,    0.000000]

  Dip. moment [a.u.]:                  [   0.000000,   -0.000000,   -5.485676]
  Total dipole [Debye]:                                              13.943200
  <r^2> [a.u.]:                        [  77.583579,   20.772569,  107.337728]
  Total <r^2> [a.u.]:                                               205.693876

  V1^2 = 0.9431, V2^2 = 0.0569

  Important amplitudes:
      occ i      occ j       vir a       vir b          v   
    ---------------------------------------------------------
     1 (B2) A               5 (B1) A                 -0.6776
     1 (B2) A               8 (B1) A                 -0.0863
    ---------------------------------------------------------

  Density matrix analysis:
  ------------------------
  NOs
    Occupation of frontier NOs:
       0.9831   0.9957
    Number of electrons: 18.000000
    Number of unpaired electrons: n_u =  2.34070, n_u,nl =  2.02772
    NO participation ratio (PR_NO):  2.787921
  
  
  Mulliken Population Analysis
  Atom      Charge (e)              h+              e-           Del q
  --------------------------------------------------------------------
   1 C       -0.482033        0.538313       -0.627158       -0.088845
   2 C       -0.482033        0.538313       -0.627158       -0.088845
   3 H        0.190499        0.084230       -0.065796        0.018434
   4 H        0.190499        0.084230       -0.065796        0.018434
   5 H        0.094138        0.102303       -0.053486        0.048817
   6 H        0.094138        0.102303       -0.053486        0.048817
   7 H       -0.605208        0.052649       -0.009461        0.043188
  --------------------------------------------------------------------
  Sum:       -1.000000        1.502341       -1.502341        0.000000
  
  Multipole moment analysis of the density matrix
    Molecular charge:                      -1.000000
    Number of electrons:                   18.000000
      Center of electronic charge [Ang]: [ -0.000000,   0.000000,   0.161272]
    Total nuclear charge:                  17.000000
      Center of nuclear charge [Ang]:    [ -0.000000,   0.000000,  -0.000000]
    Dipole moment [D]:                     13.943196
      Cartesian components [D]:          [  0.000000,  -0.000000, -13.943196]
    RMS size of the density [Ang]:         1.781572
      Cartesian components [Ang]:        [  1.098626,   0.568473,   1.282131]
  
  Exciton analysis of the difference density matrix
    <r_h> [Ang]:                  [ -0.000000,   0.000000,  -0.079216]
    <r_e> [Ang]:                  [ -0.000000,   0.000000,   0.250864]
    |<r_e - r_h>| [Ang]:            0.330081
    Hole size [Ang]:                1.740629
      Cartesian components [Ang]: [  1.060620,   0.882422,   1.061229]
    Electron size [Ang]:            3.430114
      Cartesian components [Ang]: [  2.401399,   1.265222,   2.097182]

  Transition density matrix analysis:
  -----------------------------------
  
  CT numbers (Mulliken)
    omega =     0.9122
    <Phe> =    -0.0006
  
  Exciton analysis of the transition density matrix
    Trans. dipole moment [D]:             0.000000
      Cartesian components [D]:         [ -0.000000,   0.000000,  -0.000000]
    <r_h> [Ang]:                        [ -0.000000,   0.000000,  -0.196090]
    <r_e> [Ang]:                        [ -0.000000,   0.000000,   0.375525]
    |<r_e - r_h>| [Ang]:                  0.571614
    Hole size [Ang]:                      1.276036
      Cartesian components [Ang]:       [  0.763547,   0.880651,   0.519344]
    Electron size [Ang]:                  4.052068
      Cartesian components [Ang]:       [  2.852228,   1.482627,   2.466956]
    RMS electron-hole separation [Ang]:   4.282353
      Cartesian components [Ang]:       [  2.947160,   1.724098,   2.584624]
    Covariance(r_h, r_e) [Ang^2]:         0.017861
    Correlation coefficient:              0.003454
    Center-of-mass size [Ang]:            2.126220
      Cartesian components [Ang]:       [  1.479076,   0.862401,   1.260718]

  Decomposition into state-averaged NTOs
    H- 0 -> L+ 4:  0.6024 ( 72.6%)
    H- 0 -> L+ 3:  0.2512 ( 12.6%)
    H- 0 -> L+ 5: -0.1733 (  6.0%)
                   omega =  91.2%
  ----------------------------------------------------------------------------


  Excited state 5 (singlet, A2)                                    [converged]
  ----------------------------------------------------------------------------
  Term symbol:  5 (1) A2                                    R^2 =  2.56438e-07

  Total energy:                                            -78.4626473820 a.u.
  Excitation energy:                                               9.590768 eV

  Osc. strength:                                                      0.000000
  Trans. dip. moment [a.u.]:           [   0.000000,   -0.000000,    0.000000]
  <i|r^2|0> [a.u.]:                    [  -0.000000,   -0.000000,    0.000000]

  Dip. moment [a.u.]:                  [  -0.000000,    0.000000,   -4.489450]
  Total dipole [Debye]:                                              11.411045
  <r^2> [a.u.]:                        [  53.907148,   20.023281,   89.220719]
  Total <r^2> [a.u.]:                                               163.151149

  V1^2 = 0.9540, V2^2 = 0.0460

  Important amplitudes:
      occ i      occ j       vir a       vir b          v   
    ---------------------------------------------------------
     4 (A1) A               2 (A2) A                 -0.5240
     4 (A1) A               1 (A2) A                 -0.4154
    ---------------------------------------------------------

  Density matrix analysis:
  ------------------------
  NOs
    Occupation of frontier NOs:
       0.9884   1.0066
    Number of electrons: 18.000000
    Number of unpaired electrons: n_u =  2.39943, n_u,nl =  2.03953
    NO participation ratio (PR_NO):  2.916246
  
  
  Mulliken Population Analysis
  Atom      Charge (e)              h+              e-           Del q
  --------------------------------------------------------------------
   1 C       -0.522262        0.440865       -0.569940       -0.129075
   2 C       -0.522262        0.440865       -0.569940       -0.129075
   3 H        0.233274        0.070681       -0.009471        0.061210
   4 H        0.233274        0.070681       -0.009471        0.061210
   5 H        0.112090        0.073797       -0.007028        0.066769
   6 H        0.112090        0.073797       -0.007028        0.066769
   7 H       -0.646204        0.006981       -0.004788        0.002193
  --------------------------------------------------------------------
  Sum:       -1.000000        1.177667       -1.177667       -0.000000
  
  Multipole moment analysis of the density matrix
    Molecular charge:                      -1.000000
    Number of electrons:                   18.000000
      Center of electronic charge [Ang]: [  0.000000,  -0.000000,   0.131984]
    Total nuclear charge:                  17.000000
      Center of nuclear charge [Ang]:    [ -0.000000,   0.000000,  -0.000000]
    Dipole moment [D]:                     11.411042
      Cartesian components [D]:          [ -0.000000,   0.000000, -11.411042]
    RMS size of the density [Ang]:         1.587686
      Cartesian components [Ang]:        [  0.915773,   0.558126,   1.170726]
  
  Exciton analysis of the difference density matrix
    <r_h> [Ang]:                  [ -0.000000,  -0.000000,  -0.156465]
    <r_e> [Ang]:                  [  0.000000,  -0.000000,  -0.183032]
    |<r_e - r_h>| [Ang]:            0.026567
    Hole size [Ang]:                1.465837
      Cartesian components [Ang]: [  1.120899,   0.560244,   0.760519]
    Electron size [Ang]:            1.800092
      Cartesian components [Ang]: [  1.244223,   1.088337,   0.712575]

  Transition density matrix analysis:
  -----------------------------------
  
  CT numbers (Mulliken)
    omega =     0.9220
    <Phe> =    -0.0156
  
  Exciton analysis of the transition density matrix
    Trans. dipole moment [D]:             0.000000
      Cartesian components [D]:         [  0.000000,  -0.000000,   0.000000]
    <r_h> [Ang]:                        [ -0.000000,  -0.000000,  -0.159994]
    <r_e> [Ang]:                        [  0.000000,  -0.000000,  -0.198152]
    |<r_e - r_h>| [Ang]:                  0.038159
    Hole size [Ang]:                      1.295645
      Cartesian components [Ang]:       [  1.072579,   0.412143,   0.598672]
    Electron size [Ang]:                  1.868908
      Cartesian components [Ang]:       [  1.302279,   1.149724,   0.689216]
    RMS electron-hole separation [Ang]:   2.257433
      Cartesian components [Ang]:       [  1.664572,   1.220705,   0.913828]
    Covariance(r_h, r_e) [Ang^2]:         0.038482
    Correlation coefficient:              0.015892
    Center-of-mass size [Ang]:            1.145478
      Cartesian components [Ang]:       [  0.854680,   0.611010,   0.456407]

  Decomposition into state-averaged NTOs
    H- 2 -> L+ 0: -0.6724 ( 90.4%)
                   omega =  92.2%
  ----------------------------------------------------------------------------


  Excited state 6 (singlet, A2)                                    [converged]
  ----------------------------------------------------------------------------
  Term symbol:  6 (1) A2                                    R^2 =  2.71304e-07

  Total energy:                                            -78.4446522910 a.u.
  Excitation energy:                                              10.080439 eV

  Osc. strength:                                                      0.000000
  Trans. dip. moment [a.u.]:           [   0.000000,    0.000000,    0.000000]
  <i|r^2|0> [a.u.]:                    [   0.000000,    0.000000,    0.000000]

  Dip. moment [a.u.]:                  [   0.000000,   -0.000000,   -4.422860]
  Total dipole [Debye]:                                              11.241791
  <r^2> [a.u.]:                        [  57.166890,   42.936857,   93.545616]
  Total <r^2> [a.u.]:                                               193.649362

  V1^2 = 0.9356, V2^2 = 0.0644

  Important amplitudes:
      occ i      occ j       vir a       vir b          v   
    ---------------------------------------------------------
     3 (B1) A               2 (B2) A                 -0.6742
     3 (B1) A               3 (B2) A                 -0.1086
    ---------------------------------------------------------

  Density matrix analysis:
  ------------------------
  NOs
    Occupation of frontier NOs:
       0.9942   1.0207
    Number of electrons: 18.000000
    Number of unpaired electrons: n_u =  2.48373, n_u,nl =  2.07625
    NO participation ratio (PR_NO):  3.134795
  
  
  Mulliken Population Analysis
  Atom      Charge (e)              h+              e-           Del q
  --------------------------------------------------------------------
   1 C       -0.710307        0.312852       -0.629971       -0.317119
   2 C       -0.710307        0.312852       -0.629971       -0.317119
   3 H        0.312818        0.160528       -0.019774        0.140754
   4 H        0.312818        0.160528       -0.019774        0.140754
   5 H        0.213304        0.178090       -0.010107        0.167983
   6 H        0.213304        0.178090       -0.010107        0.167983
   7 H       -0.631632        0.034401       -0.017636        0.016765
  --------------------------------------------------------------------
  Sum:       -1.000000        1.337340       -1.337340       -0.000000
  
  Multipole moment analysis of the density matrix
    Molecular charge:                      -1.000000
    Number of electrons:                   18.000000
      Center of electronic charge [Ang]: [ -0.000000,   0.000000,   0.130026]
    Total nuclear charge:                  17.000000
      Center of nuclear charge [Ang]:    [ -0.000000,   0.000000,  -0.000000]
    Dipole moment [D]:                     11.241788
      Cartesian components [D]:          [  0.000000,  -0.000000, -11.241788]
    RMS size of the density [Ang]:         1.730816
      Cartesian components [Ang]:        [  0.943055,   0.817297,   1.199331]
  
  Exciton analysis of the difference density matrix
    <r_h> [Ang]:                  [  0.000000,   0.000000,  -0.076711]
    <r_e> [Ang]:                  [ -0.000000,   0.000000,  -0.126455]
    |<r_e - r_h>| [Ang]:            0.049744
    Hole size [Ang]:                1.825790
      Cartesian components [Ang]: [  1.204244,   0.668233,   1.198654]
    Electron size [Ang]:            3.267836
      Cartesian components [Ang]: [  1.545840,   2.451758,   1.509309]

  Transition density matrix analysis:
  -----------------------------------
  
  CT numbers (Mulliken)
    omega =     0.9196
    <Phe> =    -0.0006
  
  Exciton analysis of the transition density matrix
    Trans. dipole moment [D]:             0.000000
      Cartesian components [D]:         [  0.000000,   0.000000,   0.000000]
    <r_h> [Ang]:                        [ -0.000000,   0.000000,  -0.143137]
    <r_e> [Ang]:                        [ -0.000000,   0.000000,  -0.189543]
    |<r_e - r_h>| [Ang]:                  0.046406
    Hole size [Ang]:                      1.521173
      Cartesian components [Ang]:       [  1.125451,   0.415945,   0.935049]
    Electron size [Ang]:                  3.643350
      Cartesian components [Ang]:       [  1.673988,   2.802430,   1.618071]
    RMS electron-hole separation [Ang]:   3.914727
      Cartesian components [Ang]:       [  1.951287,   2.832579,   1.869240]
    Covariance(r_h, r_e) [Ang^2]:         0.132519
    Correlation coefficient:              0.023911
    Center-of-mass size [Ang]:            1.990792
      Cartesian components [Ang]:       [  1.040460,   1.416840,   0.934483]

  Decomposition into state-averaged NTOs
    H- 3 -> L+ 2: -0.6772 ( 91.7%)
                   omega =  92.0%
  ----------------------------------------------------------------------------


  Excited state 7 (singlet, A2)                                    [converged]
  ----------------------------------------------------------------------------
  Term symbol:  7 (1) A2                                    R^2 =  3.08843e-07

  Total energy:                                            -78.4331801893 a.u.
  Excitation energy:                                              10.392611 eV

  Osc. strength:                                                      0.000000
  Trans. dip. moment [a.u.]:           [  -0.000000,    0.000000,    0.000000]
  <i|r^2|0> [a.u.]:                    [   0.000000,   -0.000000,   -0.000000]

  Dip. moment [a.u.]:                  [   0.000000,   -0.000000,   -3.934655]
  Total dipole [Debye]:                                              10.000898
  <r^2> [a.u.]:                        [  78.016421,   22.955899,   97.264743]
  Total <r^2> [a.u.]:                                               198.237063

  V1^2 = 0.9452, V2^2 = 0.0548

  Important amplitudes:
      occ i      occ j       vir a       vir b          v   
    ---------------------------------------------------------
     1 (B2) A               6 (B1) A                 -0.6571
     1 (B2) A               4 (B1) A                 -0.1263
    ---------------------------------------------------------

  Density matrix analysis:
  ------------------------
  NOs
    Occupation of frontier NOs:
       0.9844   0.9847
    Number of electrons: 18.000000
    Number of unpaired electrons: n_u =  2.35141, n_u,nl =  2.03050
    NO participation ratio (PR_NO):  2.840128
  
  
  Mulliken Population Analysis
  Atom      Charge (e)              h+              e-           Del q
  --------------------------------------------------------------------
   1 C       -0.570756        0.532156       -0.709725       -0.177568
   2 C       -0.570756        0.532156       -0.709725       -0.177568
   3 H        0.162920        0.064901       -0.074046       -0.009145
   4 H        0.162920        0.064901       -0.074046       -0.009145
   5 H        0.219600        0.103439        0.070840        0.174279
   6 H        0.219600        0.103439        0.070840        0.174279
   7 H       -0.623528        0.036596       -0.011727        0.024868
  --------------------------------------------------------------------
  Sum:       -1.000000        1.437589       -1.437589        0.000000
  
  Multipole moment analysis of the density matrix
    Molecular charge:                      -1.000000
    Number of electrons:                   18.000000
      Center of electronic charge [Ang]: [ -0.000000,   0.000000,   0.115674]
    Total nuclear charge:                  17.000000
      Center of nuclear charge [Ang]:    [ -0.000000,   0.000000,  -0.000000]
    Dipole moment [D]:                     10.000895
      Cartesian components [D]:          [  0.000000,  -0.000000, -10.000895]
    RMS size of the density [Ang]:         1.752319
      Cartesian components [Ang]:        [  1.101686,   0.597602,   1.224655]
  
  Exciton analysis of the difference density matrix
    <r_h> [Ang]:                  [ -0.000000,   0.000000,  -0.131764]
    <r_e> [Ang]:                  [ -0.000000,   0.000000,  -0.357748]
    |<r_e - r_h>| [Ang]:            0.225983
    Hole size [Ang]:                1.713935
      Cartesian components [Ang]: [  1.064007,   0.888137,   1.008303]
    Electron size [Ang]:            3.250080
      Cartesian components [Ang]: [  2.463190,   1.439871,   1.556433]

  Transition density matrix analysis:
  -----------------------------------
  
  CT numbers (Mulliken)
    omega =     0.9139
    <Phe> =    -0.0037
  
  Exciton analysis of the transition density matrix
    Trans. dipole moment [D]:             0.000000
      Cartesian components [D]:         [ -0.000000,   0.000000,   0.000000]
    <r_h> [Ang]:                        [  0.000000,   0.000000,  -0.194118]
    <r_e> [Ang]:                        [ -0.000000,   0.000000,  -0.499887]
    |<r_e - r_h>| [Ang]:                  0.305770
    Hole size [Ang]:                      1.276807
      Cartesian components [Ang]:       [  0.763612,   0.877969,   0.525645]
    Electron size [Ang]:                  3.747268
      Cartesian components [Ang]:       [  2.867845,   1.676323,   1.734194]
    RMS electron-hole separation [Ang]:   3.961323
      Cartesian components [Ang]:       [  2.962305,   1.882607,   1.836469]
    Covariance(r_h, r_e) [Ang^2]:         0.036836
    Correlation coefficient:              0.007699
    Center-of-mass size [Ang]:            1.984057
      Cartesian components [Ang]:       [  1.486609,   0.950995,   0.906689]

  Decomposition into state-averaged NTOs
    H- 0 -> L+ 3: -0.5214 ( 54.4%)
    H- 0 -> L+ 5: -0.4161 ( 34.6%)
    H- 0 -> L+ 4:  0.0973 (  1.9%)
                   omega =  91.4%
  ----------------------------------------------------------------------------


  Excited state 8 (singlet, A2)                                    [converged]
  ----------------------------------------------------------------------------
  Term symbol:  8 (1) A2                                    R^2 =  2.16144e-07

  Total energy:                                            -78.4140191354 a.u.
  Excitation energy:                                              10.914010 eV

  Osc. strength:                                                      0.000000
  Trans. dip. moment [a.u.]:           [   0.000000,   -0.000000,   -0.000000]
  <i|r^2|0> [a.u.]:                    [   0.000000,   -0.000000,    0.000000]

  Dip. moment [a.u.]:                  [   0.000000,   -0.000000,    0.613360]
  Total dipole [Debye]:                                               1.559005
  <r^2> [a.u.]:                        [  63.864602,   27.246480,   63.472600]
  Total <r^2> [a.u.]:                                               154.583682

  V1^2 = 0.9161, V2^2 = 0.0839

  Important amplitudes:
      occ i      occ j       vir a       vir b          v   
    ---------------------------------------------------------
     5 (A1) A               3 (A2) A                  0.6628
     5 (A1) A               2 (A2) A                  0.1240
    ---------------------------------------------------------

  Density matrix analysis:
  ------------------------
  NOs
    Occupation of frontier NOs:
       0.9696   0.9896
    Number of electrons: 18.000000
    Number of unpaired electrons: n_u =  2.46689, n_u,nl =  2.06480
    NO participation ratio (PR_NO):  3.141908
  
  
  Mulliken Population Analysis
  Atom      Charge (e)              h+              e-           Del q
  --------------------------------------------------------------------
   1 C       -0.667845        0.255333       -0.529990       -0.274657
   2 C       -0.667845        0.255333       -0.529990       -0.274657
   3 H        0.108828        0.014161       -0.077397       -0.063236
   4 H        0.108828        0.014161       -0.077397       -0.063236
   5 H        0.042453        0.005483       -0.008352       -0.002869
   6 H        0.042453        0.005483       -0.008352       -0.002869
   7 H        0.033127        0.712160       -0.030636        0.681524
  --------------------------------------------------------------------
  Sum:       -1.000000        1.262114       -1.262114        0.000000
  
  Multipole moment analysis of the density matrix
    Molecular charge:                      -1.000000
    Number of electrons:                   18.000000
      Center of electronic charge [Ang]: [ -0.000000,   0.000000,  -0.018032]
    Total nuclear charge:                  17.000000
      Center of nuclear charge [Ang]:    [ -0.000000,   0.000000,  -0.000000]
    Dipole moment [D]:                     1.559004
      Cartesian components [D]:          [  0.000000,  -0.000000,   1.559004]
    RMS size of the density [Ang]:         1.550663
      Cartesian components [Ang]:        [  0.996770,   0.651059,   0.993543]
  
  Exciton analysis of the difference density matrix
    <r_h> [Ang]:                  [  0.000000,  -0.000000,   2.171008]
    <r_e> [Ang]:                  [  0.000000,   0.000000,   0.006721]
    |<r_e - r_h>| [Ang]:            2.164288
    Hole size [Ang]:                2.121970
      Cartesian components [Ang]: [  0.979052,   0.902813,   1.652012]
    Electron size [Ang]:            2.888274
      Cartesian components [Ang]: [  1.854721,   1.797235,   1.293091]

  Transition density matrix analysis:
  -----------------------------------
  
  CT numbers (Mulliken)
    omega =     0.9034
    <Phe> =     0.0002
  
  Exciton analysis of the transition density matrix
    Trans. dipole moment [D]:             0.000000
      Cartesian components [D]:         [  0.000000,  -0.000000,  -0.000000]
    <r_h> [Ang]:                        [  0.000000,  -0.000000,   2.810314]
    <r_e> [Ang]:                        [  0.000000,   0.000000,  -0.189720]
    |<r_e - r_h>| [Ang]:                  3.000034
    Hole size [Ang]:                      1.542694
      Cartesian components [Ang]:       [  0.797237,   0.780569,   1.065378]
    Electron size [Ang]:                  3.008444
      Cartesian components [Ang]:       [  1.981197,   1.960087,   1.132984]
    RMS electron-hole separation [Ang]:   4.519850
      Cartesian components [Ang]:       [  2.134353,   2.111211,   3.378812]
    Covariance(r_h, r_e) [Ang^2]:         0.000901
    Correlation coefficient:              0.000194
    Center-of-mass size [Ang]:            1.690595
      Cartesian components [Ang]:       [  1.068409,   1.054188,   0.778010]

  Decomposition into state-averaged NTOs
    H- 1 -> L+ 6: -0.6581 ( 86.6%)
    H- 1 -> L+ 1: -0.1282 (  3.3%)
                   omega =  90.3%
  ----------------------------------------------------------------------------


  Excited state 9 (singlet, A2)                                    [converged]
  ----------------------------------------------------------------------------
  Term symbol:  9 (1) A2                                    R^2 =  2.34595e-08

  Total energy:                                            -78.3838483318 a.u.
  Excitation energy:                                              11.734999 eV

  Osc. strength:                                                      0.000000
  Trans. dip. moment [a.u.]:           [   0.000000,    0.000000,    0.000000]
  <i|r^2|0> [a.u.]:                    [  -0.000000,   -0.000000,   -0.000000]

  Dip. moment [a.u.]:                  [   0.000000,    0.000000,    8.854242]
  Total dipole [Debye]:                                              22.505244
  <r^2> [a.u.]:                        [ 103.733084,   53.746577,   48.432112]
  Total <r^2> [a.u.]:                                               205.911772

  V1^2 = 0.0003, V2^2 = 0.9997

  Important amplitudes:
      occ i      occ j       vir a       vir b          v   
    ---------------------------------------------------------
     5 (A1) A   5 (A1) B    4 (B1) A    2 (B2) B      0.3535
     5 (A1) A               3 (A2) A                 -0.0106
    ---------------------------------------------------------

  Density matrix analysis:
  ------------------------
  NOs
    Occupation of frontier NOs:
       1.0003   1.0017
    Number of electrons: 18.000000
    Number of unpaired electrons: n_u =  2.40945, n_u,nl =  2.06131
    NO participation ratio (PR_NO):  2.885871
  
  
  Mulliken Population Analysis
  Atom      Charge (e)              h+              e-           Del q
  --------------------------------------------------------------------
   1 C       -1.201005        0.140290       -0.948107       -0.807817
   2 C       -1.201005        0.140290       -0.948107       -0.807817
   3 H        0.193167        0.018183        0.002919        0.021102
   4 H        0.193167        0.018183        0.002919        0.021102
   5 H       -0.008818        0.000563       -0.054702       -0.054139
   6 H       -0.008818        0.000563       -0.054702       -0.054139
   7 H        1.033311        1.681700        0.000007        1.681707
  --------------------------------------------------------------------
  Sum:       -1.000000        1.999772       -1.999772        0.000000
  
  Multipole moment analysis of the density matrix
    Molecular charge:                      -1.000000
    Number of electrons:                   18.000000
      Center of electronic charge [Ang]: [ -0.000000,  -0.000000,  -0.260304]
    Total nuclear charge:                  17.000000
      Center of nuclear charge [Ang]:    [ -0.000000,   0.000000,  -0.000000]
    Dipole moment [D]:                     22.505237
      Cartesian components [D]:          [  0.000000,   0.000000,  22.505237]
    RMS size of the density [Ang]:         1.770774
      Cartesian components [Ang]:        [  1.270350,   0.914409,   0.828074]
  
  Exciton analysis of the difference density matrix
    <r_h> [Ang]:                  [  0.000000,  -0.000000,   2.867050]
    <r_e> [Ang]:                  [ -0.000000,  -0.000000,  -0.679587]
    |<r_e - r_h>| [Ang]:            3.546637
    Hole size [Ang]:                1.455146
      Cartesian components [Ang]: [  0.768923,   0.758512,   0.975124]
    Electron size [Ang]:            4.063441
      Cartesian components [Ang]: [  2.782112,   2.410461,   1.720780]

  Transition density matrix analysis:
  -----------------------------------
  
  CT numbers (Mulliken)
    omega =     0.0003
    <Phe> =     0.0203
  
  Exciton analysis of the transition density matrix
    Trans. dipole moment [D]:             0.000000
      Cartesian components [D]:         [  0.000000,   0.000000,   0.000000]
    <r_h> [Ang]:                        [ -0.000000,  -0.000000,   2.480756]
    <r_e> [Ang]:                        [  0.000000,   0.000000,  -0.302741]
    |<r_e - r_h>| [Ang]:                  2.783497
    Hole size [Ang]:                      2.013505
      Cartesian components [Ang]:       [  0.917252,   1.069363,   1.438511]
    Electron size [Ang]:                  2.842434
      Cartesian components [Ang]:       [  2.014225,   1.672966,   1.106124]
    RMS electron-hole separation [Ang]:   4.449584
      Cartesian components [Ang]:       [  2.250065,   2.019028,   3.264894]
    Covariance(r_h, r_e) [Ang^2]:         0.041343
    Correlation coefficient:              0.007224
    Center-of-mass size [Ang]:            1.747593
      Cartesian components [Ang]:       [  1.087901,   0.975735,   0.958380]

  Decomposition into state-averaged NTOs
                   omega =   0.0%
  ----------------------------------------------------------------------------


  Excited state 10 (singlet, A2)                                    [converged]
  ----------------------------------------------------------------------------
  Term symbol:  10 (1) A2                                   R^2 =  8.67518e-06

  Total energy:                                            -78.3695909987 a.u.
  Excitation energy:                                              12.122961 eV

  Osc. strength:                                                      0.000000
  Trans. dip. moment [a.u.]:           [  -0.000000,   -0.000000,   -0.000000]
  <i|r^2|0> [a.u.]:                    [  -0.000000,    0.000000,   -0.000000]

  Dip. moment [a.u.]:                  [  -0.000000,    0.000000,   -4.488303]
  Total dipole [Debye]:                                              11.408129
  <r^2> [a.u.]:                        [  56.163367,   21.121203,   88.043645]
  Total <r^2> [a.u.]:                                               165.328216

  V1^2 = 0.9325, V2^2 = 0.0675

  Important amplitudes:
      occ i      occ j       vir a       vir b          v   
    ---------------------------------------------------------
     3 (A1) A               2 (A2) A                  0.5034
     3 (A1) A               1 (A2) A                  0.4288
    ---------------------------------------------------------

  Density matrix analysis:
  ------------------------
  NOs
    Occupation of frontier NOs:
       0.9837   1.0521
    Number of electrons: 18.000000
    Number of unpaired electrons: n_u =  2.47000, n_u,nl =  2.06901
    NO participation ratio (PR_NO):  3.235030
  
  
  Mulliken Population Analysis
  Atom      Charge (e)              h+              e-           Del q
  --------------------------------------------------------------------
   1 C       -0.582243        0.336245       -0.525301       -0.189056
   2 C       -0.582243        0.336245       -0.525301       -0.189056
   3 H        0.249206        0.086016       -0.008875        0.077142
   4 H        0.249206        0.086016       -0.008875        0.077142
   5 H        0.152456        0.117874       -0.010739        0.107135
   6 H        0.152456        0.117874       -0.010739        0.107135
   7 H       -0.638839        0.014695       -0.005137        0.009558
  --------------------------------------------------------------------
  Sum:       -1.000000        1.094967       -1.094967       -0.000000
  
  Multipole moment analysis of the density matrix
    Molecular charge:                      -1.000000
    Number of electrons:                   18.000000
      Center of electronic charge [Ang]: [  0.000000,  -0.000000,   0.131950]
    Total nuclear charge:                  17.000000
      Center of nuclear charge [Ang]:    [ -0.000000,   0.000000,  -0.000000]
    Dipole moment [D]:                     11.408126
      Cartesian components [D]:          [ -0.000000,   0.000000, -11.408126]
    RMS size of the density [Ang]:         1.598319
      Cartesian components [Ang]:        [  0.934741,   0.573224,   1.162883]
  
  Exciton analysis of the difference density matrix
    <r_h> [Ang]:                  [ -0.000000,  -0.000000,  -0.156497]
    <r_e> [Ang]:                  [  0.000000,  -0.000000,  -0.185625]
    |<r_e - r_h>| [Ang]:            0.029128
    Hole size [Ang]:                1.533368
      Cartesian components [Ang]: [  1.004991,   0.553186,   1.017445]
    Electron size [Ang]:            2.020352
      Cartesian components [Ang]: [  1.378667,   1.234163,   0.811137]

  Transition density matrix analysis:
  -----------------------------------
  
  CT numbers (Mulliken)
    omega =     0.9041
    <Phe> =    -0.0123
  
  Exciton analysis of the transition density matrix
    Trans. dipole moment [D]:             0.000000
      Cartesian components [D]:         [ -0.000000,  -0.000000,  -0.000000]
    <r_h> [Ang]:                        [ -0.000000,  -0.000000,  -0.208401]
    <r_e> [Ang]:                        [  0.000000,  -0.000000,  -0.197717]
    |<r_e - r_h>| [Ang]:                  0.010684
    Hole size [Ang]:                      1.372251
      Cartesian components [Ang]:       [  0.944256,   0.430405,   0.897889]
    Electron size [Ang]:                  2.015281
      Cartesian components [Ang]:       [  1.389225,   1.252705,   0.749762]
    RMS electron-hole separation [Ang]:   2.438156
      Cartesian components [Ang]:       [  1.683588,   1.322814,   1.166320]
    Covariance(r_h, r_e) [Ang^2]:        -0.000031
    Correlation coefficient:             -0.000011
    Center-of-mass size [Ang]:            1.219054
      Cartesian components [Ang]:       [  0.837953,   0.663174,   0.586623]

  Decomposition into state-averaged NTOs
    H- 4 -> L+ 0:  0.6608 ( 87.3%)
    H- 2 -> L+ 1: -0.0811 (  1.3%)
                   omega =  90.4%
  ----------------------------------------------------------------------------


--------------------------------------------------------------------------------
  Time of ADC calculation:  CPU 107.37 s  wall 32.11 s
================================================================================
 
 --------------------------------------------------------------
             Orbital Energies (a.u.) and Symmetries
 --------------------------------------------------------------
 
 Alpha MOs, Restricted
 -- Occupied --                  
-11.074 -11.072  -0.879  -0.622  -0.496  -0.407  -0.350  -0.216
  1 A1    1 B1    2 A1    2 B1    3 A1    4 A1    3 B1    1 B2                 
 -0.024
  5 A1                                                                         
 -- Virtual --                   
  0.173   0.191   0.211   0.215   0.219   0.237   0.303   0.322
  4 B1    6 A1    2 B2    1 A2    7 A1    5 B1    8 A1    2 A2                 
  0.339   0.422   0.455   0.464   0.485   0.486   0.489   0.524
  6 B1    9 A1    7 B1   10 A1   11 A1    3 B2    8 B1   12 A1                 
  0.527   0.568   0.705   0.767   0.976   1.009   1.050   1.092
  9 B1    3 A2   10 B1   11 B1   13 A1   14 A1   15 A1   12 B1                 
  1.116   1.187   1.226   1.250   1.255   1.278   1.286   1.298
 16 A1   13 B1   17 A1   18 A1    4 B2    5 B2   14 B1    4 A2                 
  1.434   1.448   1.450   1.605   1.783   1.827   1.897   1.903
 15 B1    5 A2    6 B2   16 B1   19 A1   17 B1   20 A1    7 B2                 
  1.937   2.007   2.035   2.104   2.124   2.184   2.230   2.262
 18 B1   21 A1    6 A2    8 B2   19 B1    9 B2   22 A1   23 A1                 
  2.341   2.490   2.576   2.650   2.731   2.755   2.993   3.019
  7 A2   20 B1    8 A2   24 A1   21 B1   22 B1   25 A1   26 A1                 
  3.424   3.507
 23 B1   24 B1                                                                 
 
 Beta MOs, Restricted
 -- Occupied --                  
-11.074 -11.072  -0.879  -0.622  -0.496  -0.407  -0.350  -0.216
  1 A1    1 B1    2 A1    2 B1    3 A1    4 A1    3 B1    1 B2                 
 -0.024
  5 A1                                                                         
 -- Virtual --                   
  0.173   0.191   0.211   0.215   0.219   0.237   0.303   0.322
  4 B1    6 A1    2 B2    1 A2    7 A1    5 B1    8 A1    2 A2                 
  0.339   0.422   0.455   0.464   0.485   0.486   0.489   0.524
  6 B1    9 A1    7 B1   10 A1   11 A1    3 B2    8 B1   12 A1                 
  0.527   0.568   0.705   0.767   0.976   1.009   1.050   1.092
  9 B1    3 A2   10 B1   11 B1   13 A1   14 A1   15 A1   12 B1                 
  1.116   1.187   1.226   1.250   1.255   1.278   1.286   1.298
 16 A1   13 B1   17 A1   18 A1    4 B2    5 B2   14 B1    4 A2                 
  1.434   1.448   1.450   1.605   1.783   1.827   1.897   1.903
 15 B1    5 A2    6 B2   16 B1   19 A1   17 B1   20 A1    7 B2                 
  1.937   2.007   2.035   2.104   2.124   2.184   2.230   2.262
 18 B1   21 A1    6 A2    8 B2   19 B1    9 B2   22 A1   23 A1                 
  2.341   2.490   2.576   2.650   2.731   2.755   2.993   3.019
  7 A2   20 B1    8 A2   24 A1   21 B1   22 B1   25 A1   26 A1                 
  3.424   3.507
 23 B1   24 B1                                                                 
 --------------------------------------------------------------
 
          Ground-State Mulliken Net Atomic Charges

     Atom                 Charge (a.u.)
  ----------------------------------------
      1 C                    -0.367453
      2 C                    -0.367453
      3 H                     0.172434
      4 H                     0.172434
      5 H                     0.037465
      6 H                     0.037465
      7 H                    -0.684892
  ----------------------------------------
  Sum of atomic charges =    -1.000000

 -----------------------------------------------------------------
                    Cartesian Multipole Moments
 -----------------------------------------------------------------
    Charge (ESU x 10^10)
                -4.8032
    Dipole Moment (Debye)
         X       0.0000      Y       0.0000      Z     -11.8722
       Tot      11.8722
    Quadrupole Moments (Debye-Ang)
        XX     -19.1449     XY       0.0000     YY     -22.0249
        XZ       0.0000     YZ       0.0000     ZZ     -56.4105
    Octopole Moments (Debye-Ang^2)
       XXX       0.0000    XXY      -0.0000    XYY       0.0000
       YYY       0.0000    XXZ      -9.4312    XYZ       0.0000
       YYZ     -10.0232    XZZ       0.0000    YZZ       0.0000
       ZZZ    -136.2411
    Hexadecapole Moments (Debye-Ang^3)
      XXXX     -89.8725   XXXY       0.0000   XXYY     -22.3203
      XYYY       0.0000   YYYY     -40.8544   XXXZ       0.0000
      XXYZ      -0.0000   XYYZ       0.0000   YYYZ      -0.0000
      XXZZ     -62.2549   XYZZ       0.0000   YYZZ     -56.6092
      XZZZ       0.0000   YZZZ       0.0000   ZZZZ    -601.4149
 -----------------------------------------------------------------
 Total job time:  112.95s(wall), 151.30s(cpu) 
 Thu Feb 17 13:41:08 2022

        *************************************************************
        *                                                           *
        *  Thank you very much for using Q-Chem.  Have a nice day.  *
        *                                                           *
        *************************************************************


