/src/tsommerfeld/qchem/exe/qcprog.exe .input1.477778.13683.qcin.1 /src/jdavis/qchem.scratch/qchem13683/

                  Welcome to Q-Chem
     A Quantum Leap Into The Future Of Chemistry


 Q-Chem 5.4 (devel), Q-Chem, Inc., Pleasanton, CA (2021)

 E. Epifanovsky,  A. T. B. Gilbert,  Xintian Feng,  Joonho Lee,  Yuezhi Mao,  
 N. Mardirossian,  P. Pokhilko,  A. White,  M. Wormit,  M. P. Coons,  
 A. L. Dempwolff,  Zhengting Gan,  D. Hait,  P. R. Horn,  L. D. Jacobson,  
 I. Kaliman,  J. Kussmann,  A. W. Lange,  Ka Un Lao,  D. S. Levine,  Jie Liu,  
 S. C. McKenzie,  A. F. Morrison,  K. Nanda,  F. Plasser,  D. R. Rehn,  
 M. L. Vidal,  Zhi-Qiang You,  Ying Zhu,  B. Alam,  B. Albrecht,  
 A. Aldossary,  E. Alguire,  J. H. Andersen,  D. Barton,  K. Begam,  A. Behn,  
 Y. A. Bernard,  E. J. Berquist,  H. Burton,  A. Carreras,  K. Carter-Fenk,  
 R. Chakraborty,  A. D. Chien,  K. D. Closser,  V. Cofer-Shabica,  
 S. Dasgupta,  Jia Deng,  M. de Wergifosse,  M. Diedenhofen,  Hainam Do,  
 S. Ehlert,  Po-Tung Fang,  S. Fatehi,  Qingguo Feng,  T. Friedhoff,  
 J. Gayvert,  Qinghui Ge,  G. Gidofalvi,  M. Goldey,  J. Gomes,  
 C. Gonzalez-Espinoza,  S. Gulania,  A. Gunina,  M. W. D. Hanson-Heine,  
 P. H. P. Harbach,  A. W. Hauser,  M. F. Herbst,  M. Hernandez Vera,  
 M. Hodecker,  Z. C. Holden,  S. Houck,  Xunkun Huang,  Kerwin Hui,  
 B. C. Huynh,  M. Ivanov,  Hyunjun Ji,  Hanjie Jiang,  B. Kaduk,  S. Kaehler,  
 K. Khistyaev,  Jaehoon Kim,  P. Klunzinger,  Z. Koczor-Benda,  
 Joong Hoon Koh,  D. Kosenkov,  L. Koulias,  T. Kowalczyk,  C. M. Krauter,  
 K. Kue,  A. Kunitsa,  T. Kus,  A. Landau,  K. V. Lawler,  D. Lefrancois,  
 S. Lehtola,  Rain Li,  Yi-Pei Li,  Jiashu Liang,  M. Liebenthal,  
 Hung-Hsuan Lin,  You-Sheng Lin,  Fenglai Liu,  Kuan-Yu Liu,  
 M. Loipersberger,  A. Luenser,  A. Manjanath,  P. Manohar,  E. Mansoor,  
 S. F. Manzer,  Shan-Ping Mao,  A. V. Marenich,  T. Markovich,  S. Mason,  
 S. A. Maurer,  P. F. McLaughlin,  M. F. S. J. Menger,  J.-M. Mewes,  
 S. A. Mewes,  P. Morgante,  J. W. Mullinax,  K. J. Oosterbaan,  G. Paran,  
 Alexander C. Paul,  Suranjan K. Paul,  F. Pavosevic,  Zheng Pei,  S. Prager,  
 E. I. Proynov,  E. Ramos,  B. Rana,  A. E. Rask,  A. Rettig,  R. M. Richard,  
 F. Rob,  E. Rossomme,  T. Scheele,  M. Scheurer,  M. Schneider,  
 N. Sergueev,  S. M. Sharada,  W. Skomorowski,  D. W. Small,  C. J. Stein,  
 Yu-Chuan Su,  E. J. Sundstrom,  Zhen Tao,  J. Thirman,  T. Tsuchimochi,  
 N. M. Tubman,  S. P. Veccham,  O. Vydrov,  J. Wenzel,  J. Witte,  A. Yamada,  
 Kun Yao,  S. Yeganeh,  S. R. Yost,  A. Zech,  Igor Ying Zhang,  Xing Zhang,  
 Yu Zhang,  D. Zuev,  A. Aspuru-Guzik,  A. T. Bell,  N. A. Besley,  
 K. B. Bravaya,  B. R. Brooks,  D. Casanova,  Jeng-Da Chai,  S. Coriani,  
 C. J. Cramer,  A. E. DePrince, III,  R. A. DiStasio Jr.,  A. Dreuw,  
 B. D. Dunietz,  T. R. Furlani,  W. A. Goddard III,  S. Grimme,  
 S. Hammes-Schiffer,  T. Head-Gordon,  W. J. Hehre,  Chao-Ping Hsu,  
 T.-C. Jagau,  Yousung Jung,  A. Klamt,  Jing Kong,  D. S. Lambrecht,  
 WanZhen Liang,  N. J. Mayhall,  C. W. McCurdy,  J. B. Neaton,  
 C. Ochsenfeld,  J. A. Parkhill,  R. Peverati,  V. A. Rassolov,  Yihan Shao,  
 L. V. Slipchenko,  T. Stauch,  R. P. Steele,  J. E. Subotnik,  
 A. J. W. Thom,  A. Tkatchenko,  D. G. Truhlar,  T. Van Voorhis,  
 T. A. Wesolowski,  K. B. Whaley,  H. L. Woodcock III,  P. M. Zimmerman,  
 S. Faraji,  P. M. W. Gill,  M. Head-Gordon,  J. M. Herbert,  A. I. Krylov

 Additional authors for Version 5.4.1: 
 S. Kotaru,  Shaozhi Li,  Xiangyuan Li,  F. Matz,  A. Molle,  Haisheng Ren,  
 Yingli Su,  Hung-Yi Tsai,  C. Utku,  Fang Wang

 Contributors to earlier versions of Q-Chem not listed above: 
 R. D. Adamson,  B. Austin,  R. Baer,  J. Baker,  G. J. O. Beran,  
 K. Brandhorst,  S. T. Brown,  E. F. C. Byrd,  A. K. Chakraborty,  
 G. K. L. Chan,  Chun-Min Chang,  Yunqing Chen,  C.-L. Cheng,  
 Siu Hung Chien,  D. M. Chipman,  D. L. Crittenden,  H. Dachsel,  
 R. J. Doerksen,  A. D. Dutoi,  R. G. Edgar,  J. Fosso-Tande,  
 L. Fusti-Molnar,  D. Ghosh,  A. Ghysels,  A. Golubeva-Zadorozhnaya,  
 J. Gonthier,  M. S. Gordon,  S. R. Gwaltney,  G. Hawkins,  J. E. Herr,  
 A. Heyden,  S. Hirata,  E. G. Hohenstein,  G. Kedziora,  F. J. Keil,  
 C. Kelley,  Jihan Kim,  R. A. King,  R. Z. Khaliullin,  P. P. Korambath,  
 W. Kurlancheek,  A. Laurent,  A. M. Lee,  M. S. Lee,  S. V. Levchenko,  
 Ching Yeh Lin,  D. Liotard,  E. Livshits,  R. C. Lochan,  I. Lotan,  
 L. A. Martinez-Martinez,  P. E. Maslen,  N. Nair,  D. P. O'Neill,  
 D. Neuhauser,  E. Neuscamman,  C. M. Oana,  R. Olivares-Amaya,  R. Olson,  
 T. M. Perrine,  B. Peters,  P. A. Pieniazek,  A. Prociuk,  Y. M. Rhee,  
 J. Ritchie,  M. A. Rohrdanz,  E. Rosta,  N. J. Russ,  H. F. Schaefer III,  
 M. W. Schmidt,  N. E. Schultz,  S. Sharma,  N. Shenvi,  C. D. Sherrill,  
 A. C. Simmonett,  A. Sodt,  T. Stein,  D. Stuck,  K. S. Thanthiriwatte,  
 V. Vanovschi,  L. Vogt,  Tao Wang,  A. Warshel,  M. A. Watson,  
 C. F. Williams,  Q. Wu,  X. Xu,  Jun Yang,  W. Zhang,  Yan Zhao

 Please cite Q-Chem as follows:
 Y. Shao et al., Mol. Phys. 113, 184-215 (2015)
 DOI: 10.1080/00268976.2014.952696

 Q-Chem 5.4.1 for Intel X86 EM64T Linux

 Parts of Q-Chem use Armadillo 9.900.5 (Nocturnal Misbehaviour).
 http://arma.sourceforge.net/

 Q-Chem begins on Thu Feb 17 13:23:30 2022  

 Host: node01
0

     Scratch files written to /src/jdavis/qchem.scratch/qchem13683//
 Processing $rem in /src/tsommerfeld/qchem/config/preferences:
 Processing $rem in /home/jdavis/.qchemrc:

 Checking the input file for inconsistencies... 	...done.

--------------------------------------------------------------
User input:
--------------------------------------------------------------
$molecule
-1 1
C        -0.6645000000    0.0000000000   -0.2082049804
C         0.6645000000    0.0000000000   -0.2082049804
H        -1.1590800000    0.0000000000    0.7541440196
H         1.1590800000    0.0000000000    0.7541440196
H        -1.1590800000    0.0000000000   -1.1705529804
H         1.1590800000    0.0000000000   -1.1705529804
H         0.0000000000    0.0000000000    3.0139349415
$end

$rem
   METHOD adc(2)
   BASIS gen
   PURECART 11
   EE_STATES [0,10,0,0]
   scf_convergence 8
   ADC_DAVIDSON_MAXITER 120
   ADC_DAVIDSON_MAXSUBSPACE 200
   adc_nguess_singles 100
   THRESH 14
   S2THRESH 14
   adc_davidson_conv 5
   adc_davidson_thresh 14
   THREADS 10
   MEM_TOTAL 95000
   STATE_ANALYSIS TRUE
$end
$basis
C 1
S   9   1.00
      6.665000D+03           6.920000D-04
      1.000000D+03           5.329000D-03
      2.280000D+02           2.707700D-02
      6.471000D+01           1.017180D-01
      2.106000D+01           2.747400D-01
      7.495000D+00           4.485640D-01
      2.797000D+00           2.850740D-01
      5.215000D-01           1.520400D-02
      1.596000D-01          -3.191000D-03
S   9   1.00
      6.665000D+03          -1.460000D-04
      1.000000D+03          -1.154000D-03
      2.280000D+02          -5.725000D-03
      6.471000D+01          -2.331200D-02
      2.106000D+01          -6.395500D-02
      7.495000D+00          -1.499810D-01
      2.797000D+00          -1.272620D-01
      5.215000D-01           5.445290D-01
      1.596000D-01           5.804960D-01
S   1   1.00
      1.596000D-01           1.000000D+00
S   1   1.00
      0.0469000              1.0000000
P   4   1.00
      9.439000D+00           3.810900D-02
      2.002000D+00           2.094800D-01
      5.456000D-01           5.085570D-01
      1.517000D-01           4.688420D-01
P   1   1.00
      1.517000D-01           1.000000D+00
P   1   1.00
      0.0640511      1.0000000
P   1   1.00
      0.0320256      1.0000000
D   1   1.00
      5.500000D-01           1.0000000
****
C 2
S   9   1.00
      6.665000D+03           6.920000D-04
      1.000000D+03           5.329000D-03
      2.280000D+02           2.707700D-02
      6.471000D+01           1.017180D-01
      2.106000D+01           2.747400D-01
      7.495000D+00           4.485640D-01
      2.797000D+00           2.850740D-01
      5.215000D-01           1.520400D-02
      1.596000D-01          -3.191000D-03
S   9   1.00
      6.665000D+03          -1.460000D-04
      1.000000D+03          -1.154000D-03
      2.280000D+02          -5.725000D-03
      6.471000D+01          -2.331200D-02
      2.106000D+01          -6.395500D-02
      7.495000D+00          -1.499810D-01
      2.797000D+00          -1.272620D-01
      5.215000D-01           5.445290D-01
      1.596000D-01           5.804960D-01
S   1   1.00
      1.596000D-01           1.000000D+00
S   1   1.00
      0.0469000              1.0000000
P   4   1.00
      9.439000D+00           3.810900D-02
      2.002000D+00           2.094800D-01
      5.456000D-01           5.085570D-01
      1.517000D-01           4.688420D-01
P   1   1.00
      1.517000D-01           1.000000D+00
P   1   1.00
      0.0640511      1.0000000
P   1   1.00
      0.0320256      1.0000000
D   1   1.00
      5.500000D-01           1.0000000
****
H 3
cc-pVDZ
****
H 4
cc-pVDZ
****
H 5
cc-pVDZ
****
H 6
cc-pVDZ
****
H 7
aug-cc-pVDZ
****
$end
--------------------------------------------------------------
 ----------------------------------------------------------------
             Standard Nuclear Orientation (Angstroms)
    I     Atom           X                Y                Z
 ----------------------------------------------------------------
    1      C      -0.6645000000    -0.0000000000    -0.1895377601
    2      C       0.6645000000     0.0000000000    -0.1895377601
    3      H      -1.1590800000    -0.0000000000     0.7728112399
    4      H       1.1590800000     0.0000000000     0.7728112399
    5      H      -1.1590800000    -0.0000000000    -1.1518857601
    6      H       1.1590800000     0.0000000000    -1.1518857601
    7      H      -0.0000000000     0.0000000000     3.0326021618
 ----------------------------------------------------------------
 Molecular Point Group                 C2v   NOp =  4
 Largest Abelian Subgroup              C2v   NOp =  4
 Nuclear Repulsion Energy =          36.17984589 hartrees
 There are        9 alpha and        9 beta electrons
 Requested basis set is non-standard
 There are 33 shells and 67 basis functions
 Total memory of 95000 MB is distributed as follows: 
   MEM_STATIC is set to 192 MB
   QALLOC/CCMAN JOB total memory use is  94808 MB
 Warning: actual memory use might exceed 95000 MB

 Total QAlloc Memory Limit  95000 MB
 Mega-Array Size       188 MB
 MEM_STATIC part       192 MB

                       Distance Matrix (Angstroms)
             C (  1)   C (  2)   H (  3)   H (  4)   H (  5)   H (  6)
   C (  2)  1.329000
   H (  3)  1.082000  2.061931
   H (  4)  2.061931  1.082000  2.318160
   H (  5)  1.082000  2.061931  1.924697  3.013026
   H (  6)  2.061931  1.082000  3.013026  1.924697  2.318160
   H (  7)  3.289946  3.289946  2.539709  2.539709  4.342051  4.342051

 
 A cutoff of  1.0D-14 yielded    561 shell pairs
 There are      2337 function pairs (      2484 Cartesian)
 Smallest overlap matrix eigenvalue = 2.43E-04

 Scale SEOQF with 1.000000e-01/1.000000e-01/1.000000e-01

 Standard Electronic Orientation quadrupole field applied
 Nucleus-field energy     =    -0.0000000011 hartrees
 ================ Generating on-the-fly SAD Guess ================
Attempting to make child job directory: /src/jdavis/qchem.scratch/qchem13683//Frg1/
Attempting to make child job directory: /src/jdavis/qchem.scratch/qchem13683//Frg2/
Creating input file /src/jdavis/qchem.scratch/qchem13683/Frg1.input
using default PutDataFrgm: nothing
calling putenv with: QCSCRATCH=/src/jdavis/qchem.scratch/qchem13683/ 
Spawning Job For Fragment 0
Done Job For Fragment 0
calling putenv with: QCSCRATCH=/src/jdavis/qchem.scratch 
calling putenv with: QCTHREADS=1 
Creating input file /src/jdavis/qchem.scratch/qchem13683/Frg2.input
using default PutDataFrgm: nothing
calling putenv with: QCSCRATCH=/src/jdavis/qchem.scratch/qchem13683/ 
Spawning Job For Fragment 1
Done Job For Fragment 1
calling putenv with: QCSCRATCH=/src/jdavis/qchem.scratch 
calling putenv with: QCTHREADS=1 
 Time for running child jobs:  CPU 1.77 s  wall 53.28 s
 ============= Method Specific SAD Guess Constructed =============
 Guess from on-the-fly superposition of atomic densities
 Warning: Energy on first SCF cycle will be non-variational
 A restricted Hartree-Fock SCF calculation will be
 performed using Pulay DIIS extrapolation
 SCF converges when DIIS error is below 1.0E-08
 using 10 threads for integral computing
 -------------------------------------------------------
 OpenMP Integral computing Module                
 Release: version 1.0, May 2013, Q-Chem Inc. Pittsburgh 
 -------------------------------------------------------
 ---------------------------------------
  Cycle       Energy         DIIS Error
 ---------------------------------------
    1     -78.8080311591      7.36E-02
    2     -78.4605356431      6.88E-03
    3     -78.5092151840      1.66E-03
    4     -78.5117487561      5.31E-04
    5     -78.5120303782      1.15E-04
    6     -78.5120528466      2.56E-05
    7     -78.5120547037      7.28E-06
    8     -78.5120548947      1.01E-06
    9     -78.5120548996      2.47E-07
   10     -78.5120549000      5.37E-08
   11     -78.5120549000      1.11E-08
   12     -78.5120549000      1.57E-09 Convergence criterion met
 ---------------------------------------
 SCF time:  CPU 10.55 s  wall 1.06 s
 SCF   energy in the final basis set = -78.51205490
 Total energy in the final basis set = -78.51205490
================================================================================
|                                                                              |
|                                 A D C  M A N                                 |
|                                                                              |
 ------------------------------------------------------------------------------ 
|                                                                              |
| Components:                                                                  |
|                                                                              |
| - libvmm - 1.3-trunk                                                         |
|   Authors:                                                                   |
|   Evgeny Epifanovsky, Ilya Kaliman                                           |
|                                                                              |
| - libtensor - 2.5-trunk                                                      |
|   Authors:                                                                   |
|   Evgeny Epifanovsky, Michael Wormit, Dmitry Zuev, Sam Manzer,               |
|   Ilya Kaliman                                                               |
|                                                                              |
| - libwfa - 1.1-trunk                                                         |
|   Authors:                                                                   |
|   Felix Plasser, Stefanie Mewes (Baeppler), Benjamin Thomitzni,              |
|   Michael Wormit, Feng Chen, Anna I. Krylov, Pavel Pokhilko                  |
|                                                                              |
| - libadc - 1.1-trunk                                                         |
|   Authors:                                                                   |
|   Michael Wormit, Adrian L. Dempwolff, Philipp H. P. Harbach,                |
|   Caroline Krauter, Dirk Rehn, Matthias Schneider, Jan Wenzel                |
|                                                                              |
| - adcman - 2.6-trunk                                                         |
|   Authors:                                                                   |
|   Michael Wormit, Adrian L. Dempwolff, Philipp H. P. Harbach,                |
|   Caroline Krauter, Daniel Lefrancois, Jan-Michael Mewes, Dirk Rehn,         |
|   Matthias Schneider, Jan Wenzel, Andreas Dreuw                              |
|                                                                              |
| Authors of earlier versions of ADCMAN:                                       |
| Andreas Dreuw, Jan Hendrik Starcke, Dirk Rehn, Michael Wormit                |
|                                                                              |
================================================================================

 
 Alpha MOs, Restricted
 -- Occupied --                  
-11.076 -11.074  -0.881  -0.624  -0.498  -0.409  -0.352  -0.218
  1 A1    1 B1    2 A1    2 B1    3 A1    4 A1    3 B1    1 B2                 
 -0.028
  5 A1                                                                         
 -- Virtual --                   
  0.157   0.181   0.189   0.195   0.197   0.211   0.286   0.303
  4 B1    6 A1    2 B2    1 A2    7 A1    5 B1    8 A1    2 A2                 
  0.318   0.391   0.417   0.421   0.428   0.429   0.473   0.502
  6 B1    9 A1    7 B1   10 A1    8 B1    3 B2   11 A1   12 A1                 
  0.509   0.514   0.700   0.750   0.945   1.014   1.033   1.053
  3 A2    9 B1   10 B1   11 B1   13 A1   14 A1   15 A1   16 A1                 
  1.086   1.159   1.172   1.212   1.215   1.236   1.237   1.275
 12 B1   17 A1    4 B2   13 B1    4 A2   18 A1   14 B1    5 B2                 
  1.422   1.444   1.445   1.544   1.776   1.786   1.885   1.894
 15 B1    6 B2    5 A2   16 B1   19 A1   17 B1   20 A1    7 B2                 
  1.928   1.987   2.026   2.101   2.107   2.182   2.202   2.246
 18 B1   21 A1    6 A2    8 B2   19 B1    9 B2   22 A1   23 A1                 
  2.336   2.482   2.574   2.635   2.731   2.754   2.968   2.996
  7 A2   20 B1    8 A2   24 A1   21 B1   22 B1   25 A1   26 A1                 
  3.406   3.502
 23 B1   24 B1                                                                 
 
 Beta MOs, Restricted
 -- Occupied --                  
-11.076 -11.074  -0.881  -0.624  -0.498  -0.409  -0.352  -0.218
  1 A1    1 B1    2 A1    2 B1    3 A1    4 A1    3 B1    1 B2                 
 -0.028
  5 A1                                                                         
 -- Virtual --                   
  0.157   0.181   0.189   0.195   0.197   0.211   0.286   0.303
  4 B1    6 A1    2 B2    1 A2    7 A1    5 B1    8 A1    2 A2                 
  0.318   0.391   0.417   0.421   0.428   0.429   0.473   0.502
  6 B1    9 A1    7 B1   10 A1    8 B1    3 B2   11 A1   12 A1                 
  0.509   0.514   0.700   0.750   0.945   1.014   1.033   1.053
  3 A2    9 B1   10 B1   11 B1   13 A1   14 A1   15 A1   16 A1                 
  1.086   1.159   1.172   1.212   1.215   1.236   1.237   1.275
 12 B1   17 A1    4 B2   13 B1    4 A2   18 A1   14 B1    5 B2                 
  1.422   1.444   1.445   1.544   1.776   1.786   1.885   1.894
 15 B1    6 B2    5 A2   16 B1   19 A1   17 B1   20 A1    7 B2                 
  1.928   1.987   2.026   2.101   2.107   2.182   2.202   2.246
 18 B1   21 A1    6 A2    8 B2   19 B1    9 B2   22 A1   23 A1                 
  2.336   2.482   2.574   2.635   2.731   2.754   2.968   2.996
  7 A2   20 B1    8 A2   24 A1   21 B1   22 B1   25 A1   26 A1                 
  3.406   3.502
 23 B1   24 B1                                                                 

--------------------------------------------------------------------------------
                                   HF Summary                                   
--------------------------------------------------------------------------------
  Energy:                                                  -78.5120549000 a.u.
  Dip. moment [a.u.]:                  [  -0.000000,    0.000000,   -4.620754]
  Total dipole [Debye]:                                              11.744788
  <r^2> [a.u.]:                        [  52.707214,   16.719865,   91.046573]
  Total <r^2> [a.u.]:                                               160.473652
--------------------------------------------------------------------------------

--------------------------------------------------------------------------------
                                 MP(2) Summary                                  
--------------------------------------------------------------------------------
  MP energy contribution:                                   -0.3046588364 a.u.
  Total energy:                                            -78.8167137364 a.u.
  Dip. moment [a.u.]:                  [  -0.000000,    0.000000,   -4.463866]
  Total dipole [Debye]:                                              11.346018
  <r^2> [a.u.]:                        [  53.139350,   16.803791,   90.597124]
  Total <r^2> [a.u.]:                                               160.540265

  Density matrix analysis:
  ------------------------
  NOs
    Occupation of frontier NOs:
       0.0448   1.9362
    Number of electrons: 18.000000
    Number of unpaired electrons: n_u =  0.46266, n_u,nl =  0.05066
    NO participation ratio (PR_NO): 16.224918
  
  
  Mulliken Population Analysis
  Atom      Charge (e)              h+              e-           Del q
  --------------------------------------------------------------------
   1 C       -0.378378        0.087729       -0.116669       -0.028940
   2 C       -0.378378        0.087729       -0.116669       -0.028940
   3 H        0.151014        0.016445       -0.016911       -0.000466
   4 H        0.151014        0.016445       -0.016911       -0.000466
   5 H        0.035078        0.019308       -0.011603        0.007705
   6 H        0.035078        0.019308       -0.011603        0.007705
   7 H       -0.615428        0.057637       -0.014236        0.043401
  --------------------------------------------------------------------
  Sum:       -1.000000        0.304601       -0.304601        0.000000
  
  Multipole moment analysis of the density matrix
    Molecular charge:                      -1.000000
    Number of electrons:                   18.000000
      Center of electronic charge [Ang]: [  0.000000,  -0.000000,   0.131232]
    Total nuclear charge:                  17.000000
      Center of nuclear charge [Ang]:    [ -0.000000,   0.000000,  -0.000000]
    Dipole moment [D]:                     11.346015
      Cartesian components [D]:          [ -0.000000,   0.000000, -11.346015]
    RMS size of the density [Ang]:         1.574905
      Cartesian components [Ang]:        [  0.909228,   0.511291,   1.179920]
  
  Exciton analysis of the difference density matrix
    <r_h> [Ang]:                  [ -0.000000,  -0.000000,   0.315712]
    <r_e> [Ang]:                  [  0.000000,  -0.000000,   0.043154]
    |<r_e - r_h>| [Ang]:            0.272559
    Hole size [Ang]:                1.922128
      Cartesian components [Ang]: [  0.967136,   0.771946,   1.470825]
    Electron size [Ang]:            1.963066
      Cartesian components [Ang]: [  1.154395,   0.820400,   1.359391]
--------------------------------------------------------------------------------
Less singles guess vectors found than requested: 85 (found), 100 (requested).
Adjusting number of doubles guess vectors to 15.
  Starting Davidson for singlet states of irrep A2 ... 
--------------------------------------------------------------------------------
   It NVec Conv  Avg. Norm  Max. Norm  Conv. states           Remark
--------------------------------------------------------------------------------
       100    0  9.733e-02  4.478e-01  0.1148 n n n n n n n n Guess.
    1  110    0  5.326e-03  2.756e-02  0.0864 n n n n n n n n 
    2  120    0  6.723e-04  4.125e-03  0.0862 n n n n n n n n 
    3  130    1  2.792e-04  2.725e-03  0.0862 n n n n n n n n 
    4  140    7  1.766e-05  1.755e-04  0.0862 y y y y y n n y 
    5  150   10  6.598e-07  6.577e-06  0.0862 y y y y y y y y Converged.
--------------------------------------------------------------------------------
  Davidson Summary: 
 ------------------------------------------------------------
  State  0: excitation energy =   0.0862 a.u.   (converged)
  State  1: excitation energy =   0.1418 a.u.   (converged)
  State  2: excitation energy =   0.2399 a.u.   (converged)
  State  3: excitation energy =   0.3003 a.u.   (converged)
  State  4: excitation energy =   0.3496 a.u.   (converged)
  State  5: excitation energy =   0.3525 a.u.   (converged)
  State  6: excitation energy =   0.3608 a.u.   (converged)
  State  7: excitation energy =   0.3655 a.u.   (converged)
  State  8: excitation energy =   0.4027 a.u.   (converged)
  State  9: excitation energy =   0.4333 a.u.   (converged)
 ------------------------------------------------------------


--------------------------------------------------------------------------------
                   State-averaged natural transition orbitals
--------------------------------------------------------------------------------
--------------------------------------------------------------------------------

--------------------------------------------------------------------------------
                             Excited State Summary
--------------------------------------------------------------------------------
--------------------------------------------------------------------------------

  Excited state 1 (singlet, A2)                                    [converged]
  ----------------------------------------------------------------------------
  Term symbol:  1 (1) A2                                    R^2 =  4.26834e-09

  Total energy:                                            -78.7304793553 a.u.
  Excitation energy:                                               2.346557 eV

  Osc. strength:                                                      0.000000
  Trans. dip. moment [a.u.]:           [  -0.000000,    0.000000,   -0.000000]
  <i|r^2|0> [a.u.]:                    [  -0.000000,   -0.000000,   -0.000000]

  Dip. moment [a.u.]:                  [  -0.000000,   -0.000000,    0.604172]
  Total dipole [Debye]:                                               1.535653
  <r^2> [a.u.]:                        [  71.064131,   33.976752,   65.582782]
  Total <r^2> [a.u.]:                                               170.623665

  V1^2 = 0.9248, V2^2 = 0.0752

  Important amplitudes:
      occ i      occ j       vir a       vir b          v   
    ---------------------------------------------------------
     5 (A1) A               1 (A2) A                  0.6296
     5 (A1) A               2 (A2) A                  0.2540
    ---------------------------------------------------------

  Density matrix analysis:
  ------------------------
  NOs
    Occupation of frontier NOs:
       0.9890   0.9940
    Number of electrons: 18.000000
    Number of unpaired electrons: n_u =  2.41627, n_u,nl =  2.04597
    NO participation ratio (PR_NO):  2.951288
  
  
  Mulliken Population Analysis
  Atom      Charge (e)              h+              e-           Del q
  --------------------------------------------------------------------
   1 C       -0.669034        0.248900       -0.539556       -0.290656
   2 C       -0.669034        0.248900       -0.539556       -0.290656
   3 H        0.106688        0.023682       -0.068008       -0.044326
   4 H        0.106688        0.023682       -0.068008       -0.044326
   5 H        0.048019        0.013133       -0.000192        0.012941
   6 H        0.048019        0.013133       -0.000192        0.012941
   7 H        0.028654        0.685566       -0.041483        0.644083
  --------------------------------------------------------------------
  Sum:       -1.000000        1.256996       -1.256996        0.000000
  
  Multipole moment analysis of the density matrix
    Molecular charge:                      -1.000000
    Number of electrons:                   18.000000
      Center of electronic charge [Ang]: [  0.000000,   0.000000,  -0.017762]
    Total nuclear charge:                  17.000000
      Center of nuclear charge [Ang]:    [ -0.000000,   0.000000,  -0.000000]
    Dipole moment [D]:                     1.535653
      Cartesian components [D]:          [ -0.000000,  -0.000000,   1.535653]
    RMS size of the density [Ang]:         1.629141
      Cartesian components [Ang]:        [  1.051454,   0.727036,   1.009933]
  
  Exciton analysis of the difference density matrix
    <r_h> [Ang]:                  [  0.000000,   0.000000,   2.147221]
    <r_e> [Ang]:                  [  0.000000,   0.000000,   0.013651]
    |<r_e - r_h>| [Ang]:            2.133571
    Hole size [Ang]:                2.341272
      Cartesian components [Ang]: [  1.065951,   0.997993,   1.830112]
    Electron size [Ang]:            3.512587
      Cartesian components [Ang]: [  2.264831,   2.195840,   1.545021]

  Transition density matrix analysis:
  -----------------------------------
  
  CT numbers (Mulliken)
    omega =     0.9090
    <Phe> =     0.0009
  
  Exciton analysis of the transition density matrix
    Trans. dipole moment [D]:             0.000000
      Cartesian components [D]:         [ -0.000000,   0.000000,  -0.000000]
    <r_h> [Ang]:                        [  0.000000,   0.000000,   2.789139]
    <r_e> [Ang]:                        [  0.000000,   0.000000,  -0.189034]
    |<r_e - r_h>| [Ang]:                  2.978173
    Hole size [Ang]:                      1.685833
      Cartesian components [Ang]:       [  0.843104,   0.827417,   1.202743]
    Electron size [Ang]:                  3.695913
      Cartesian components [Ang]:       [  2.449384,   2.395789,   1.385816]
    RMS electron-hole separation [Ang]:   5.035394
      Cartesian components [Ang]:       [  2.587712,   2.534278,   3.498053]
    Covariance(r_h, r_e) [Ang^2]:         0.008066
    Correlation coefficient:              0.001294
    Center-of-mass size [Ang]:            2.032114
      Cartesian components [Ang]:       [  1.296569,   1.267506,   0.917510]

  Decomposition into state-averaged NTOs
    H- 1 -> L+ 0: -0.5384 ( 58.0%)
    H- 1 -> L+ 1: -0.3910 ( 30.6%)
    H- 1 -> L+ 6:  0.1077 (  2.3%)
                   omega =  90.9%
  ----------------------------------------------------------------------------


  Excited state 2 (singlet, A2)                                    [converged]
  ----------------------------------------------------------------------------
  Term symbol:  2 (1) A2                                    R^2 =  9.65410e-09

  Total energy:                                            -78.6749574732 a.u.
  Excitation energy:                                               3.857384 eV

  Osc. strength:                                                      0.000000
  Trans. dip. moment [a.u.]:           [   0.000000,    0.000000,   -0.000000]
  <i|r^2|0> [a.u.]:                    [  -0.000000,   -0.000000,   -0.000000]

  Dip. moment [a.u.]:                  [  -0.000000,   -0.000000,    0.619622]
  Total dipole [Debye]:                                               1.574923
  <r^2> [a.u.]:                        [  67.367828,   29.981934,   64.794522]
  Total <r^2> [a.u.]:                                               162.144284

  V1^2 = 0.9161, V2^2 = 0.0839

  Important amplitudes:
      occ i      occ j       vir a       vir b          v   
    ---------------------------------------------------------
     5 (A1) A               2 (A2) A                 -0.6122
     5 (A1) A               1 (A2) A                  0.2591
    ---------------------------------------------------------

  Density matrix analysis:
  ------------------------
  NOs
    Occupation of frontier NOs:
       0.9880   0.9904
    Number of electrons: 18.000000
    Number of unpaired electrons: n_u =  2.41776, n_u,nl =  2.04476
    NO participation ratio (PR_NO):  2.969191
  
  
  Mulliken Population Analysis
  Atom      Charge (e)              h+              e-           Del q
  --------------------------------------------------------------------
   1 C       -0.621644        0.294426       -0.537691       -0.243266
   2 C       -0.621644        0.294426       -0.537691       -0.243266
   3 H        0.084903        0.025300       -0.091411       -0.066111
   4 H        0.084903        0.025300       -0.091411       -0.066111
   5 H        0.018045        0.007134       -0.024168       -0.017033
   6 H        0.018045        0.007134       -0.024168       -0.017033
   7 H        0.037392        0.688109       -0.035289        0.652820
  --------------------------------------------------------------------
  Sum:       -1.000000        1.341830       -1.341830        0.000000
  
  Multipole moment analysis of the density matrix
    Molecular charge:                      -1.000000
    Number of electrons:                   18.000000
      Center of electronic charge [Ang]: [  0.000000,   0.000000,  -0.018216]
    Total nuclear charge:                  17.000000
      Center of nuclear charge [Ang]:    [ -0.000000,   0.000000,  -0.000000]
    Dipole moment [D]:                     1.574922
      Cartesian components [D]:          [ -0.000000,  -0.000000,   1.574922]
    RMS size of the density [Ang]:         1.588134
      Cartesian components [Ang]:        [  1.023743,   0.682959,   1.003835]
  
  Exciton analysis of the difference density matrix
    <r_h> [Ang]:                  [  0.000000,   0.000000,   1.997251]
    <r_e> [Ang]:                  [  0.000000,   0.000000,  -0.007523]
    |<r_e - r_h>| [Ang]:            2.004775
    Hole size [Ang]:                2.312526
      Cartesian components [Ang]: [  1.035294,   0.951770,   1.835777]
    Electron size [Ang]:            3.109900
      Cartesian components [Ang]: [  2.010273,   1.912076,   1.405080]

  Transition density matrix analysis:
  -----------------------------------
  
  CT numbers (Mulliken)
    omega =     0.8950
    <Phe> =    -0.0001
  
  Exciton analysis of the transition density matrix
    Trans. dipole moment [D]:             0.000000
      Cartesian components [D]:         [  0.000000,   0.000000,  -0.000000]
    <r_h> [Ang]:                        [ -0.000000,   0.000000,   2.785189]
    <r_e> [Ang]:                        [  0.000000,   0.000000,  -0.188491]
    |<r_e - r_h>| [Ang]:                  2.973681
    Hole size [Ang]:                      1.686570
      Cartesian components [Ang]:       [  0.841671,   0.825538,   1.206066]
    Electron size [Ang]:                  3.308684
      Cartesian components [Ang]:       [  2.198032,   2.138797,   1.241609]
    RMS electron-hole separation [Ang]:   4.755798
      Cartesian components [Ang]:       [  2.350678,   2.292085,   3.440679]
    Covariance(r_h, r_e) [Ang^2]:         0.008534
    Correlation coefficient:              0.001529
    Center-of-mass size [Ang]:            1.858022
      Cartesian components [Ang]:       [  1.178327,   1.146547,   0.865574]

  Decomposition into state-averaged NTOs
    H- 1 -> L+ 1: -0.5431 ( 59.0%)
    H- 1 -> L+ 0:  0.3888 ( 30.2%)
                   omega =  89.5%
  ----------------------------------------------------------------------------


  Excited state 3 (singlet, A2)                                    [converged]
  ----------------------------------------------------------------------------
  Term symbol:  3 (1) A2                                    R^2 =  1.09768e-08

  Total energy:                                            -78.5768471301 a.u.
  Excitation energy:                                               6.527102 eV

  Osc. strength:                                                      0.000000
  Trans. dip. moment [a.u.]:           [   0.000000,   -0.000000,   -0.000000]
  <i|r^2|0> [a.u.]:                    [  -0.000000,   -0.000000,   -0.000000]

  Dip. moment [a.u.]:                  [   0.000000,   -0.000000,   -2.400315]
  Total dipole [Debye]:                                               6.100993
  <r^2> [a.u.]:                        [  88.792661,   23.620441,  101.367590]
  Total <r^2> [a.u.]:                                               213.780692

  V1^2 = 0.9421, V2^2 = 0.0579

  Important amplitudes:
      occ i      occ j       vir a       vir b          v   
    ---------------------------------------------------------
     1 (B2) A               4 (B1) A                  0.6689
     1 (B2) A               6 (B1) A                 -0.1327
    ---------------------------------------------------------

  Density matrix analysis:
  ------------------------
  NOs
    Occupation of frontier NOs:
       0.9824   0.9944
    Number of electrons: 18.000000
    Number of unpaired electrons: n_u =  2.34883, n_u,nl =  2.02906
    NO participation ratio (PR_NO):  2.812390
  
  
  Mulliken Population Analysis
  Atom      Charge (e)              h+              e-           Del q
  --------------------------------------------------------------------
   1 C       -0.504373        0.551801       -0.677795       -0.125995
   2 C       -0.504373        0.551801       -0.677795       -0.125995
   3 H        0.216106        0.072471       -0.007379        0.065092
   4 H        0.216106        0.072471       -0.007379        0.065092
   5 H        0.093709        0.116937       -0.058306        0.058631
   6 H        0.093709        0.116937       -0.058306        0.058631
   7 H       -0.610884        0.035430       -0.030886        0.004544
  --------------------------------------------------------------------
  Sum:       -1.000000        1.517846       -1.517846        0.000000
  
  Multipole moment analysis of the density matrix
    Molecular charge:                      -1.000000
    Number of electrons:                   18.000000
      Center of electronic charge [Ang]: [ -0.000000,   0.000000,   0.070566]
    Total nuclear charge:                  17.000000
      Center of nuclear charge [Ang]:    [ -0.000000,   0.000000,  -0.000000]
    Dipole moment [D]:                     6.100991
      Cartesian components [D]:          [  0.000000,  -0.000000,  -6.100991]
    RMS size of the density [Ang]:         1.822316
      Cartesian components [Ang]:        [  1.175313,   0.606190,   1.253798]
  
  Exciton analysis of the difference density matrix
    <r_h> [Ang]:                  [ -0.000000,   0.000000,  -0.143461]
    <r_e> [Ang]:                  [ -0.000000,   0.000000,  -0.862891]
    |<r_e - r_h>| [Ang]:            0.719430
    Hole size [Ang]:                1.812549
      Cartesian components [Ang]: [  1.098864,   0.916875,   1.112283]
    Electron size [Ang]:            3.519048
      Cartesian components [Ang]: [  2.790198,   1.448540,   1.581210]

  Transition density matrix analysis:
  -----------------------------------
  
  CT numbers (Mulliken)
    omega =     0.9116
    <Phe> =    -0.0020
  
  Exciton analysis of the transition density matrix
    Trans. dipole moment [D]:             0.000000
      Cartesian components [D]:         [  0.000000,  -0.000000,  -0.000000]
    <r_h> [Ang]:                        [ -0.000000,  -0.000000,  -0.196419]
    <r_e> [Ang]:                        [ -0.000000,   0.000000,  -1.316914]
    |<r_e - r_h>| [Ang]:                  1.120495
    Hole size [Ang]:                      1.275259
      Cartesian components [Ang]:       [  0.763334,   0.879796,   0.519196]
    Electron size [Ang]:                  4.084468
      Cartesian components [Ang]:       [  3.352115,   1.717044,   1.580494]
    RMS electron-hole separation [Ang]:   4.416294
      Cartesian components [Ang]:       [  3.432296,   1.923878,   2.005417]
    Covariance(r_h, r_e) [Ang^2]:         0.030508
    Correlation coefficient:              0.005857
    Center-of-mass size [Ang]:            2.143022
      Cartesian components [Ang]:       [  1.721776,   0.967375,   0.831996]

  Decomposition into state-averaged NTOs
    H- 0 -> L+ 5:  0.5147 ( 53.0%)
    H- 0 -> L+ 3: -0.3727 ( 27.8%)
    H- 0 -> L+ 4:  0.2274 ( 10.3%)
                   omega =  91.2%
  ----------------------------------------------------------------------------


  Excited state 4 (singlet, A2)                                    [converged]
  ----------------------------------------------------------------------------
  Term symbol:  4 (1) A2                                    R^2 =  2.43759e-08

  Total energy:                                            -78.5163838241 a.u.
  Excitation energy:                                               8.172393 eV

  Osc. strength:                                                      0.000000
  Trans. dip. moment [a.u.]:           [   0.000000,   -0.000000,    0.000000]
  <i|r^2|0> [a.u.]:                    [   0.000000,    0.000000,    0.000000]

  Dip. moment [a.u.]:                  [   0.000000,    0.000000,   -5.940217]
  Total dipole [Debye]:                                              15.098529
  <r^2> [a.u.]:                        [  82.822519,   22.914750,  112.477698]
  Total <r^2> [a.u.]:                                               218.214967

  V1^2 = 0.9418, V2^2 = 0.0582

  Important amplitudes:
      occ i      occ j       vir a       vir b          v   
    ---------------------------------------------------------
     1 (B2) A               5 (B1) A                 -0.6756
     1 (B2) A               7 (B1) A                  0.0909
    ---------------------------------------------------------

  Density matrix analysis:
  ------------------------
  NOs
    Occupation of frontier NOs:
       0.9833   0.9964
    Number of electrons: 18.000000
    Number of unpaired electrons: n_u =  2.34558, n_u,nl =  2.02838
    NO participation ratio (PR_NO):  2.796876
  
  
  Mulliken Population Analysis
  Atom      Charge (e)              h+              e-           Del q
  --------------------------------------------------------------------
   1 C       -0.482867        0.543727       -0.648216       -0.104489
   2 C       -0.482867        0.543727       -0.648216       -0.104489
   3 H        0.167963        0.086368       -0.069420        0.016949
   4 H        0.167963        0.086368       -0.069420        0.016949
   5 H        0.101534        0.102506       -0.036050        0.066456
   6 H        0.101534        0.102506       -0.036050        0.066456
   7 H       -0.573261        0.054347       -0.012179        0.042168
  --------------------------------------------------------------------
  Sum:       -1.000000        1.519549       -1.519549       -0.000000
  
  Multipole moment analysis of the density matrix
    Molecular charge:                      -1.000000
    Number of electrons:                   18.000000
      Center of electronic charge [Ang]: [ -0.000000,  -0.000000,   0.174635]
    Total nuclear charge:                  17.000000
      Center of nuclear charge [Ang]:    [ -0.000000,   0.000000,  -0.000000]
    Dipole moment [D]:                     15.098524
      Cartesian components [D]:          [  0.000000,   0.000000, -15.098524]
    RMS size of the density [Ang]:         1.834204
      Cartesian components [Ang]:        [  1.135113,   0.597066,   1.311234]
  
  Exciton analysis of the difference density matrix
    <r_h> [Ang]:                  [ -0.000000,   0.000000,  -0.069011]
    <r_e> [Ang]:                  [ -0.000000,  -0.000000,   0.445122]
    |<r_e - r_h>| [Ang]:            0.514134
    Hole size [Ang]:                1.773605
      Cartesian components [Ang]: [  1.073595,   0.890603,   1.095398]
    Electron size [Ang]:            3.685217
      Cartesian components [Ang]: [  2.573468,   1.385397,   2.244719]

  Transition density matrix analysis:
  -----------------------------------
  
  CT numbers (Mulliken)
    omega =     0.9112
    <Phe> =    -0.0005
  
  Exciton analysis of the transition density matrix
    Trans. dipole moment [D]:             0.000000
      Cartesian components [D]:         [  0.000000,  -0.000000,   0.000000]
    <r_h> [Ang]:                        [ -0.000000,  -0.000000,  -0.195820]
    <r_e> [Ang]:                        [ -0.000000,  -0.000000,   0.669467]
    |<r_e - r_h>| [Ang]:                  0.865287
    Hole size [Ang]:                      1.275372
      Cartesian components [Ang]:       [  0.763221,   0.880087,   0.519150]
    Electron size [Ang]:                  4.377248
      Cartesian components [Ang]:       [  3.082259,   1.640564,   2.639797]
    RMS electron-hole separation [Ang]:   4.636916
      Cartesian components [Ang]:       [  3.170447,   1.861189,   2.825815]
    Covariance(r_h, r_e) [Ang^2]:         0.017303
    Correlation coefficient:              0.003099
    Center-of-mass size [Ang]:            2.281528
      Cartesian components [Ang]:       [  1.590119,   0.931126,   1.345323]

  Decomposition into state-averaged NTOs
    H- 0 -> L+ 4:  0.6345 ( 80.5%)
    H- 0 -> L+ 5: -0.2048 (  8.4%)
    H- 0 -> L+ 3:  0.1045 (  2.2%)
                   omega =  91.1%
  ----------------------------------------------------------------------------


  Excited state 5 (singlet, A2)                                    [converged]
  ----------------------------------------------------------------------------
  Term symbol:  5 (1) A2                                    R^2 =  1.11204e-07

  Total energy:                                            -78.4671015490 a.u.
  Excitation energy:                                               9.513431 eV

  Osc. strength:                                                      0.000000
  Trans. dip. moment [a.u.]:           [   0.000000,   -0.000000,    0.000000]
  <i|r^2|0> [a.u.]:                    [  -0.000000,    0.000000,   -0.000000]

  Dip. moment [a.u.]:                  [  -0.000000,   -0.000000,    0.504242]
  Total dipole [Debye]:                                               1.281655
  <r^2> [a.u.]:                        [  65.251485,   28.572724,   64.726109]
  Total <r^2> [a.u.]:                                               158.550317

  V1^2 = 0.9142, V2^2 = 0.0858

  Important amplitudes:
      occ i      occ j       vir a       vir b          v   
    ---------------------------------------------------------
     5 (A1) A               3 (A2) A                 -0.6508
     5 (A1) A               2 (A2) A                  0.1396
    ---------------------------------------------------------

  Density matrix analysis:
  ------------------------
  NOs
    Occupation of frontier NOs:
       0.9528   1.0072
    Number of electrons: 18.000000
    Number of unpaired electrons: n_u =  2.48438, n_u,nl =  2.07460
    NO participation ratio (PR_NO):  3.224141
  
  
  Mulliken Population Analysis
  Atom      Charge (e)              h+              e-           Del q
  --------------------------------------------------------------------
   1 C       -0.640768        0.265383       -0.527774       -0.262390
   2 C       -0.640768        0.265383       -0.527774       -0.262390
   3 H        0.097480        0.018259       -0.071793       -0.053534
   4 H        0.097480        0.018259       -0.071793       -0.053534
   5 H        0.032867        0.005938       -0.008149       -0.002211
   6 H        0.032867        0.005938       -0.008149       -0.002211
   7 H        0.020842        0.671860       -0.035589        0.636271
  --------------------------------------------------------------------
  Sum:       -1.000000        1.251021       -1.251021       -0.000000
  
  Multipole moment analysis of the density matrix
    Molecular charge:                      -1.000000
    Number of electrons:                   18.000000
      Center of electronic charge [Ang]: [  0.000000,   0.000000,  -0.014824]
    Total nuclear charge:                  17.000000
      Center of nuclear charge [Ang]:    [ -0.000000,   0.000000,  -0.000000]
    Dipole moment [D]:                     1.281655
      Cartesian components [D]:          [ -0.000000,  -0.000000,   1.281655]
    RMS size of the density [Ang]:         1.570468
      Cartesian components [Ang]:        [  1.007535,   0.666716,   1.003361]
  
  Exciton analysis of the difference density matrix
    <r_h> [Ang]:                  [  0.000000,   0.000000,   2.099197]
    <r_e> [Ang]:                  [  0.000000,   0.000000,  -0.002295]
    |<r_e - r_h>| [Ang]:            2.101491
    Hole size [Ang]:                2.303289
      Cartesian components [Ang]: [  1.040536,   0.965889,   1.813694]
    Electron size [Ang]:            3.044065
      Cartesian components [Ang]: [  1.947792,   1.888730,   1.380268]

  Transition density matrix analysis:
  -----------------------------------
  
  CT numbers (Mulliken)
    omega =     0.8999
    <Phe> =    -0.0014
  
  Exciton analysis of the transition density matrix
    Trans. dipole moment [D]:             0.000000
      Cartesian components [D]:         [  0.000000,  -0.000000,   0.000000]
    <r_h> [Ang]:                        [ -0.000000,  -0.000000,   2.711762]
    <r_e> [Ang]:                        [ -0.000000,   0.000000,  -0.190849]
    |<r_e - r_h>| [Ang]:                  2.902612
    Hole size [Ang]:                      1.739179
      Cartesian components [Ang]:       [  0.847110,   0.818597,   1.279472]
    Electron size [Ang]:                  3.145922
      Cartesian components [Ang]:       [  2.074944,   2.046603,   1.184420]
    RMS electron-hole separation [Ang]:   4.617011
      Cartesian components [Ang]:       [  2.239673,   2.200998,   3.384710]
    Covariance(r_h, r_e) [Ang^2]:         0.014969
    Correlation coefficient:              0.002736
    Center-of-mass size [Ang]:            1.799410
      Cartesian components [Ang]:       [  1.121365,   1.103741,   0.873026]

  Decomposition into state-averaged NTOs
    H- 1 -> L+ 6:  0.6537 ( 85.5%)
    H- 2 -> L+ 0: -0.0992 (  2.0%)
    H- 1 -> L+ 1:  0.0931 (  1.7%)
                   omega =  90.0%
  ----------------------------------------------------------------------------


  Excited state 6 (singlet, A2)                                    [converged]
  ----------------------------------------------------------------------------
  Term symbol:  6 (1) A2                                    R^2 =  2.83541e-07

  Total energy:                                            -78.4641790070 a.u.
  Excitation energy:                                               9.592958 eV

  Osc. strength:                                                      0.000000
  Trans. dip. moment [a.u.]:           [   0.000000,   -0.000000,    0.000000]
  <i|r^2|0> [a.u.]:                    [  -0.000000,    0.000000,   -0.000000]

  Dip. moment [a.u.]:                  [  -0.000000,    0.000000,   -4.269331]
  Total dipole [Debye]:                                              10.851560
  <r^2> [a.u.]:                        [  55.179220,   20.882045,   89.877316]
  Total <r^2> [a.u.]:                                               165.938581

  V1^2 = 0.9522, V2^2 = 0.0478

  Important amplitudes:
      occ i      occ j       vir a       vir b          v   
    ---------------------------------------------------------
     4 (A1) A               2 (A2) A                 -0.5494
     4 (A1) A               1 (A2) A                 -0.3422
    ---------------------------------------------------------

  Density matrix analysis:
  ------------------------
  NOs
    Occupation of frontier NOs:
       0.9543   1.0410
    Number of electrons: 18.000000
    Number of unpaired electrons: n_u =  2.40995, n_u,nl =  2.05132
    NO participation ratio (PR_NO):  3.146506
  
  
  Mulliken Population Analysis
  Atom      Charge (e)              h+              e-           Del q
  --------------------------------------------------------------------
   1 C       -0.510492        0.432500       -0.564614       -0.132114
   2 C       -0.510492        0.432500       -0.564614       -0.132114
   3 H        0.208233        0.066800       -0.009581        0.057219
   4 H        0.208233        0.066800       -0.009581        0.057219
   5 H        0.101134        0.073089       -0.007033        0.066056
   6 H        0.101134        0.073089       -0.007033        0.066056
   7 H       -0.597751        0.020692       -0.003014        0.017678
  --------------------------------------------------------------------
  Sum:       -1.000000        1.165470       -1.165470        0.000000
  
  Multipole moment analysis of the density matrix
    Molecular charge:                      -1.000000
    Number of electrons:                   18.000000
      Center of electronic charge [Ang]: [  0.000000,  -0.000000,   0.125513]
    Total nuclear charge:                  17.000000
      Center of nuclear charge [Ang]:    [ -0.000000,   0.000000,  -0.000000]
    Dipole moment [D]:                     10.851557
      Cartesian components [D]:          [ -0.000000,   0.000000, -10.851557]
    RMS size of the density [Ang]:         1.601804
      Cartesian components [Ang]:        [  0.926515,   0.569969,   1.175789]
  
  Exciton analysis of the difference density matrix
    <r_h> [Ang]:                  [ -0.000000,  -0.000000,  -0.110067]
    <r_e> [Ang]:                  [ -0.000000,  -0.000000,  -0.198395]
    |<r_e - r_h>| [Ang]:            0.088328
    Hole size [Ang]:                1.548749
      Cartesian components [Ang]: [  1.124990,   0.588601,   0.886888]
    Electron size [Ang]:            1.915316
      Cartesian components [Ang]: [  1.325037,   1.151667,   0.765752]

  Transition density matrix analysis:
  -----------------------------------
  
  CT numbers (Mulliken)
    omega =     0.9206
    <Phe> =    -0.0144
  
  Exciton analysis of the transition density matrix
    Trans. dipole moment [D]:             0.000000
      Cartesian components [D]:         [  0.000000,  -0.000000,   0.000000]
    <r_h> [Ang]:                        [  0.000000,  -0.000000,  -0.093473]
    <r_e> [Ang]:                        [  0.000000,  -0.000000,  -0.208111]
    |<r_e - r_h>| [Ang]:                  0.114638
    Hole size [Ang]:                      1.379869
      Cartesian components [Ang]:       [  1.065257,   0.435422,   0.761363]
    Electron size [Ang]:                  1.982699
      Cartesian components [Ang]:       [  1.382567,   1.209301,   0.746456]
    RMS electron-hole separation [Ang]:   2.401018
      Cartesian components [Ang]:       [  1.722989,   1.284393,   1.070763]
    Covariance(r_h, r_e) [Ang^2]:         0.041695
    Correlation coefficient:              0.015240
    Center-of-mass size [Ang]:            1.216401
      Cartesian components [Ang]:       [  0.883719,   0.643105,   0.533935]

  Decomposition into state-averaged NTOs
    H- 2 -> L+ 0:  0.6627 ( 87.8%)
    H- 1 -> L+ 6:  0.0999 (  2.0%)
                   omega =  92.1%
  ----------------------------------------------------------------------------


  Excited state 7 (singlet, A2)                                    [converged]
  ----------------------------------------------------------------------------
  Term symbol:  7 (1) A2                                    R^2 =  3.10637e-07

  Total energy:                                            -78.4558819505 a.u.
  Excitation energy:                                               9.818732 eV

  Osc. strength:                                                      0.000000
  Trans. dip. moment [a.u.]:           [  -0.000000,    0.000000,   -0.000000]
  <i|r^2|0> [a.u.]:                    [   0.000000,    0.000000,    0.000000]

  Dip. moment [a.u.]:                  [   0.000000,   -0.000000,   -4.354127]
  Total dipole [Debye]:                                              11.067090
  <r^2> [a.u.]:                        [  59.030493,   47.849949,   95.940494]
  Total <r^2> [a.u.]:                                               202.820936

  V1^2 = 0.9339, V2^2 = 0.0661

  Important amplitudes:
      occ i      occ j       vir a       vir b          v   
    ---------------------------------------------------------
     3 (B1) A               2 (B2) A                  0.6719
     3 (B1) A               3 (B2) A                  0.1184
    ---------------------------------------------------------

  Density matrix analysis:
  ------------------------
  NOs
    Occupation of frontier NOs:
       0.9949   1.0213
    Number of electrons: 18.000000
    Number of unpaired electrons: n_u =  2.48979, n_u,nl =  2.07741
    NO participation ratio (PR_NO):  3.149034
  
  
  Mulliken Population Analysis
  Atom      Charge (e)              h+              e-           Del q
  --------------------------------------------------------------------
   1 C       -0.710954        0.305757       -0.638333       -0.332576
   2 C       -0.710954        0.305757       -0.638333       -0.332576
   3 H        0.301198        0.170216       -0.020033        0.150184
   4 H        0.301198        0.170216       -0.020033        0.150184
   5 H        0.211415        0.186436       -0.010100        0.176337
   6 H        0.211415        0.186436       -0.010100        0.176337
   7 H       -0.603317        0.034851       -0.022740        0.012111
  --------------------------------------------------------------------
  Sum:       -1.000000        1.359670       -1.359670        0.000000
  
  Multipole moment analysis of the density matrix
    Molecular charge:                      -1.000000
    Number of electrons:                   18.000000
      Center of electronic charge [Ang]: [ -0.000000,   0.000000,   0.128006]
    Total nuclear charge:                  17.000000
      Center of nuclear charge [Ang]:    [ -0.000000,   0.000000,  -0.000000]
    Dipole moment [D]:                     11.067086
      Cartesian components [D]:          [  0.000000,  -0.000000, -11.067086]
    RMS size of the density [Ang]:         1.771702
      Cartesian components [Ang]:        [  0.958304,   0.862791,   1.214979]
  
  Exciton analysis of the difference density matrix
    <r_h> [Ang]:                  [  0.000000,   0.000000,  -0.073309]
    <r_e> [Ang]:                  [ -0.000000,   0.000000,  -0.116018]
    |<r_e - r_h>| [Ang]:            0.042710
    Hole size [Ang]:                1.875614
      Cartesian components [Ang]: [  1.219150,   0.706564,   1.237888]
    Electron size [Ang]:            3.495380
      Cartesian components [Ang]: [  1.643054,   2.625508,   1.620113]

  Transition density matrix analysis:
  -----------------------------------
  
  CT numbers (Mulliken)
    omega =     0.9182
    <Phe> =    -0.0005
  
  Exciton analysis of the transition density matrix
    Trans. dipole moment [D]:             0.000000
      Cartesian components [D]:         [ -0.000000,   0.000000,  -0.000000]
    <r_h> [Ang]:                        [  0.000000,   0.000000,  -0.143747]
    <r_e> [Ang]:                        [ -0.000000,  -0.000000,  -0.189444]
    |<r_e - r_h>| [Ang]:                  0.045697
    Hole size [Ang]:                      1.521545
      Cartesian components [Ang]:       [  1.126032,   0.414480,   0.935604]
    Electron size [Ang]:                  3.925721
      Cartesian components [Ang]:       [  1.798212,   3.022071,   1.744938]
    RMS electron-hole separation [Ang]:   4.180881
      Cartesian components [Ang]:       [  2.062981,   3.049929,   1.980356]
    Covariance(r_h, r_e) [Ang^2]:         0.124355
    Correlation coefficient:              0.020819
    Center-of-mass size [Ang]:            2.119852
      Cartesian components [Ang]:       [  1.089397,   1.525397,   0.990026]

  Decomposition into state-averaged NTOs
    H- 3 -> L+ 2:  0.6767 ( 91.6%)
                   omega =  91.8%
  ----------------------------------------------------------------------------


  Excited state 8 (singlet, A2)                                    [converged]
  ----------------------------------------------------------------------------
  Term symbol:  8 (1) A2                                    R^2 =  2.94267e-07

  Total energy:                                            -78.4512612478 a.u.
  Excitation energy:                                               9.944468 eV

  Osc. strength:                                                      0.000000
  Trans. dip. moment [a.u.]:           [   0.000000,   -0.000000,    0.000000]
  <i|r^2|0> [a.u.]:                    [  -0.000000,   -0.000000,   -0.000000]

  Dip. moment [a.u.]:                  [   0.000000,   -0.000000,   -3.162471]
  Total dipole [Debye]:                                               8.038201
  <r^2> [a.u.]:                        [  80.856855,   24.607297,   99.965996]
  Total <r^2> [a.u.]:                                               205.430149

  V1^2 = 0.9450, V2^2 = 0.0550

  Important amplitudes:
      occ i      occ j       vir a       vir b          v   
    ---------------------------------------------------------
     1 (B2) A               6 (B1) A                 -0.6492
     1 (B2) A               4 (B1) A                 -0.1400
    ---------------------------------------------------------

  Density matrix analysis:
  ------------------------
  NOs
    Occupation of frontier NOs:
       0.9704   0.9990
    Number of electrons: 18.000000
    Number of unpaired electrons: n_u =  2.38574, n_u,nl =  2.03870
    NO participation ratio (PR_NO):  2.918570
  
  
  Mulliken Population Analysis
  Atom      Charge (e)              h+              e-           Del q
  --------------------------------------------------------------------
   1 C       -0.587207        0.527896       -0.736725       -0.208829
   2 C       -0.587207        0.527896       -0.736725       -0.208829
   3 H        0.150347        0.061881       -0.062547       -0.000667
   4 H        0.150347        0.061881       -0.062547       -0.000667
   5 H        0.238954        0.109485        0.094391        0.203876
   6 H        0.238954        0.109485        0.094391        0.203876
   7 H       -0.604189        0.032183       -0.020944        0.011239
  --------------------------------------------------------------------
  Sum:       -1.000000        1.430707       -1.430707        0.000000
  
  Multipole moment analysis of the density matrix
    Molecular charge:                      -1.000000
    Number of electrons:                   18.000000
      Center of electronic charge [Ang]: [ -0.000000,   0.000000,   0.092973]
    Total nuclear charge:                  17.000000
      Center of nuclear charge [Ang]:    [ -0.000000,   0.000000,  -0.000000]
    Dipole moment [D]:                     8.038199
      Cartesian components [D]:          [  0.000000,  -0.000000,  -8.038199]
    RMS size of the density [Ang]:         1.785290
      Cartesian components [Ang]:        [  1.121562,   0.618724,   1.243600]
  
  Exciton analysis of the difference density matrix
    <r_h> [Ang]:                  [ -0.000000,  -0.000000,  -0.146743]
    <r_e> [Ang]:                  [ -0.000000,   0.000000,  -0.628092]
    |<r_e - r_h>| [Ang]:            0.481349
    Hole size [Ang]:                1.771298
      Cartesian components [Ang]: [  1.088293,   0.909975,   1.060689]
    Electron size [Ang]:            3.398634
      Cartesian components [Ang]: [  2.570887,   1.534736,   1.608055]

  Transition density matrix analysis:
  -----------------------------------
  
  CT numbers (Mulliken)
    omega =     0.9138
    <Phe> =    -0.0035
  
  Exciton analysis of the transition density matrix
    Trans. dipole moment [D]:             0.000000
      Cartesian components [D]:         [  0.000000,  -0.000000,   0.000000]
    <r_h> [Ang]:                        [ -0.000000,  -0.000000,  -0.193444]
    <r_e> [Ang]:                        [ -0.000000,   0.000000,  -0.901304]
    |<r_e - r_h>| [Ang]:                  0.707861
    Hole size [Ang]:                      1.275325
      Cartesian components [Ang]:       [  0.767817,   0.871929,   0.525976]
    Electron size [Ang]:                  3.874075
      Cartesian components [Ang]:       [  2.986496,   1.780200,   1.708856]
    RMS electron-hole separation [Ang]:   4.132438
      Cartesian components [Ang]:       [  3.078179,   1.977584,   1.921202]
    Covariance(r_h, r_e) [Ang^2]:         0.029469
    Correlation coefficient:              0.005965
    Center-of-mass size [Ang]:            2.042906
      Cartesian components [Ang]:       [  1.544524,   0.993467,   0.894948]

  Decomposition into state-averaged NTOs
    H- 0 -> L+ 3: -0.5497 ( 60.4%)
    H- 0 -> L+ 5: -0.3801 ( 28.9%)
    H- 2 -> L+ 0:  0.0924 (  1.7%)
                   omega =  91.4%
  ----------------------------------------------------------------------------


  Excited state 9 (singlet, A2)                                    [converged]
  ----------------------------------------------------------------------------
  Term symbol:  9 (1) A2                                    R^2 =  4.80249e-09

  Total energy:                                            -78.4140573931 a.u.
  Excitation energy:                                              10.956836 eV

  Osc. strength:                                                      0.000000
  Trans. dip. moment [a.u.]:           [   0.000000,   -0.000000,    0.000000]
  <i|r^2|0> [a.u.]:                    [   0.000000,    0.000000,    0.000000]

  Dip. moment [a.u.]:                  [   0.000000,   -0.000000,    9.460352]
  Total dipole [Debye]:                                              24.045822
  <r^2> [a.u.]:                        [ 109.284819,   61.568714,   54.264955]
  Total <r^2> [a.u.]:                                               225.118487

  V1^2 = 0.0001, V2^2 = 0.9999

  Important amplitudes:
      occ i      occ j       vir a       vir b          v   
    ---------------------------------------------------------
     5 (A1) A   5 (A1) B    4 (B1) A    2 (B2) B     -0.3535
     5 (A1) A               3 (A2) A                 -0.0047
    ---------------------------------------------------------

  Density matrix analysis:
  ------------------------
  NOs
    Occupation of frontier NOs:
       1.0004   1.0014
    Number of electrons: 18.000000
    Number of unpaired electrons: n_u =  2.40973, n_u,nl =  2.06506
    NO participation ratio (PR_NO):  2.884554
  
  
  Mulliken Population Analysis
  Atom      Charge (e)              h+              e-           Del q
  --------------------------------------------------------------------
   1 C       -1.183515        0.149089       -0.954226       -0.805137
   2 C       -1.183515        0.149089       -0.954226       -0.805137
   3 H        0.179176        0.022576        0.005586        0.028162
   4 H        0.179176        0.022576        0.005586        0.028162
   5 H       -0.015886        0.000372       -0.051336       -0.050964
   6 H       -0.015886        0.000372       -0.051336       -0.050964
   7 H        1.040448        1.655877       -0.000001        1.655877
  --------------------------------------------------------------------
  Sum:       -1.000000        1.999952       -1.999952        0.000000
  
  Multipole moment analysis of the density matrix
    Molecular charge:                      -1.000000
    Number of electrons:                   18.000000
      Center of electronic charge [Ang]: [ -0.000000,   0.000000,  -0.278122]
    Total nuclear charge:                  17.000000
      Center of nuclear charge [Ang]:    [ -0.000000,   0.000000,  -0.000000]
    Dipole moment [D]:                     24.045814
      Cartesian components [D]:          [  0.000000,  -0.000000,  24.045814]
    RMS size of the density [Ang]:         1.850634
      Cartesian components [Ang]:        [  1.303902,   0.978689,   0.875703]
  
  Exciton analysis of the difference density matrix
    <r_h> [Ang]:                  [  0.000000,   0.000000,   2.849817]
    <r_e> [Ang]:                  [ -0.000000,   0.000000,  -0.834461]
    |<r_e - r_h>| [Ang]:            3.684278
    Hole size [Ang]:                1.568184
      Cartesian components [Ang]: [  0.802219,   0.791763,   1.090302]
    Electron size [Ang]:            4.350451
      Cartesian components [Ang]: [  2.916318,   2.625789,   1.877964]

  Transition density matrix analysis:
  -----------------------------------
  
  CT numbers (Mulliken)
    omega =     0.0001
    <Phe> =     0.0916
  
  Exciton analysis of the transition density matrix
    Trans. dipole moment [D]:             0.000000
      Cartesian components [D]:         [  0.000000,  -0.000000,   0.000000]
    <r_h> [Ang]:                        [  0.000000,   0.000000,   1.823574]
    <r_e> [Ang]:                        [ -0.000000,   0.000000,  -0.683662]
    |<r_e - r_h>| [Ang]:                  2.507236
    Hole size [Ang]:                      2.744868
      Cartesian components [Ang]:       [  1.158839,   1.607272,   1.899491]
    Electron size [Ang]:                  3.635442
      Cartesian components [Ang]:       [  2.738507,   1.867977,   1.492540]
    RMS electron-hole separation [Ang]:   5.109066
      Cartesian components [Ang]:       [  2.989593,   2.491241,   3.310379]
    Covariance(r_h, r_e) [Ang^2]:         0.467207
    Correlation coefficient:              0.046820
    Center-of-mass size [Ang]:            2.328366
      Cartesian components [Ang]:       [  1.478766,   1.218508,   1.322791]

  Decomposition into state-averaged NTOs
                   omega =   0.0%
  ----------------------------------------------------------------------------


  Excited state 10 (singlet, A2)                                    [converged]
  ----------------------------------------------------------------------------
  Term symbol:  10 (1) A2                                   R^2 =  6.57732e-06

  Total energy:                                            -78.3833960966 a.u.
  Excitation energy:                                              11.791173 eV

  Osc. strength:                                                      0.000000
  Trans. dip. moment [a.u.]:           [   0.000000,   -0.000000,    0.000000]
  <i|r^2|0> [a.u.]:                    [   0.000000,    0.000000,   -0.000000]

  Dip. moment [a.u.]:                  [  -0.000000,   -0.000000,    7.854515]
  Total dipole [Debye]:                                              19.964189
  <r^2> [a.u.]:                        [ 125.951500,   51.560164,   46.687851]
  Total <r^2> [a.u.]:                                               224.199516

  V1^2 = 0.0158, V2^2 = 0.9842

  Important amplitudes:
      occ i      occ j       vir a       vir b          v   
    ---------------------------------------------------------
     5 (A1) A   5 (A1) B    6 (A1) A    1 (A2) B     -0.3469
     4 (A1) A               1 (A2) A                  0.0649
    ---------------------------------------------------------

  Density matrix analysis:
  ------------------------
  NOs
    Occupation of frontier NOs:
       0.9864   0.9967
    Number of electrons: 18.000000
    Number of unpaired electrons: n_u =  2.44445, n_u,nl =  2.06723
    NO participation ratio (PR_NO):  3.011902
  
  
  Mulliken Population Analysis
  Atom      Charge (e)              h+              e-           Del q
  --------------------------------------------------------------------
   1 C       -1.258895        0.152017       -1.032534       -0.880517
   2 C       -1.258895        0.152017       -1.032534       -0.880517
   3 H        0.191837        0.022518        0.018305        0.040823
   4 H        0.191837        0.022518        0.018305        0.040823
   5 H        0.057271        0.002420        0.019773        0.022193
   6 H        0.057271        0.002420        0.019773        0.022193
   7 H        1.019574        1.635769       -0.000767        1.635002
  --------------------------------------------------------------------
  Sum:       -1.000000        1.989679       -1.989679       -0.000000
  
  Multipole moment analysis of the density matrix
    Molecular charge:                      -1.000000
    Number of electrons:                   18.000000
      Center of electronic charge [Ang]: [  0.000000,   0.000000,  -0.230913]
    Total nuclear charge:                  17.000000
      Center of nuclear charge [Ang]:    [ -0.000000,   0.000000,  -0.000000]
    Dipole moment [D]:                     19.964183
      Cartesian components [D]:          [ -0.000000,  -0.000000,  19.964183]
    RMS size of the density [Ang]:         1.853263
      Cartesian components [Ang]:        [  1.399802,   0.895616,   0.820371]
  
  Exciton analysis of the difference density matrix
    <r_h> [Ang]:                  [  0.000000,   0.000000,   2.821812]
    <r_e> [Ang]:                  [  0.000000,   0.000000,  -0.454398]
    |<r_e - r_h>| [Ang]:            3.276210
    Hole size [Ang]:                1.586412
      Cartesian components [Ang]: [  0.806690,   0.787548,   1.116119]
    Electron size [Ang]:            4.385463
      Cartesian components [Ang]: [  3.301268,   2.347736,   1.679897]

  Transition density matrix analysis:
  -----------------------------------
  
  CT numbers (Mulliken)
    omega =     0.0155
    <Phe> =    -0.0031
  
  Exciton analysis of the transition density matrix
    Trans. dipole moment [D]:             0.000000
      Cartesian components [D]:         [  0.000000,  -0.000000,   0.000000]
    <r_h> [Ang]:                        [  0.000000,  -0.000000,   0.191782]
    <r_e> [Ang]:                        [ -0.000000,   0.000000,  -0.188229]
    |<r_e - r_h>| [Ang]:                  0.380011
    Hole size [Ang]:                      1.606497
      Cartesian components [Ang]:       [  1.037159,   0.438207,   1.145910]
    Electron size [Ang]:                  4.207244
      Cartesian components [Ang]:       [  2.777566,   2.729549,   1.592356]
    RMS electron-hole separation [Ang]:   4.504770
      Cartesian components [Ang]:       [  2.942665,   2.764360,   1.997995]
    Covariance(r_h, r_e) [Ang^2]:         0.066596
    Correlation coefficient:              0.009853
    Center-of-mass size [Ang]:            2.259144
      Cartesian components [Ang]:       [  1.493474,   1.382320,   0.981050]

  Decomposition into state-averaged NTOs
    H- 2 -> L+ 1: -0.0736 (  1.1%)
                   omega =   1.6%
  ----------------------------------------------------------------------------


--------------------------------------------------------------------------------
  Time of ADC calculation:  CPU 116.84 s  wall 33.76 s
================================================================================
 
 --------------------------------------------------------------
             Orbital Energies (a.u.) and Symmetries
 --------------------------------------------------------------
 
 Alpha MOs, Restricted
 -- Occupied --                  
-11.076 -11.074  -0.881  -0.624  -0.498  -0.409  -0.352  -0.218
  1 A1    1 B1    2 A1    2 B1    3 A1    4 A1    3 B1    1 B2                 
 -0.028
  5 A1                                                                         
 -- Virtual --                   
  0.157   0.181   0.189   0.195   0.197   0.211   0.286   0.303
  4 B1    6 A1    2 B2    1 A2    7 A1    5 B1    8 A1    2 A2                 
  0.318   0.391   0.417   0.421   0.428   0.429   0.473   0.502
  6 B1    9 A1    7 B1   10 A1    8 B1    3 B2   11 A1   12 A1                 
  0.509   0.514   0.700   0.750   0.945   1.014   1.033   1.053
  3 A2    9 B1   10 B1   11 B1   13 A1   14 A1   15 A1   16 A1                 
  1.086   1.159   1.172   1.212   1.215   1.236   1.237   1.275
 12 B1   17 A1    4 B2   13 B1    4 A2   18 A1   14 B1    5 B2                 
  1.422   1.444   1.445   1.544   1.776   1.786   1.885   1.894
 15 B1    6 B2    5 A2   16 B1   19 A1   17 B1   20 A1    7 B2                 
  1.928   1.987   2.026   2.101   2.107   2.182   2.202   2.246
 18 B1   21 A1    6 A2    8 B2   19 B1    9 B2   22 A1   23 A1                 
  2.336   2.482   2.574   2.635   2.731   2.754   2.968   2.996
  7 A2   20 B1    8 A2   24 A1   21 B1   22 B1   25 A1   26 A1                 
  3.406   3.502
 23 B1   24 B1                                                                 
 
 Beta MOs, Restricted
 -- Occupied --                  
-11.076 -11.074  -0.881  -0.624  -0.498  -0.409  -0.352  -0.218
  1 A1    1 B1    2 A1    2 B1    3 A1    4 A1    3 B1    1 B2                 
 -0.028
  5 A1                                                                         
 -- Virtual --                   
  0.157   0.181   0.189   0.195   0.197   0.211   0.286   0.303
  4 B1    6 A1    2 B2    1 A2    7 A1    5 B1    8 A1    2 A2                 
  0.318   0.391   0.417   0.421   0.428   0.429   0.473   0.502
  6 B1    9 A1    7 B1   10 A1    8 B1    3 B2   11 A1   12 A1                 
  0.509   0.514   0.700   0.750   0.945   1.014   1.033   1.053
  3 A2    9 B1   10 B1   11 B1   13 A1   14 A1   15 A1   16 A1                 
  1.086   1.159   1.172   1.212   1.215   1.236   1.237   1.275
 12 B1   17 A1    4 B2   13 B1    4 A2   18 A1   14 B1    5 B2                 
  1.422   1.444   1.445   1.544   1.776   1.786   1.885   1.894
 15 B1    6 B2    5 A2   16 B1   19 A1   17 B1   20 A1    7 B2                 
  1.928   1.987   2.026   2.101   2.107   2.182   2.202   2.246
 18 B1   21 A1    6 A2    8 B2   19 B1    9 B2   22 A1   23 A1                 
  2.336   2.482   2.574   2.635   2.731   2.754   2.968   2.996
  7 A2   20 B1    8 A2   24 A1   21 B1   22 B1   25 A1   26 A1                 
  3.406   3.502
 23 B1   24 B1                                                                 
 --------------------------------------------------------------
 
          Ground-State Mulliken Net Atomic Charges

     Atom                 Charge (a.u.)
  ----------------------------------------
      1 C                    -0.349438
      2 C                    -0.349438
      3 H                     0.151480
      4 H                     0.151480
      5 H                     0.027373
      6 H                     0.027373
      7 H                    -0.658830
  ----------------------------------------
  Sum of atomic charges =    -1.000000

 -----------------------------------------------------------------
                    Cartesian Multipole Moments
 -----------------------------------------------------------------
    Charge (ESU x 10^10)
                -4.8032
    Dipole Moment (Debye)
         X      -0.0000      Y       0.0000      Z     -11.7448
       Tot      11.7448
    Quadrupole Moments (Debye-Ang)
        XX     -19.6304     XY      -0.0000     YY     -22.4888
        XZ       0.0000     YZ      -0.0000     ZZ     -57.7331
    Octopole Moments (Debye-Ang^2)
       XXX      -0.0000    XXY       0.0000    XYY      -0.0000
       YYY       0.0000    XXZ      -9.1370    XYZ       0.0000
       YYZ     -10.2834    XZZ      -0.0000    YZZ       0.0000
       ZZZ    -136.9625
    Hexadecapole Moments (Debye-Ang^3)
      XXXX     -96.0290   XXXY      -0.0000   XXYY     -24.1902
      XYYY      -0.0000   YYYY     -46.4092   XXXZ       0.0000
      XXYZ      -0.0000   XYYZ       0.0000   YYYZ      -0.0000
      XXZZ     -68.9914   XYZZ      -0.0000   YYZZ     -62.8903
      XZZZ       0.0000   YZZZ       0.0000   ZZZZ    -637.3061
 -----------------------------------------------------------------
 Total job time:  114.72s(wall), 160.76s(cpu) 
 Thu Feb 17 13:25:25 2022

        *************************************************************
        *                                                           *
        *  Thank you very much for using Q-Chem.  Have a nice day.  *
        *                                                           *
        *************************************************************


