/src/tsommerfeld/qchem/exe/qcprog.exe .input1.166667.13102.qcin.1 /src/jdavis/qchem.scratch/qchem13102/

                  Welcome to Q-Chem
     A Quantum Leap Into The Future Of Chemistry


 Q-Chem 5.4 (devel), Q-Chem, Inc., Pleasanton, CA (2021)

 E. Epifanovsky,  A. T. B. Gilbert,  Xintian Feng,  Joonho Lee,  Yuezhi Mao,  
 N. Mardirossian,  P. Pokhilko,  A. White,  M. Wormit,  M. P. Coons,  
 A. L. Dempwolff,  Zhengting Gan,  D. Hait,  P. R. Horn,  L. D. Jacobson,  
 I. Kaliman,  J. Kussmann,  A. W. Lange,  Ka Un Lao,  D. S. Levine,  Jie Liu,  
 S. C. McKenzie,  A. F. Morrison,  K. Nanda,  F. Plasser,  D. R. Rehn,  
 M. L. Vidal,  Zhi-Qiang You,  Ying Zhu,  B. Alam,  B. Albrecht,  
 A. Aldossary,  E. Alguire,  J. H. Andersen,  D. Barton,  K. Begam,  A. Behn,  
 Y. A. Bernard,  E. J. Berquist,  H. Burton,  A. Carreras,  K. Carter-Fenk,  
 R. Chakraborty,  A. D. Chien,  K. D. Closser,  V. Cofer-Shabica,  
 S. Dasgupta,  Jia Deng,  M. de Wergifosse,  M. Diedenhofen,  Hainam Do,  
 S. Ehlert,  Po-Tung Fang,  S. Fatehi,  Qingguo Feng,  T. Friedhoff,  
 J. Gayvert,  Qinghui Ge,  G. Gidofalvi,  M. Goldey,  J. Gomes,  
 C. Gonzalez-Espinoza,  S. Gulania,  A. Gunina,  M. W. D. Hanson-Heine,  
 P. H. P. Harbach,  A. W. Hauser,  M. F. Herbst,  M. Hernandez Vera,  
 M. Hodecker,  Z. C. Holden,  S. Houck,  Xunkun Huang,  Kerwin Hui,  
 B. C. Huynh,  M. Ivanov,  Hyunjun Ji,  Hanjie Jiang,  B. Kaduk,  S. Kaehler,  
 K. Khistyaev,  Jaehoon Kim,  P. Klunzinger,  Z. Koczor-Benda,  
 Joong Hoon Koh,  D. Kosenkov,  L. Koulias,  T. Kowalczyk,  C. M. Krauter,  
 K. Kue,  A. Kunitsa,  T. Kus,  A. Landau,  K. V. Lawler,  D. Lefrancois,  
 S. Lehtola,  Rain Li,  Yi-Pei Li,  Jiashu Liang,  M. Liebenthal,  
 Hung-Hsuan Lin,  You-Sheng Lin,  Fenglai Liu,  Kuan-Yu Liu,  
 M. Loipersberger,  A. Luenser,  A. Manjanath,  P. Manohar,  E. Mansoor,  
 S. F. Manzer,  Shan-Ping Mao,  A. V. Marenich,  T. Markovich,  S. Mason,  
 S. A. Maurer,  P. F. McLaughlin,  M. F. S. J. Menger,  J.-M. Mewes,  
 S. A. Mewes,  P. Morgante,  J. W. Mullinax,  K. J. Oosterbaan,  G. Paran,  
 Alexander C. Paul,  Suranjan K. Paul,  F. Pavosevic,  Zheng Pei,  S. Prager,  
 E. I. Proynov,  E. Ramos,  B. Rana,  A. E. Rask,  A. Rettig,  R. M. Richard,  
 F. Rob,  E. Rossomme,  T. Scheele,  M. Scheurer,  M. Schneider,  
 N. Sergueev,  S. M. Sharada,  W. Skomorowski,  D. W. Small,  C. J. Stein,  
 Yu-Chuan Su,  E. J. Sundstrom,  Zhen Tao,  J. Thirman,  T. Tsuchimochi,  
 N. M. Tubman,  S. P. Veccham,  O. Vydrov,  J. Wenzel,  J. Witte,  A. Yamada,  
 Kun Yao,  S. Yeganeh,  S. R. Yost,  A. Zech,  Igor Ying Zhang,  Xing Zhang,  
 Yu Zhang,  D. Zuev,  A. Aspuru-Guzik,  A. T. Bell,  N. A. Besley,  
 K. B. Bravaya,  B. R. Brooks,  D. Casanova,  Jeng-Da Chai,  S. Coriani,  
 C. J. Cramer,  A. E. DePrince, III,  R. A. DiStasio Jr.,  A. Dreuw,  
 B. D. Dunietz,  T. R. Furlani,  W. A. Goddard III,  S. Grimme,  
 S. Hammes-Schiffer,  T. Head-Gordon,  W. J. Hehre,  Chao-Ping Hsu,  
 T.-C. Jagau,  Yousung Jung,  A. Klamt,  Jing Kong,  D. S. Lambrecht,  
 WanZhen Liang,  N. J. Mayhall,  C. W. McCurdy,  J. B. Neaton,  
 C. Ochsenfeld,  J. A. Parkhill,  R. Peverati,  V. A. Rassolov,  Yihan Shao,  
 L. V. Slipchenko,  T. Stauch,  R. P. Steele,  J. E. Subotnik,  
 A. J. W. Thom,  A. Tkatchenko,  D. G. Truhlar,  T. Van Voorhis,  
 T. A. Wesolowski,  K. B. Whaley,  H. L. Woodcock III,  P. M. Zimmerman,  
 S. Faraji,  P. M. W. Gill,  M. Head-Gordon,  J. M. Herbert,  A. I. Krylov

 Additional authors for Version 5.4.1: 
 S. Kotaru,  Shaozhi Li,  Xiangyuan Li,  F. Matz,  A. Molle,  Haisheng Ren,  
 Yingli Su,  Hung-Yi Tsai,  C. Utku,  Fang Wang

 Contributors to earlier versions of Q-Chem not listed above: 
 R. D. Adamson,  B. Austin,  R. Baer,  J. Baker,  G. J. O. Beran,  
 K. Brandhorst,  S. T. Brown,  E. F. C. Byrd,  A. K. Chakraborty,  
 G. K. L. Chan,  Chun-Min Chang,  Yunqing Chen,  C.-L. Cheng,  
 Siu Hung Chien,  D. M. Chipman,  D. L. Crittenden,  H. Dachsel,  
 R. J. Doerksen,  A. D. Dutoi,  R. G. Edgar,  J. Fosso-Tande,  
 L. Fusti-Molnar,  D. Ghosh,  A. Ghysels,  A. Golubeva-Zadorozhnaya,  
 J. Gonthier,  M. S. Gordon,  S. R. Gwaltney,  G. Hawkins,  J. E. Herr,  
 A. Heyden,  S. Hirata,  E. G. Hohenstein,  G. Kedziora,  F. J. Keil,  
 C. Kelley,  Jihan Kim,  R. A. King,  R. Z. Khaliullin,  P. P. Korambath,  
 W. Kurlancheek,  A. Laurent,  A. M. Lee,  M. S. Lee,  S. V. Levchenko,  
 Ching Yeh Lin,  D. Liotard,  E. Livshits,  R. C. Lochan,  I. Lotan,  
 L. A. Martinez-Martinez,  P. E. Maslen,  N. Nair,  D. P. O'Neill,  
 D. Neuhauser,  E. Neuscamman,  C. M. Oana,  R. Olivares-Amaya,  R. Olson,  
 T. M. Perrine,  B. Peters,  P. A. Pieniazek,  A. Prociuk,  Y. M. Rhee,  
 J. Ritchie,  M. A. Rohrdanz,  E. Rosta,  N. J. Russ,  H. F. Schaefer III,  
 M. W. Schmidt,  N. E. Schultz,  S. Sharma,  N. Shenvi,  C. D. Sherrill,  
 A. C. Simmonett,  A. Sodt,  T. Stein,  D. Stuck,  K. S. Thanthiriwatte,  
 V. Vanovschi,  L. Vogt,  Tao Wang,  A. Warshel,  M. A. Watson,  
 C. F. Williams,  Q. Wu,  X. Xu,  Jun Yang,  W. Zhang,  Yan Zhao

 Please cite Q-Chem as follows:
 Y. Shao et al., Mol. Phys. 113, 184-215 (2015)
 DOI: 10.1080/00268976.2014.952696

 Q-Chem 5.4.1 for Intel X86 EM64T Linux

 Parts of Q-Chem use Armadillo 9.900.5 (Nocturnal Misbehaviour).
 http://arma.sourceforge.net/

 Q-Chem begins on Thu Feb 17 13:07:53 2022  

 Host: node01
0

     Scratch files written to /src/jdavis/qchem.scratch/qchem13102//
 Processing $rem in /src/tsommerfeld/qchem/config/preferences:
 Processing $rem in /home/jdavis/.qchemrc:

 Checking the input file for inconsistencies... 	...done.

--------------------------------------------------------------
User input:
--------------------------------------------------------------
$molecule
-1 1
C        -0.6645000000    0.0000000000   -0.2082049804
C         0.6645000000    0.0000000000   -0.2082049804
H        -1.1590800000    0.0000000000    0.7541440196
H         1.1590800000    0.0000000000    0.7541440196
H        -1.1590800000    0.0000000000   -1.1705529804
H         1.1590800000    0.0000000000   -1.1705529804
H         0.0000000000    0.0000000000    3.0139349415
$end

$rem
   METHOD adc(2)
   BASIS gen
   PURECART 11
   EE_STATES [0,10,0,0]
   scf_convergence 8
   ADC_DAVIDSON_MAXITER 120
   ADC_DAVIDSON_MAXSUBSPACE 200
   adc_nguess_singles 100
   THRESH 14
   S2THRESH 14
   adc_davidson_conv 5
   adc_davidson_thresh 14
   THREADS 10
   MEM_TOTAL 95000
   STATE_ANALYSIS TRUE
$end
$basis
C 1
S   9   1.00
      6.665000D+03           6.920000D-04
      1.000000D+03           5.329000D-03
      2.280000D+02           2.707700D-02
      6.471000D+01           1.017180D-01
      2.106000D+01           2.747400D-01
      7.495000D+00           4.485640D-01
      2.797000D+00           2.850740D-01
      5.215000D-01           1.520400D-02
      1.596000D-01          -3.191000D-03
S   9   1.00
      6.665000D+03          -1.460000D-04
      1.000000D+03          -1.154000D-03
      2.280000D+02          -5.725000D-03
      6.471000D+01          -2.331200D-02
      2.106000D+01          -6.395500D-02
      7.495000D+00          -1.499810D-01
      2.797000D+00          -1.272620D-01
      5.215000D-01           5.445290D-01
      1.596000D-01           5.804960D-01
S   1   1.00
      1.596000D-01           1.000000D+00
S   1   1.00
      0.0469000              1.0000000
P   4   1.00
      9.439000D+00           3.810900D-02
      2.002000D+00           2.094800D-01
      5.456000D-01           5.085570D-01
      1.517000D-01           4.688420D-01
P   1   1.00
      1.517000D-01           1.000000D+00
P   1   1.00
      0.0505667      1.0000000
P   1   1.00
      0.0252833      1.0000000
D   1   1.00
      5.500000D-01           1.0000000
****
C 2
S   9   1.00
      6.665000D+03           6.920000D-04
      1.000000D+03           5.329000D-03
      2.280000D+02           2.707700D-02
      6.471000D+01           1.017180D-01
      2.106000D+01           2.747400D-01
      7.495000D+00           4.485640D-01
      2.797000D+00           2.850740D-01
      5.215000D-01           1.520400D-02
      1.596000D-01          -3.191000D-03
S   9   1.00
      6.665000D+03          -1.460000D-04
      1.000000D+03          -1.154000D-03
      2.280000D+02          -5.725000D-03
      6.471000D+01          -2.331200D-02
      2.106000D+01          -6.395500D-02
      7.495000D+00          -1.499810D-01
      2.797000D+00          -1.272620D-01
      5.215000D-01           5.445290D-01
      1.596000D-01           5.804960D-01
S   1   1.00
      1.596000D-01           1.000000D+00
S   1   1.00
      0.0469000              1.0000000
P   4   1.00
      9.439000D+00           3.810900D-02
      2.002000D+00           2.094800D-01
      5.456000D-01           5.085570D-01
      1.517000D-01           4.688420D-01
P   1   1.00
      1.517000D-01           1.000000D+00
P   1   1.00
      0.0505667      1.0000000
P   1   1.00
      0.0252833      1.0000000
D   1   1.00
      5.500000D-01           1.0000000
****
H 3
cc-pVDZ
****
H 4
cc-pVDZ
****
H 5
cc-pVDZ
****
H 6
cc-pVDZ
****
H 7
aug-cc-pVDZ
****
$end
--------------------------------------------------------------
 ----------------------------------------------------------------
             Standard Nuclear Orientation (Angstroms)
    I     Atom           X                Y                Z
 ----------------------------------------------------------------
    1      C      -0.6645000000    -0.0000000000    -0.1895377601
    2      C       0.6645000000     0.0000000000    -0.1895377601
    3      H      -1.1590800000    -0.0000000000     0.7728112399
    4      H       1.1590800000     0.0000000000     0.7728112399
    5      H      -1.1590800000    -0.0000000000    -1.1518857601
    6      H       1.1590800000     0.0000000000    -1.1518857601
    7      H      -0.0000000000     0.0000000000     3.0326021618
 ----------------------------------------------------------------
 Molecular Point Group                 C2v   NOp =  4
 Largest Abelian Subgroup              C2v   NOp =  4
 Nuclear Repulsion Energy =          36.17984589 hartrees
 There are        9 alpha and        9 beta electrons
 Requested basis set is non-standard
 There are 33 shells and 67 basis functions
 Total memory of 95000 MB is distributed as follows: 
   MEM_STATIC is set to 192 MB
   QALLOC/CCMAN JOB total memory use is  94808 MB
 Warning: actual memory use might exceed 95000 MB

 Total QAlloc Memory Limit  95000 MB
 Mega-Array Size       188 MB
 MEM_STATIC part       192 MB

                       Distance Matrix (Angstroms)
             C (  1)   C (  2)   H (  3)   H (  4)   H (  5)   H (  6)
   C (  2)  1.329000
   H (  3)  1.082000  2.061931
   H (  4)  2.061931  1.082000  2.318160
   H (  5)  1.082000  2.061931  1.924697  3.013026
   H (  6)  2.061931  1.082000  3.013026  1.924697  2.318160
   H (  7)  3.289946  3.289946  2.539709  2.539709  4.342051  4.342051

 
 A cutoff of  1.0D-14 yielded    561 shell pairs
 There are      2337 function pairs (      2484 Cartesian)
 Smallest overlap matrix eigenvalue = 1.73E-04

 Scale SEOQF with 1.000000e-01/1.000000e-01/1.000000e-01

 Standard Electronic Orientation quadrupole field applied
 Nucleus-field energy     =    -0.0000000011 hartrees
 ================ Generating on-the-fly SAD Guess ================
Attempting to make child job directory: /src/jdavis/qchem.scratch/qchem13102//Frg1/
Attempting to make child job directory: /src/jdavis/qchem.scratch/qchem13102//Frg2/
Creating input file /src/jdavis/qchem.scratch/qchem13102/Frg1.input
using default PutDataFrgm: nothing
calling putenv with: QCSCRATCH=/src/jdavis/qchem.scratch/qchem13102/ 
Spawning Job For Fragment 0
Done Job For Fragment 0
calling putenv with: QCSCRATCH=/src/jdavis/qchem.scratch 
calling putenv with: QCTHREADS=1 
Creating input file /src/jdavis/qchem.scratch/qchem13102/Frg2.input
using default PutDataFrgm: nothing
calling putenv with: QCSCRATCH=/src/jdavis/qchem.scratch/qchem13102/ 
Spawning Job For Fragment 1
Done Job For Fragment 1
calling putenv with: QCSCRATCH=/src/jdavis/qchem.scratch 
calling putenv with: QCTHREADS=1 
 Time for running child jobs:  CPU 1.81 s  wall 53.15 s
 ============= Method Specific SAD Guess Constructed =============
 Guess from on-the-fly superposition of atomic densities
 Warning: Energy on first SCF cycle will be non-variational
 A restricted Hartree-Fock SCF calculation will be
 performed using Pulay DIIS extrapolation
 SCF converges when DIIS error is below 1.0E-08
 using 10 threads for integral computing
 -------------------------------------------------------
 OpenMP Integral computing Module                
 Release: version 1.0, May 2013, Q-Chem Inc. Pittsburgh 
 -------------------------------------------------------
 ---------------------------------------
  Cycle       Energy         DIIS Error
 ---------------------------------------
    1     -78.8076085803      7.36E-02
    2     -78.4612569180      6.89E-03
    3     -78.5113511549      1.66E-03
    4     -78.5138327150      5.28E-04
    5     -78.5141071220      1.14E-04
    6     -78.5141283577      2.51E-05
    7     -78.5141300446      7.17E-06
    8     -78.5141302198      1.00E-06
    9     -78.5141302243      2.39E-07
   10     -78.5141302247      5.10E-08
   11     -78.5141302247      1.05E-08
   12     -78.5141302247      1.58E-09 Convergence criterion met
 ---------------------------------------
 SCF time:  CPU 10.46 s  wall 1.05 s
 SCF   energy in the final basis set = -78.51413022
 Total energy in the final basis set = -78.51413022
================================================================================
|                                                                              |
|                                 A D C  M A N                                 |
|                                                                              |
 ------------------------------------------------------------------------------ 
|                                                                              |
| Components:                                                                  |
|                                                                              |
| - libvmm - 1.3-trunk                                                         |
|   Authors:                                                                   |
|   Evgeny Epifanovsky, Ilya Kaliman                                           |
|                                                                              |
| - libtensor - 2.5-trunk                                                      |
|   Authors:                                                                   |
|   Evgeny Epifanovsky, Michael Wormit, Dmitry Zuev, Sam Manzer,               |
|   Ilya Kaliman                                                               |
|                                                                              |
| - libwfa - 1.1-trunk                                                         |
|   Authors:                                                                   |
|   Felix Plasser, Stefanie Mewes (Baeppler), Benjamin Thomitzni,              |
|   Michael Wormit, Feng Chen, Anna I. Krylov, Pavel Pokhilko                  |
|                                                                              |
| - libadc - 1.1-trunk                                                         |
|   Authors:                                                                   |
|   Michael Wormit, Adrian L. Dempwolff, Philipp H. P. Harbach,                |
|   Caroline Krauter, Dirk Rehn, Matthias Schneider, Jan Wenzel                |
|                                                                              |
| - adcman - 2.6-trunk                                                         |
|   Authors:                                                                   |
|   Michael Wormit, Adrian L. Dempwolff, Philipp H. P. Harbach,                |
|   Caroline Krauter, Daniel Lefrancois, Jan-Michael Mewes, Dirk Rehn,         |
|   Matthias Schneider, Jan Wenzel, Andreas Dreuw                              |
|                                                                              |
| Authors of earlier versions of ADCMAN:                                       |
| Andreas Dreuw, Jan Hendrik Starcke, Dirk Rehn, Michael Wormit                |
|                                                                              |
================================================================================

 
 Alpha MOs, Restricted
 -- Occupied --                  
-11.078 -11.077  -0.884  -0.626  -0.501  -0.411  -0.355  -0.221
  1 A1    1 B1    2 A1    2 B1    3 A1    4 A1    3 B1    1 B2                 
 -0.033
  5 A1                                                                         
 -- Virtual --                   
  0.143   0.165   0.168   0.171   0.175   0.186   0.262   0.282
  4 B1    2 B2    6 A1    1 A2    7 A1    5 B1    8 A1    2 A2                 
  0.320   0.329   0.343   0.367   0.370   0.380   0.448   0.457
  6 B1    7 B1    9 A1    3 B2    8 B1   10 A1    3 A2   11 A1                 
  0.496   0.502   0.661   0.701   0.884   0.978   1.018   1.033
 12 A1    9 B1   10 B1   11 B1   13 A1   14 A1   15 A1   16 A1                 
  1.081   1.085   1.109   1.133   1.148   1.224   1.227   1.272
 12 B1    4 B2   17 A1    4 A2   13 B1   14 B1   18 A1    5 B2                 
  1.440   1.443   1.458   1.510   1.768   1.773   1.870   1.884
  6 B2    5 A2   15 B1   16 B1   19 A1   17 B1   20 A1    7 B2                 
  1.918   1.964   2.014   2.078   2.096   2.167   2.179   2.225
 18 B1   21 A1    6 A2   19 B1    8 B2   22 A1    9 B2   23 A1                 
  2.329   2.475   2.571   2.619   2.720   2.741   2.955   2.982
  7 A2   20 B1    8 A2   24 A1   21 B1   22 B1   25 A1   26 A1                 
  3.400   3.501
 23 B1   24 B1                                                                 
 
 Beta MOs, Restricted
 -- Occupied --                  
-11.078 -11.077  -0.884  -0.626  -0.501  -0.411  -0.355  -0.221
  1 A1    1 B1    2 A1    2 B1    3 A1    4 A1    3 B1    1 B2                 
 -0.033
  5 A1                                                                         
 -- Virtual --                   
  0.143   0.165   0.168   0.171   0.175   0.186   0.262   0.282
  4 B1    2 B2    6 A1    1 A2    7 A1    5 B1    8 A1    2 A2                 
  0.320   0.329   0.343   0.367   0.370   0.380   0.448   0.457
  6 B1    7 B1    9 A1    3 B2    8 B1   10 A1    3 A2   11 A1                 
  0.496   0.502   0.661   0.701   0.884   0.978   1.018   1.033
 12 A1    9 B1   10 B1   11 B1   13 A1   14 A1   15 A1   16 A1                 
  1.081   1.085   1.109   1.133   1.148   1.224   1.227   1.272
 12 B1    4 B2   17 A1    4 A2   13 B1   14 B1   18 A1    5 B2                 
  1.440   1.443   1.458   1.510   1.768   1.773   1.870   1.884
  6 B2    5 A2   15 B1   16 B1   19 A1   17 B1   20 A1    7 B2                 
  1.918   1.964   2.014   2.078   2.096   2.167   2.179   2.225
 18 B1   21 A1    6 A2   19 B1    8 B2   22 A1    9 B2   23 A1                 
  2.329   2.475   2.571   2.619   2.720   2.741   2.955   2.982
  7 A2   20 B1    8 A2   24 A1   21 B1   22 B1   25 A1   26 A1                 
  3.400   3.501
 23 B1   24 B1                                                                 

--------------------------------------------------------------------------------
                                   HF Summary                                   
--------------------------------------------------------------------------------
  Energy:                                                  -78.5141302247 a.u.
  Dip. moment [a.u.]:                  [  -0.000000,    0.000000,   -4.566858]
  Total dipole [Debye]:                                              11.607798
  <r^2> [a.u.]:                        [  53.349139,   17.238448,   92.390180]
  Total <r^2> [a.u.]:                                               162.977768
--------------------------------------------------------------------------------

--------------------------------------------------------------------------------
                                 MP(2) Summary                                  
--------------------------------------------------------------------------------
  MP energy contribution:                                   -0.3044860611 a.u.
  Total energy:                                            -78.8186162858 a.u.
  Dip. moment [a.u.]:                  [  -0.000000,    0.000000,   -4.366921]
  Total dipole [Debye]:                                              11.099608
  <r^2> [a.u.]:                        [  53.974383,   17.493289,   92.230523]
  Total <r^2> [a.u.]:                                               163.698195

  Density matrix analysis:
  ------------------------
  NOs
    Occupation of frontier NOs:
       0.0448   1.9363
    Number of electrons: 18.000000
    Number of unpaired electrons: n_u =  0.46755, n_u,nl =  0.05145
    NO participation ratio (PR_NO): 16.316626
  
  
  Mulliken Population Analysis
  Atom      Charge (e)              h+              e-           Del q
  --------------------------------------------------------------------
   1 C       -0.376945        0.088660       -0.121404       -0.032744
   2 C       -0.376945        0.088660       -0.121404       -0.032744
   3 H        0.137969        0.015741       -0.016289       -0.000548
   4 H        0.137969        0.015741       -0.016289       -0.000548
   5 H        0.031703        0.019144       -0.011559        0.007586
   6 H        0.031703        0.019144       -0.011559        0.007586
   7 H       -0.585454        0.065486       -0.014074        0.051412
  --------------------------------------------------------------------
  Sum:       -1.000000        0.312577       -0.312577        0.000000
  
  Multipole moment analysis of the density matrix
    Molecular charge:                      -1.000000
    Number of electrons:                   18.000000
      Center of electronic charge [Ang]: [  0.000000,  -0.000000,   0.128382]
    Total nuclear charge:                  17.000000
      Center of nuclear charge [Ang]:    [ -0.000000,   0.000000,  -0.000000]
    Dipole moment [D]:                     11.099605
      Cartesian components [D]:          [ -0.000000,   0.000000, -11.099605]
    RMS size of the density [Ang]:         1.590658
      Cartesian components [Ang]:        [  0.916344,   0.521676,   1.190950]
  
  Exciton analysis of the difference density matrix
    <r_h> [Ang]:                  [ -0.000000,  -0.000000,   0.361798]
    <r_e> [Ang]:                  [ -0.000000,  -0.000000,   0.023314]
    |<r_e - r_h>| [Ang]:            0.338484
    Hole size [Ang]:                1.986918
      Cartesian components [Ang]: [  0.979805,   0.791307,   1.536769]
    Electron size [Ang]:            2.173386
      Cartesian components [Ang]: [  1.232946,   0.924376,   1.532638]
--------------------------------------------------------------------------------
Less singles guess vectors found than requested: 85 (found), 100 (requested).
Adjusting number of doubles guess vectors to 15.
  Starting Davidson for singlet states of irrep A2 ... 
--------------------------------------------------------------------------------
   It NVec Conv  Avg. Norm  Max. Norm  Conv. states           Remark
--------------------------------------------------------------------------------
       100    0  7.714e-02  3.727e-01  0.1007 n n n n n n n n Guess.
    1  110    0  1.118e-02  7.333e-02  0.0786 n n n n n n n n 
    2  120    0  1.322e-03  1.032e-02  0.0785 n n n n n n n n 
    3  130    1  8.045e-03  8.044e-02  0.0785 y n n n n n n n 
    4  140    6  3.031e-04  3.030e-03  0.0785 y y y y y n n n 
    5  150    9  1.019e-05  1.019e-04  0.0785 y y y y y y y y 
    6  160   10  2.026e-07  2.026e-06  0.0785 y y y y y y y y Converged.
--------------------------------------------------------------------------------
  Davidson Summary: 
 ------------------------------------------------------------
  State  0: excitation energy =   0.0785 a.u.   (converged)
  State  1: excitation energy =   0.1279 a.u.   (converged)
  State  2: excitation energy =   0.2362 a.u.   (converged)
  State  3: excitation energy =   0.2890 a.u.   (converged)
  State  4: excitation energy =   0.2946 a.u.   (converged)
  State  5: excitation energy =   0.3515 a.u.   (converged)
  State  6: excitation energy =   0.3527 a.u.   (converged)
  State  7: excitation energy =   0.3630 a.u.   (converged)
  State  8: excitation energy =   0.3744 a.u.   (converged)
  State  9: excitation energy =   0.3902 a.u.   (converged)
 ------------------------------------------------------------


--------------------------------------------------------------------------------
                   State-averaged natural transition orbitals
--------------------------------------------------------------------------------
--------------------------------------------------------------------------------

--------------------------------------------------------------------------------
                             Excited State Summary
--------------------------------------------------------------------------------
--------------------------------------------------------------------------------

  Excited state 1 (singlet, A2)                                    [converged]
  ----------------------------------------------------------------------------
  Term symbol:  1 (1) A2                                    R^2 =  1.78899e-11

  Total energy:                                            -78.7401289081 a.u.
  Excitation energy:                                               2.135750 eV

  Osc. strength:                                                      0.000000
  Trans. dip. moment [a.u.]:           [   0.000000,    0.000000,   -0.000000]
  <i|r^2|0> [a.u.]:                    [   0.000000,   -0.000000,   -0.000000]

  Dip. moment [a.u.]:                  [   0.000000,    0.000000,    0.624876]
  Total dipole [Debye]:                                               1.588277
  <r^2> [a.u.]:                        [  81.182173,   44.259372,   68.824024]
  Total <r^2> [a.u.]:                                               194.265569

  V1^2 = 0.9157, V2^2 = 0.0843

  Important amplitudes:
      occ i      occ j       vir a       vir b          v   
    ---------------------------------------------------------
     5 (A1) A               1 (A2) A                 -0.6468
     5 (A1) A               2 (A2) A                  0.1964
    ---------------------------------------------------------

  Density matrix analysis:
  ------------------------
  NOs
    Occupation of frontier NOs:
       0.9857   0.9958
    Number of electrons: 18.000000
    Number of unpaired electrons: n_u =  2.41663, n_u,nl =  2.04724
    NO participation ratio (PR_NO):  2.955973
  
  
  Mulliken Population Analysis
  Atom      Charge (e)              h+              e-           Del q
  --------------------------------------------------------------------
   1 C       -0.674924        0.249332       -0.547311       -0.297979
   2 C       -0.674924        0.249332       -0.547311       -0.297979
   3 H        0.106387        0.024804       -0.056385       -0.031581
   4 H        0.106387        0.024804       -0.056385       -0.031581
   5 H        0.053547        0.021944       -0.000101        0.021844
   6 H        0.053547        0.021944       -0.000101        0.021844
   7 H        0.029980        0.668906       -0.053472        0.615433
  --------------------------------------------------------------------
  Sum:       -1.000000        1.261066       -1.261066        0.000000
  
  Multipole moment analysis of the density matrix
    Molecular charge:                      -1.000000
    Number of electrons:                   18.000000
      Center of electronic charge [Ang]: [ -0.000000,  -0.000000,  -0.018371]
    Total nuclear charge:                  17.000000
      Center of nuclear charge [Ang]:    [ -0.000000,   0.000000,  -0.000000]
    Dipole moment [D]:                     1.588277
      Cartesian components [D]:          [  0.000000,   0.000000,   1.588277]
    RMS size of the density [Ang]:         1.738355
      Cartesian components [Ang]:        [  1.123816,   0.829789,   1.034586]
  
  Exciton analysis of the difference density matrix
    <r_h> [Ang]:                  [ -0.000000,  -0.000000,   2.101168]
    <r_e> [Ang]:                  [ -0.000000,  -0.000000,   0.006475]
    |<r_e - r_h>| [Ang]:            2.094693
    Hole size [Ang]:                2.617663
      Cartesian components [Ang]: [  1.192948,   1.102763,   2.052546]
    Electron size [Ang]:            4.249085
      Cartesian components [Ang]: [  2.732180,   2.675758,   1.852089]

  Transition density matrix analysis:
  -----------------------------------
  
  CT numbers (Mulliken)
    omega =     0.9021
    <Phe> =     0.0012
  
  Exciton analysis of the transition density matrix
    Trans. dipole moment [D]:             0.000000
      Cartesian components [D]:         [  0.000000,   0.000000,  -0.000000]
    <r_h> [Ang]:                        [ -0.000000,  -0.000000,   2.755632]
    <r_e> [Ang]:                        [ -0.000000,  -0.000000,  -0.189314]
    |<r_e - r_h>| [Ang]:                  2.944946
    Hole size [Ang]:                      1.882174
      Cartesian components [Ang]:       [  0.921521,   0.894521,   1.375939]
    Electron size [Ang]:                  4.511218
      Cartesian components [Ang]:       [  2.975377,   2.936199,   1.696157]
    RMS electron-hole separation [Ang]:   5.705631
      Cartesian components [Ang]:       [  3.113206,   3.069107,   3.666436]
    Covariance(r_h, r_e) [Ang^2]:         0.006072
    Correlation coefficient:              0.000715
    Center-of-mass size [Ang]:            2.444678
      Cartesian components [Ang]:       [  1.558211,   1.534882,   1.092047]

  Decomposition into state-averaged NTOs
    H- 1 -> L+ 6: -0.4891 ( 47.8%)
    H- 1 -> L+ 0:  0.4330 ( 37.5%)
    H- 1 -> L+ 7: -0.1556 (  4.8%)
                   omega =  90.2%
  ----------------------------------------------------------------------------


  Excited state 2 (singlet, A2)                                    [converged]
  ----------------------------------------------------------------------------
  Term symbol:  2 (1) A2                                    R^2 =  8.06047e-11

  Total energy:                                            -78.6906869683 a.u.
  Excitation energy:                                               3.481134 eV

  Osc. strength:                                                      0.000000
  Trans. dip. moment [a.u.]:           [  -0.000000,    0.000000,    0.000000]
  <i|r^2|0> [a.u.]:                    [   0.000000,    0.000000,   -0.000000]

  Dip. moment [a.u.]:                  [  -0.000000,   -0.000000,    0.628173]
  Total dipole [Debye]:                                               1.596656
  <r^2> [a.u.]:                        [  66.028608,   28.520142,   64.645642]
  Total <r^2> [a.u.]:                                               159.194392

  V1^2 = 0.9101, V2^2 = 0.0899

  Important amplitudes:
      occ i      occ j       vir a       vir b          v   
    ---------------------------------------------------------
     5 (A1) A               2 (A2) A                 -0.6251
     5 (A1) A               1 (A2) A                 -0.1966
    ---------------------------------------------------------

  Density matrix analysis:
  ------------------------
  NOs
    Occupation of frontier NOs:
       0.9853   0.9919
    Number of electrons: 18.000000
    Number of unpaired electrons: n_u =  2.41179, n_u,nl =  2.04288
    NO participation ratio (PR_NO):  2.958834
  
  
  Mulliken Population Analysis
  Atom      Charge (e)              h+              e-           Del q
  --------------------------------------------------------------------
   1 C       -0.606699        0.316383       -0.546138       -0.229755
   2 C       -0.606699        0.316383       -0.546138       -0.229755
   3 H        0.074669        0.028692       -0.091992       -0.063300
   4 H        0.074669        0.028692       -0.091992       -0.063300
   5 H        0.009869        0.007425       -0.029259       -0.021834
   6 H        0.009869        0.007425       -0.029259       -0.021834
   7 H        0.044322        0.668698       -0.038922        0.629776
  --------------------------------------------------------------------
  Sum:       -1.000000        1.373700       -1.373700        0.000000
  
  Multipole moment analysis of the density matrix
    Molecular charge:                      -1.000000
    Number of electrons:                   18.000000
      Center of electronic charge [Ang]: [  0.000000,   0.000000,  -0.018467]
    Total nuclear charge:                  17.000000
      Center of nuclear charge [Ang]:    [ -0.000000,   0.000000,  -0.000000]
    Dipole moment [D]:                     1.596656
      Cartesian components [D]:          [ -0.000000,  -0.000000,   1.596656]
    RMS size of the density [Ang]:         1.573616
      Cartesian components [Ang]:        [  1.013517,   0.666102,   1.002677]
  
  Exciton analysis of the difference density matrix
    <r_h> [Ang]:                  [ -0.000000,  -0.000000,   1.909864]
    <r_e> [Ang]:                  [ -0.000000,   0.000000,  -0.014348]
    |<r_e - r_h>| [Ang]:            1.924212
    Hole size [Ang]:                2.507677
      Cartesian components [Ang]: [  1.127430,   1.030817,   1.988658]
    Electron size [Ang]:            3.002952
      Cartesian components [Ang]: [  1.930893,   1.819452,   1.406756]

  Transition density matrix analysis:
  -----------------------------------
  
  CT numbers (Mulliken)
    omega =     0.8868
    <Phe> =    -0.0002
  
  Exciton analysis of the transition density matrix
    Trans. dipole moment [D]:             0.000000
      Cartesian components [D]:         [ -0.000000,   0.000000,   0.000000]
    <r_h> [Ang]:                        [ -0.000000,  -0.000000,   2.749928]
    <r_e> [Ang]:                        [ -0.000000,   0.000000,  -0.188388]
    |<r_e - r_h>| [Ang]:                  2.938316
    Hole size [Ang]:                      1.877657
      Cartesian components [Ang]:       [  0.916896,   0.889275,   1.376258]
    Electron size [Ang]:                  3.134456
      Cartesian components [Ang]:       [  2.088757,   2.020340,   1.174791]
    RMS electron-hole separation [Ang]:   4.686488
      Cartesian components [Ang]:       [  2.277145,   2.206975,   3.450658]
    Covariance(r_h, r_e) [Ang^2]:         0.010471
    Correlation coefficient:              0.001779
    Center-of-mass size [Ang]:            1.828343
      Cartesian components [Ang]:       [  1.142565,   1.103906,   0.904862]

  Decomposition into state-averaged NTOs
    H- 1 -> L+ 0: -0.4963 ( 49.3%)
    H- 1 -> L+ 6: -0.4436 ( 39.4%)
                   omega =  88.7%
  ----------------------------------------------------------------------------


  Excited state 3 (singlet, A2)                                    [converged]
  ----------------------------------------------------------------------------
  Term symbol:  3 (1) A2                                    R^2 =  2.78400e-10

  Total energy:                                            -78.5824485487 a.u.
  Excitation energy:                                               6.426451 eV

  Osc. strength:                                                      0.000000
  Trans. dip. moment [a.u.]:           [   0.000000,   -0.000000,    0.000000]
  <i|r^2|0> [a.u.]:                    [   0.000000,   -0.000000,   -0.000000]

  Dip. moment [a.u.]:                  [  -0.000000,   -0.000000,   -1.820353]
  Total dipole [Debye]:                                               4.626876
  <r^2> [a.u.]:                        [  91.511808,   26.452542,  106.456205]
  Total <r^2> [a.u.]:                                               224.420555

  V1^2 = 0.9408, V2^2 = 0.0592

  Important amplitudes:
      occ i      occ j       vir a       vir b          v   
    ---------------------------------------------------------
     1 (B2) A               4 (B1) A                  0.6625
     1 (B2) A               6 (B1) A                  0.1489
    ---------------------------------------------------------

  Density matrix analysis:
  ------------------------
  NOs
    Occupation of frontier NOs:
       0.9826   0.9952
    Number of electrons: 18.000000
    Number of unpaired electrons: n_u =  2.35652, n_u,nl =  2.03028
    NO participation ratio (PR_NO):  2.827608
  
  
  Mulliken Population Analysis
  Atom      Charge (e)              h+              e-           Del q
  --------------------------------------------------------------------
   1 C       -0.510552        0.560274       -0.693881       -0.133607
   2 C       -0.510552        0.560274       -0.693881       -0.133607
   3 H        0.197936        0.072378       -0.012411        0.059967
   4 H        0.197936        0.072378       -0.012411        0.059967
   5 H        0.107456        0.117342       -0.041589        0.075753
   6 H        0.107456        0.117342       -0.041589        0.075753
   7 H       -0.589678        0.036362       -0.040586       -0.004224
  --------------------------------------------------------------------
  Sum:       -1.000000        1.536348       -1.536348        0.000000
  
  Multipole moment analysis of the density matrix
    Molecular charge:                      -1.000000
    Number of electrons:                   18.000000
      Center of electronic charge [Ang]: [  0.000000,   0.000000,   0.053516]
    Total nuclear charge:                  17.000000
      Center of nuclear charge [Ang]:    [ -0.000000,   0.000000,  -0.000000]
    Dipole moment [D]:                     4.626874
      Cartesian components [D]:          [ -0.000000,  -0.000000,  -4.626874]
    RMS size of the density [Ang]:         1.867747
      Cartesian components [Ang]:        [  1.193173,   0.641503,   1.285803]
  
  Exciton analysis of the difference density matrix
    <r_h> [Ang]:                  [ -0.000000,  -0.000000,  -0.138345]
    <r_e> [Ang]:                  [  0.000000,   0.000000,  -1.015481]
    |<r_e - r_h>| [Ang]:            0.877136
    Hole size [Ang]:                1.894426
      Cartesian components [Ang]: [  1.129123,   0.946505,   1.190822]
    Electron size [Ang]:            3.693858
      Cartesian components [Ang]: [  2.849004,   1.590241,   1.731732]

  Transition density matrix analysis:
  -----------------------------------
  
  CT numbers (Mulliken)
    omega =     0.9104
    <Phe> =    -0.0016
  
  Exciton analysis of the transition density matrix
    Trans. dipole moment [D]:             0.000000
      Cartesian components [D]:         [  0.000000,  -0.000000,   0.000000]
    <r_h> [Ang]:                        [ -0.000000,  -0.000000,  -0.196254]
    <r_e> [Ang]:                        [  0.000000,   0.000000,  -1.590631]
    |<r_e - r_h>| [Ang]:                  1.394377
    Hole size [Ang]:                      1.274178
      Cartesian components [Ang]:       [  0.762867,   0.878906,   0.518736]
    Electron size [Ang]:                  4.266258
      Cartesian components [Ang]:       [  3.438415,   1.897567,   1.666585]
    RMS electron-hole separation [Ang]:   4.659581
      Cartesian components [Ang]:       [  3.517298,   2.085830,   2.233748]
    Covariance(r_h, r_e) [Ang^2]:         0.028538
    Correlation coefficient:              0.005250
    Center-of-mass size [Ang]:            2.229437
      Cartesian components [Ang]:       [  1.763373,   1.048306,   0.872903]

  Decomposition into state-averaged NTOs
    H- 0 -> L+ 5: -0.5075 ( 51.5%)
    H- 0 -> L+ 3: -0.3374 ( 22.8%)
    H- 0 -> L+ 4:  0.2361 ( 11.1%)
    H- 0 -> L+ 1:  0.1671 (  5.6%)
                   omega =  91.0%
  ----------------------------------------------------------------------------


  Excited state 4 (singlet, A2)                                    [converged]
  ----------------------------------------------------------------------------
  Term symbol:  4 (1) A2                                    R^2 =  4.86790e-10

  Total energy:                                            -78.5296015804 a.u.
  Excitation energy:                                               7.864490 eV

  Osc. strength:                                                      0.000000
  Trans. dip. moment [a.u.]:           [   0.000000,   -0.000000,   -0.000000]
  <i|r^2|0> [a.u.]:                    [  -0.000000,   -0.000000,   -0.000000]

  Dip. moment [a.u.]:                  [   0.000000,   -0.000000,   -6.185734]
  Total dipole [Debye]:                                              15.722570
  <r^2> [a.u.]:                        [  89.782340,   25.753550,  119.645817]
  Total <r^2> [a.u.]:                                               235.181706

  V1^2 = 0.9404, V2^2 = 0.0596

  Important amplitudes:
      occ i      occ j       vir a       vir b          v   
    ---------------------------------------------------------
     1 (B2) A               5 (B1) A                 -0.6645
     1 (B2) A               8 (B1) A                  0.1010
    ---------------------------------------------------------

  Density matrix analysis:
  ------------------------
  NOs
    Occupation of frontier NOs:
       0.9848   0.9951
    Number of electrons: 18.000000
    Number of unpaired electrons: n_u =  2.35618, n_u,nl =  2.03011
    NO participation ratio (PR_NO):  2.820886
  
  
  Mulliken Population Analysis
  Atom      Charge (e)              h+              e-           Del q
  --------------------------------------------------------------------
   1 C       -0.516585        0.548715       -0.688356       -0.139641
   2 C       -0.516585        0.548715       -0.688356       -0.139641
   3 H        0.165812        0.088479       -0.060635        0.027844
   4 H        0.165812        0.088479       -0.060635        0.027844
   5 H        0.124658        0.102375       -0.009419        0.092955
   6 H        0.124658        0.102375       -0.009419        0.092955
   7 H       -0.547770        0.054670       -0.016987        0.037683
  --------------------------------------------------------------------
  Sum:       -1.000000        1.533807       -1.533807        0.000000
  
  Multipole moment analysis of the density matrix
    Molecular charge:                      -1.000000
    Number of electrons:                   18.000000
      Center of electronic charge [Ang]: [ -0.000000,   0.000000,   0.181853]
    Total nuclear charge:                  17.000000
      Center of nuclear charge [Ang]:    [ -0.000000,   0.000000,  -0.000000]
    Dipole moment [D]:                     15.722565
      Cartesian components [D]:          [  0.000000,  -0.000000, -15.722565]
    RMS size of the density [Ang]:         1.904123
      Cartesian components [Ang]:        [  1.181844,   0.632970,   1.352138]
  
  Exciton analysis of the difference density matrix
    <r_h> [Ang]:                  [  0.000000,  -0.000000,  -0.062854]
    <r_e> [Ang]:                  [ -0.000000,   0.000000,   0.564653]
    |<r_e - r_h>| [Ang]:            0.627507
    Hole size [Ang]:                1.830119
      Cartesian components [Ang]: [  1.100095,   0.908811,   1.145944]
    Electron size [Ang]:            4.010643
      Cartesian components [Ang]: [  2.783469,   1.527750,   2.450212]

  Transition density matrix analysis:
  -----------------------------------
  
  CT numbers (Mulliken)
    omega =     0.9101
    <Phe> =    -0.0007
  
  Exciton analysis of the transition density matrix
    Trans. dipole moment [D]:             0.000000
      Cartesian components [D]:         [  0.000000,  -0.000000,  -0.000000]
    <r_h> [Ang]:                        [ -0.000000,  -0.000000,  -0.191188]
    <r_e> [Ang]:                        [ -0.000000,   0.000000,   0.854220]
    |<r_e - r_h>| [Ang]:                  1.045409
    Hole size [Ang]:                      1.280592
      Cartesian components [Ang]:       [  0.763159,   0.879237,   0.533334]
    Electron size [Ang]:                  4.787340
      Cartesian components [Ang]:       [  3.356833,   1.824372,   2.884781]
    RMS electron-hole separation [Ang]:   5.062184
      Cartesian components [Ang]:       [  3.438177,   2.024175,   3.115664]
    Covariance(r_h, r_e) [Ang^2]:         0.012857
    Correlation coefficient:              0.002097
    Center-of-mass size [Ang]:            2.479125
      Cartesian components [Ang]:       [  1.723399,   1.013102,   1.466145]

  Decomposition into state-averaged NTOs
    H- 0 -> L+ 4: -0.5735 ( 65.8%)
    H- 0 -> L+ 5: -0.2863 ( 16.4%)
    H- 0 -> L+ 1: -0.1970 (  7.8%)
                   omega =  91.0%
  ----------------------------------------------------------------------------


  Excited state 5 (singlet, A2)                                    [converged]
  ----------------------------------------------------------------------------
  Term symbol:  5 (1) A2                                    R^2 =  4.82882e-10

  Total energy:                                            -78.5240383828 a.u.
  Excitation energy:                                               8.015872 eV

  Osc. strength:                                                      0.000000
  Trans. dip. moment [a.u.]:           [  -0.000000,   -0.000000,    0.000000]
  <i|r^2|0> [a.u.]:                    [  -0.000000,   -0.000000,   -0.000000]

  Dip. moment [a.u.]:                  [   0.000000,   -0.000000,    0.623833]
  Total dipole [Debye]:                                               1.585625
  <r^2> [a.u.]:                        [  67.641945,   30.801606,   65.010375]
  Total <r^2> [a.u.]:                                               163.453925

  V1^2 = 0.9079, V2^2 = 0.0921

  Important amplitudes:
      occ i      occ j       vir a       vir b          v   
    ---------------------------------------------------------
     5 (A1) A               3 (A2) A                 -0.6501
     5 (A1) A               2 (A2) A                  0.1671
    ---------------------------------------------------------

  Density matrix analysis:
  ------------------------
  NOs
    Occupation of frontier NOs:
       0.9776   0.9849
    Number of electrons: 18.000000
    Number of unpaired electrons: n_u =  2.44883, n_u,nl =  2.05735
    NO participation ratio (PR_NO):  3.089437
  
  
  Mulliken Population Analysis
  Atom      Charge (e)              h+              e-           Del q
  --------------------------------------------------------------------
   1 C       -0.633534        0.277349       -0.533938       -0.256589
   2 C       -0.633534        0.277349       -0.533938       -0.256589
   3 H        0.086525        0.023206       -0.074650       -0.051444
   4 H        0.086525        0.023206       -0.074650       -0.051444
   5 H        0.026469        0.005261       -0.010495       -0.005234
   6 H        0.026469        0.005261       -0.010495       -0.005234
   7 H        0.041080        0.668906       -0.042373        0.626534
  --------------------------------------------------------------------
  Sum:       -1.000000        1.280538       -1.280538        0.000000
  
  Multipole moment analysis of the density matrix
    Molecular charge:                      -1.000000
    Number of electrons:                   18.000000
      Center of electronic charge [Ang]: [  0.000000,   0.000000,  -0.018340]
    Total nuclear charge:                  17.000000
      Center of nuclear charge [Ang]:    [ -0.000000,   0.000000,  -0.000000]
    Dipole moment [D]:                     1.585625
      Cartesian components [D]:          [ -0.000000,  -0.000000,   1.585625]
    RMS size of the density [Ang]:         1.594534
      Cartesian components [Ang]:        [  1.025824,   0.692232,   1.005504]
  
  Exciton analysis of the difference density matrix
    <r_h> [Ang]:                  [ -0.000000,  -0.000000,   2.071591]
    <r_e> [Ang]:                  [ -0.000000,   0.000000,   0.009183]
    |<r_e - r_h>| [Ang]:            2.062409
    Hole size [Ang]:                2.513627
      Cartesian components [Ang]: [  1.142935,   1.056927,   1.973556]
    Electron size [Ang]:            3.249048
      Cartesian components [Ang]: [  2.072469,   2.006829,   1.494597]

  Transition density matrix analysis:
  -----------------------------------
  
  CT numbers (Mulliken)
    omega =     0.8924
    <Phe> =     0.0002
  
  Exciton analysis of the transition density matrix
    Trans. dipole moment [D]:             0.000000
      Cartesian components [D]:         [ -0.000000,  -0.000000,   0.000000]
    <r_h> [Ang]:                        [ -0.000000,  -0.000000,   2.747772]
    <r_e> [Ang]:                        [ -0.000000,   0.000000,  -0.186819]
    |<r_e - r_h>| [Ang]:                  2.934592
    Hole size [Ang]:                      1.880832
      Cartesian components [Ang]:       [  0.917695,   0.890578,   1.379216]
    Electron size [Ang]:                  3.368667
      Cartesian components [Ang]:       [  2.221139,   2.191138,   1.270187]
    RMS electron-hole separation [Ang]:   4.848044
      Cartesian components [Ang]:       [  2.402013,   2.364869,   3.484431]
    Covariance(r_h, r_e) [Ang^2]:        -0.003127
    Correlation coefficient:             -0.000494
    Center-of-mass size [Ang]:            1.928678
      Cartesian components [Ang]:       [  1.202246,   1.182775,   0.935653]

  Decomposition into state-averaged NTOs
    H- 1 -> L+ 7: -0.6507 ( 84.7%)
    H- 1 -> L+ 6:  0.1202 (  2.9%)
    H- 1 -> L+ 0: -0.0861 (  1.5%)
                   omega =  89.2%
  ----------------------------------------------------------------------------


  Excited state 6 (singlet, A2)                                    [converged]
  ----------------------------------------------------------------------------
  Term symbol:  6 (1) A2                                    R^2 =  2.29546e-08

  Total energy:                                            -78.4670844471 a.u.
  Excitation energy:                                               9.565668 eV

  Osc. strength:                                                      0.000000
  Trans. dip. moment [a.u.]:           [   0.000000,   -0.000000,   -0.000000]
  <i|r^2|0> [a.u.]:                    [   0.000000,    0.000000,    0.000000]

  Dip. moment [a.u.]:                  [  -0.000000,    0.000000,   -4.275470]
  Total dipole [Debye]:                                              10.867163
  <r^2> [a.u.]:                        [  61.893896,   54.793456,   99.404551]
  Total <r^2> [a.u.]:                                               216.091903

  V1^2 = 0.9318, V2^2 = 0.0682

  Important amplitudes:
      occ i      occ j       vir a       vir b          v   
    ---------------------------------------------------------
     3 (B1) A               2 (B2) A                 -0.6630
     3 (B1) A               3 (B2) A                 -0.1304
    ---------------------------------------------------------

  Density matrix analysis:
  ------------------------
  NOs
    Occupation of frontier NOs:
       0.9790   1.0375
    Number of electrons: 18.000000
    Number of unpaired electrons: n_u =  2.49732, n_u,nl =  2.08875
    NO participation ratio (PR_NO):  3.266049
  
  
  Mulliken Population Analysis
  Atom      Charge (e)              h+              e-           Del q
  --------------------------------------------------------------------
   1 C       -0.715205        0.304826       -0.643086       -0.338261
   2 C       -0.715205        0.304826       -0.643086       -0.338261
   3 H        0.293368        0.175865       -0.020466        0.155400
   4 H        0.293368        0.175865       -0.020466        0.155400
   5 H        0.211550        0.189759       -0.009912        0.179847
   6 H        0.211550        0.189759       -0.009912        0.179847
   7 H       -0.579427        0.035567       -0.029540        0.006027
  --------------------------------------------------------------------
  Sum:       -1.000000        1.376467       -1.376467        0.000000
  
  Multipole moment analysis of the density matrix
    Molecular charge:                      -1.000000
    Number of electrons:                   18.000000
      Center of electronic charge [Ang]: [  0.000000,  -0.000000,   0.125693]
    Total nuclear charge:                  17.000000
      Center of nuclear charge [Ang]:    [ -0.000000,   0.000000,  -0.000000]
    Dipole moment [D]:                     10.867159
      Cartesian components [D]:          [ -0.000000,   0.000000, -10.867159]
    RMS size of the density [Ang]:         1.829200
      Cartesian components [Ang]:        [  0.981271,   0.923271,   1.237195]
  
  Exciton analysis of the difference density matrix
    <r_h> [Ang]:                  [  0.000000,  -0.000000,  -0.065929]
    <r_e> [Ang]:                  [  0.000000,  -0.000000,  -0.101087]
    |<r_e - r_h>| [Ang]:            0.035158
    Hole size [Ang]:                1.954960
      Cartesian components [Ang]: [  1.247436,   0.764843,   1.296452]
    Electron size [Ang]:            3.804599
      Cartesian components [Ang]: [  1.779675,   2.858904,   1.770424]

  Transition density matrix analysis:
  -----------------------------------
  
  CT numbers (Mulliken)
    omega =     0.9161
    <Phe> =    -0.0005
  
  Exciton analysis of the transition density matrix
    Trans. dipole moment [D]:             0.000000
      Cartesian components [D]:         [  0.000000,  -0.000000,  -0.000000]
    <r_h> [Ang]:                        [  0.000000,   0.000000,  -0.141092]
    <r_e> [Ang]:                        [  0.000000,  -0.000000,  -0.189713]
    |<r_e - r_h>| [Ang]:                  0.048621
    Hole size [Ang]:                      1.518077
      Cartesian components [Ang]:       [  1.125419,   0.413773,   0.931011]
    Electron size [Ang]:                  4.293851
      Cartesian components [Ang]:       [  1.965299,   3.306004,   1.909212]
    RMS electron-hole separation [Ang]:   4.524515
      Cartesian components [Ang]:       [  2.204218,   3.331480,   2.124594]
    Covariance(r_h, r_e) [Ang^2]:         0.136421
    Correlation coefficient:              0.020929
    Center-of-mass size [Ang]:            2.292082
      Cartesian components [Ang]:       [  1.161826,   1.666057,   1.062098]

  Decomposition into state-averaged NTOs
    H- 3 -> L+ 2:  0.6704 ( 89.9%)
    H- 2 -> L+ 0: -0.0883 (  1.6%)
                   omega =  91.6%
  ----------------------------------------------------------------------------


  Excited state 7 (singlet, A2)                                    [converged]
  ----------------------------------------------------------------------------
  Term symbol:  7 (1) A2                                    R^2 =  3.17802e-08

  Total energy:                                            -78.4659538483 a.u.
  Excitation energy:                                               9.596433 eV

  Osc. strength:                                                      0.000000
  Trans. dip. moment [a.u.]:           [  -0.000000,    0.000000,    0.000000]
  <i|r^2|0> [a.u.]:                    [  -0.000000,    0.000000,    0.000000]

  Dip. moment [a.u.]:                  [   0.000000,    0.000000,   -4.294102]
  Total dipole [Debye]:                                              10.914520
  <r^2> [a.u.]:                        [  56.195920,   22.147789,   92.338913]
  Total <r^2> [a.u.]:                                               170.682622

  V1^2 = 0.9530, V2^2 = 0.0470

  Important amplitudes:
      occ i      occ j       vir a       vir b          v   
    ---------------------------------------------------------
     4 (A1) A               2 (A2) A                  0.5666
     4 (A1) A               1 (A2) A                 -0.2648
    ---------------------------------------------------------

  Density matrix analysis:
  ------------------------
  NOs
    Occupation of frontier NOs:
       0.9527   1.0423
    Number of electrons: 18.000000
    Number of unpaired electrons: n_u =  2.41177, n_u,nl =  2.05322
    NO participation ratio (PR_NO):  3.159743
  
  
  Mulliken Population Analysis
  Atom      Charge (e)              h+              e-           Del q
  --------------------------------------------------------------------
   1 C       -0.509359        0.432509       -0.564923       -0.132414
   2 C       -0.509359        0.432509       -0.564923       -0.132414
   3 H        0.200639        0.072169       -0.009498        0.062670
   4 H        0.200639        0.072169       -0.009498        0.062670
   5 H        0.101119        0.076141       -0.006725        0.069416
   6 H        0.101119        0.076141       -0.006725        0.069416
   7 H       -0.584798        0.007704       -0.007049        0.000655
  --------------------------------------------------------------------
  Sum:       -1.000000        1.169342       -1.169342        0.000000
  
  Multipole moment analysis of the density matrix
    Molecular charge:                      -1.000000
    Number of electrons:                   18.000000
      Center of electronic charge [Ang]: [ -0.000000,  -0.000000,   0.126241]
    Total nuclear charge:                  17.000000
      Center of nuclear charge [Ang]:    [ -0.000000,   0.000000,  -0.000000]
    Dipole moment [D]:                     10.914517
      Cartesian components [D]:          [  0.000000,   0.000000, -10.914517]
    RMS size of the density [Ang]:         1.624622
      Cartesian components [Ang]:        [  0.935012,   0.586989,   1.191886]
  
  Exciton analysis of the difference density matrix
    <r_h> [Ang]:                  [  0.000000,  -0.000000,  -0.153845]
    <r_e> [Ang]:                  [ -0.000000,  -0.000000,  -0.186798]
    |<r_e - r_h>| [Ang]:            0.032954
    Hole size [Ang]:                1.513934
      Cartesian components [Ang]: [  1.134291,   0.585916,   0.813685]
    Electron size [Ang]:            1.988308
      Cartesian components [Ang]: [  1.348562,   1.207450,   0.822687]

  Transition density matrix analysis:
  -----------------------------------
  
  CT numbers (Mulliken)
    omega =     0.9213
    <Phe> =    -0.0144
  
  Exciton analysis of the transition density matrix
    Trans. dipole moment [D]:             0.000000
      Cartesian components [D]:         [ -0.000000,   0.000000,   0.000000]
    <r_h> [Ang]:                        [  0.000000,  -0.000000,  -0.164753]
    <r_e> [Ang]:                        [ -0.000000,  -0.000000,  -0.211543]
    |<r_e - r_h>| [Ang]:                  0.046790
    Hole size [Ang]:                      1.299865
      Cartesian components [Ang]:       [  1.068397,   0.425889,   0.605636]
    Electron size [Ang]:                  2.055943
      Cartesian components [Ang]:       [  1.408019,   1.273192,   0.789535]
    RMS electron-hole separation [Ang]:   2.423994
      Cartesian components [Ang]:       [  1.756473,   1.341239,   0.995804]
    Covariance(r_h, r_e) [Ang^2]:         0.021496
    Correlation coefficient:              0.008043
    Center-of-mass size [Ang]:            1.220608
      Cartesian components [Ang]:       [  0.889210,   0.671914,   0.497716]

  Decomposition into state-averaged NTOs
    H- 2 -> L+ 0:  0.6624 ( 87.8%)
    H- 3 -> L+ 2:  0.0895 (  1.6%)
    H- 0 -> L+ 3: -0.0758 (  1.2%)
                   omega =  92.1%
  ----------------------------------------------------------------------------


  Excited state 8 (singlet, A2)                                    [converged]
  ----------------------------------------------------------------------------
  Term symbol:  8 (1) A2                                    R^2 =  1.79197e-08

  Total energy:                                            -78.4556523097 a.u.
  Excitation energy:                                               9.876752 eV

  Osc. strength:                                                      0.000000
  Trans. dip. moment [a.u.]:           [  -0.000000,    0.000000,    0.000000]
  <i|r^2|0> [a.u.]:                    [  -0.000000,   -0.000000,   -0.000000]

  Dip. moment [a.u.]:                  [  -0.000000,    0.000000,   -2.735477]
  Total dipole [Debye]:                                               6.952891
  <r^2> [a.u.]:                        [  82.781093,   25.039201,  101.447286]
  Total <r^2> [a.u.]:                                               209.267579

  V1^2 = 0.9449, V2^2 = 0.0551

  Important amplitudes:
      occ i      occ j       vir a       vir b          v   
    ---------------------------------------------------------
     1 (B2) A               6 (B1) A                 -0.6501
     1 (B2) A               4 (B1) A                  0.1435
    ---------------------------------------------------------

  Density matrix analysis:
  ------------------------
  NOs
    Occupation of frontier NOs:
       0.9658   1.0028
    Number of electrons: 18.000000
    Number of unpaired electrons: n_u =  2.39583, n_u,nl =  2.04270
    NO participation ratio (PR_NO):  2.960453
  
  
  Mulliken Population Analysis
  Atom      Charge (e)              h+              e-           Del q
  --------------------------------------------------------------------
   1 C       -0.649583        0.531378       -0.804016       -0.272638
   2 C       -0.649583        0.531378       -0.804016       -0.272638
   3 H        0.187742        0.060131       -0.010358        0.049773
   4 H        0.187742        0.060131       -0.010358        0.049773
   5 H        0.256635        0.109199        0.115733        0.224932
   6 H        0.256635        0.109199        0.115733        0.224932
   7 H       -0.589588        0.027937       -0.032072       -0.004135
  --------------------------------------------------------------------
  Sum:       -1.000000        1.429353       -1.429353       -0.000000
  
  Multipole moment analysis of the density matrix
    Molecular charge:                      -1.000000
    Number of electrons:                   18.000000
      Center of electronic charge [Ang]: [  0.000000,  -0.000000,   0.080420]
    Total nuclear charge:                  17.000000
      Center of nuclear charge [Ang]:    [ -0.000000,   0.000000,  -0.000000]
    Dipole moment [D]:                     6.952889
      Cartesian components [D]:          [ -0.000000,   0.000000,  -6.952889]
    RMS size of the density [Ang]:         1.802536
      Cartesian components [Ang]:        [  1.134829,   0.624130,   1.253699]
  
  Exciton analysis of the difference density matrix
    <r_h> [Ang]:                  [ -0.000000,  -0.000000,  -0.156995]
    <r_e> [Ang]:                  [  0.000000,  -0.000000,  -0.760990]
    |<r_e - r_h>| [Ang]:            0.603996
    Hole size [Ang]:                1.847967
      Cartesian components [Ang]: [  1.122806,   0.942569,   1.125101]
    Electron size [Ang]:            3.433388
      Cartesian components [Ang]: [  2.627603,   1.538433,   1.586530]

  Transition density matrix analysis:
  -----------------------------------
  
  CT numbers (Mulliken)
    omega =     0.9137
    <Phe> =    -0.0053
  
  Exciton analysis of the transition density matrix
    Trans. dipole moment [D]:             0.000000
      Cartesian components [D]:         [ -0.000000,   0.000000,   0.000000]
    <r_h> [Ang]:                        [ -0.000000,  -0.000000,  -0.195025]
    <r_e> [Ang]:                        [  0.000000,  -0.000000,  -1.117106]
    |<r_e - r_h>| [Ang]:                  0.922081
    Hole size [Ang]:                      1.270945
      Cartesian components [Ang]:       [  0.768939,   0.868881,   0.518729]
    Electron size [Ang]:                  3.855019
      Cartesian components [Ang]:       [  3.044770,   1.768719,   1.569132]
    RMS electron-hole separation [Ang]:   4.154233
      Cartesian components [Ang]:       [  3.134617,   1.963266,   1.891404]
    Covariance(r_h, r_e) [Ang^2]:         0.034527
    Correlation coefficient:              0.007047
    Center-of-mass size [Ang]:            2.033809
      Cartesian components [Ang]:       [  1.573051,   0.988968,   0.826942]

  Decomposition into state-averaged NTOs
    H- 0 -> L+ 3:  0.5368 ( 57.6%)
    H- 0 -> L+ 5: -0.3314 ( 22.0%)
    H- 0 -> L+ 1: -0.1547 (  4.8%)
    H- 0 -> L+ 4:  0.1541 (  4.7%)
    H- 2 -> L+ 0:  0.1041 (  2.2%)
                   omega =  91.4%
  ----------------------------------------------------------------------------


  Excited state 9 (singlet, A2)                                    [converged]
  ----------------------------------------------------------------------------
  Term symbol:  9 (1) A2                                    R^2 =  3.45241e-10

  Total energy:                                            -78.4441868179 a.u.
  Excitation energy:                                              10.188744 eV

  Osc. strength:                                                      0.000000
  Trans. dip. moment [a.u.]:           [   0.000000,    0.000000,   -0.000000]
  <i|r^2|0> [a.u.]:                    [  -0.000000,    0.000000,    0.000000]

  Dip. moment [a.u.]:                  [  -0.000000,   -0.000000,   10.525091]
  Total dipole [Debye]:                                              26.752119
  <r^2> [a.u.]:                        [ 113.685921,   73.491506,   64.804599]
  Total <r^2> [a.u.]:                                               251.982026

  V1^2 = 0.0001, V2^2 = 0.9999

  Important amplitudes:
      occ i      occ j       vir a       vir b          v   
    ---------------------------------------------------------
     5 (A1) A   5 (A1) B    4 (B1) A    2 (B2) B     -0.3535
     5 (A1) A               3 (A2) A                 -0.0028
    ---------------------------------------------------------

  Density matrix analysis:
  ------------------------
  NOs
    Occupation of frontier NOs:
       1.0003   1.0008
    Number of electrons: 18.000000
    Number of unpaired electrons: n_u =  2.41084, n_u,nl =  2.07149
    NO participation ratio (PR_NO):  2.883010
  
  
  Mulliken Population Analysis
  Atom      Charge (e)              h+              e-           Del q
  --------------------------------------------------------------------
   1 C       -1.184344        0.158488       -0.965887       -0.807399
   2 C       -1.184344        0.158488       -0.965887       -0.807399
   3 H        0.165751        0.024197        0.003585        0.027782
   4 H        0.165751        0.024197        0.003585        0.027782
   5 H       -0.005622        0.000347       -0.037672       -0.037325
   6 H       -0.005622        0.000347       -0.037672       -0.037325
   7 H        1.048430        1.633893       -0.000010        1.633884
  --------------------------------------------------------------------
  Sum:       -1.000000        1.999957       -1.999957        0.000000
  
  Multipole moment analysis of the density matrix
    Molecular charge:                      -1.000000
    Number of electrons:                   18.000000
      Center of electronic charge [Ang]: [  0.000000,   0.000000,  -0.309424]
    Total nuclear charge:                  17.000000
      Center of nuclear charge [Ang]:    [ -0.000000,   0.000000,  -0.000000]
    Dipole moment [D]:                     26.752111
      Cartesian components [D]:          [ -0.000000,  -0.000000,  26.752111]
    RMS size of the density [Ang]:         1.955601
      Cartesian components [Ang]:        [  1.329898,   1.069260,   0.955212]
  
  Exciton analysis of the difference density matrix
    <r_h> [Ang]:                  [  0.000000,  -0.000000,   2.831246]
    <r_e> [Ang]:                  [  0.000000,  -0.000000,  -1.109096]
    |<r_e - r_h>| [Ang]:            3.940342
    Hole size [Ang]:                1.709699
      Cartesian components [Ang]: [  0.858204,   0.838026,   1.218305]
    Electron size [Ang]:            4.697892
      Cartesian components [Ang]: [  3.016150,   2.922842,   2.104763]

  Transition density matrix analysis:
  -----------------------------------
  
  CT numbers (Mulliken)
    omega =     0.0001
    <Phe> =     0.1663
  
  Exciton analysis of the transition density matrix
    Trans. dipole moment [D]:             0.000000
      Cartesian components [D]:         [  0.000000,   0.000000,  -0.000000]
    <r_h> [Ang]:                        [  0.000000,  -0.000000,   0.836322]
    <r_e> [Ang]:                        [  0.000000,  -0.000000,  -1.065601]
    |<r_e - r_h>| [Ang]:                  1.901923
    Hole size [Ang]:                      2.947120
      Cartesian components [Ang]:       [  1.357995,   1.693366,   1.993458]
    Electron size [Ang]:                  4.515300
      Cartesian components [Ang]:       [  3.223846,   2.511939,   1.919612]
    RMS electron-hole separation [Ang]:   5.594647
      Cartesian components [Ang]:       [  3.492741,   2.954149,   3.220844]
    Covariance(r_h, r_e) [Ang^2]:         0.695343
    Correlation coefficient:              0.052253
    Center-of-mass size [Ang]:            2.759716
      Cartesian components [Ang]:       [  1.751815,   1.551424,   1.462963]

  Decomposition into state-averaged NTOs
                   omega =   0.0%
  ----------------------------------------------------------------------------


  Excited state 10 (singlet, A2)                                    [converged]
  ----------------------------------------------------------------------------
  Term symbol:  10 (1) A2                                   R^2 =  2.02604e-06

  Total energy:                                            -78.4283926993 a.u.
  Excitation energy:                                              10.618524 eV

  Osc. strength:                                                      0.000000
  Trans. dip. moment [a.u.]:           [   0.000000,    0.000000,   -0.000000]
  <i|r^2|0> [a.u.]:                    [  -0.000000,   -0.000000,   -0.000000]

  Dip. moment [a.u.]:                  [   0.000000,   -0.000000,   -4.770037]
  Total dipole [Debye]:                                              12.124226
  <r^2> [a.u.]:                        [  75.328419,   24.727817,  102.934979]
  Total <r^2> [a.u.]:                                               202.991216

  V1^2 = 0.9459, V2^2 = 0.0541

  Important amplitudes:
      occ i      occ j       vir a       vir b          v   
    ---------------------------------------------------------
     1 (B2) A               7 (B1) A                  0.6716
     1 (B2) A               5 (B1) A                  0.0941
    ---------------------------------------------------------

  Density matrix analysis:
  ------------------------
  NOs
    Occupation of frontier NOs:
       0.9831   0.9936
    Number of electrons: 18.000000
    Number of unpaired electrons: n_u =  2.35356, n_u,nl =  2.02979
    NO participation ratio (PR_NO):  2.823920
  
  
  Mulliken Population Analysis
  Atom      Charge (e)              h+              e-           Del q
  --------------------------------------------------------------------
   1 C       -0.604016        0.537526       -0.764597       -0.227071
   2 C       -0.604016        0.537526       -0.764597       -0.227071
   3 H        0.255984        0.084685        0.033330        0.118015
   4 H        0.255984        0.084685        0.033330        0.118015
   5 H        0.135061        0.107225       -0.003867        0.103358
   6 H        0.135061        0.107225       -0.003867        0.103358
   7 H       -0.574059        0.033739       -0.022345        0.011395
  --------------------------------------------------------------------
  Sum:       -1.000000        1.492613       -1.492613        0.000000
  
  Multipole moment analysis of the density matrix
    Molecular charge:                      -1.000000
    Number of electrons:                   18.000000
      Center of electronic charge [Ang]: [ -0.000000,   0.000000,   0.140233]
    Total nuclear charge:                  17.000000
      Center of nuclear charge [Ang]:    [ -0.000000,   0.000000,  -0.000000]
    Dipole moment [D]:                     12.124222
      Cartesian components [D]:          [  0.000000,  -0.000000, -12.124222]
    RMS size of the density [Ang]:         1.771524
      Cartesian components [Ang]:        [  1.082541,   0.620237,   1.257660]
  
  Exciton analysis of the difference density matrix
    <r_h> [Ang]:                  [  0.000000,  -0.000000,  -0.121390]
    <r_e> [Ang]:                  [ -0.000000,   0.000000,   0.021527]
    |<r_e - r_h>| [Ang]:            0.142917
    Hole size [Ang]:                1.788117
      Cartesian components [Ang]: [  1.085445,   0.911291,   1.090284]
    Electron size [Ang]:            3.253211
      Cartesian components [Ang]: [  2.276930,   1.479094,   1.791996]

  Transition density matrix analysis:
  -----------------------------------
  
  CT numbers (Mulliken)
    omega =     0.9153
    <Phe> =    -0.0012
  
  Exciton analysis of the transition density matrix
    Trans. dipole moment [D]:             0.000000
      Cartesian components [D]:         [  0.000000,   0.000000,  -0.000000]
    <r_h> [Ang]:                        [  0.000000,  -0.000000,  -0.195998]
    <r_e> [Ang]:                        [ -0.000000,   0.000000,   0.022469]
    |<r_e - r_h>| [Ang]:                  0.218467
    Hole size [Ang]:                      1.273263
      Cartesian components [Ang]:       [  0.762683,   0.878107,   0.518111]
    Electron size [Ang]:                  3.801415
      Cartesian components [Ang]:       [  2.688364,   1.745147,   2.043994]
    RMS electron-hole separation [Ang]:   4.010006
      Cartesian components [Ang]:       [  2.789783,   1.950492,   2.119631]
    Covariance(r_h, r_e) [Ang^2]:         0.019767
    Correlation coefficient:              0.004084
    Center-of-mass size [Ang]:            2.006956
      Cartesian components [Ang]:       [  1.399561,   0.978366,   1.054466]

  Decomposition into state-averaged NTOs
    H- 0 -> L+ 1: -0.6052 ( 73.2%)
    H- 0 -> L+ 3: -0.2118 (  9.0%)
    H- 0 -> L+ 4:  0.2111 (  8.9%)
                   omega =  91.5%
  ----------------------------------------------------------------------------


--------------------------------------------------------------------------------
  Time of ADC calculation:  CPU 132.74 s  wall 39.02 s
================================================================================
 
 --------------------------------------------------------------
             Orbital Energies (a.u.) and Symmetries
 --------------------------------------------------------------
 
 Alpha MOs, Restricted
 -- Occupied --                  
-11.078 -11.077  -0.884  -0.626  -0.501  -0.411  -0.355  -0.221
  1 A1    1 B1    2 A1    2 B1    3 A1    4 A1    3 B1    1 B2                 
 -0.033
  5 A1                                                                         
 -- Virtual --                   
  0.143   0.165   0.168   0.171   0.175   0.186   0.262   0.282
  4 B1    2 B2    6 A1    1 A2    7 A1    5 B1    8 A1    2 A2                 
  0.320   0.329   0.343   0.367   0.370   0.380   0.448   0.457
  6 B1    7 B1    9 A1    3 B2    8 B1   10 A1    3 A2   11 A1                 
  0.496   0.502   0.661   0.701   0.884   0.978   1.018   1.033
 12 A1    9 B1   10 B1   11 B1   13 A1   14 A1   15 A1   16 A1                 
  1.081   1.085   1.109   1.133   1.148   1.224   1.227   1.272
 12 B1    4 B2   17 A1    4 A2   13 B1   14 B1   18 A1    5 B2                 
  1.440   1.443   1.458   1.510   1.768   1.773   1.870   1.884
  6 B2    5 A2   15 B1   16 B1   19 A1   17 B1   20 A1    7 B2                 
  1.918   1.964   2.014   2.078   2.096   2.167   2.179   2.225
 18 B1   21 A1    6 A2   19 B1    8 B2   22 A1    9 B2   23 A1                 
  2.329   2.475   2.571   2.619   2.720   2.741   2.955   2.982
  7 A2   20 B1    8 A2   24 A1   21 B1   22 B1   25 A1   26 A1                 
  3.400   3.501
 23 B1   24 B1                                                                 
 
 Beta MOs, Restricted
 -- Occupied --                  
-11.078 -11.077  -0.884  -0.626  -0.501  -0.411  -0.355  -0.221
  1 A1    1 B1    2 A1    2 B1    3 A1    4 A1    3 B1    1 B2                 
 -0.033
  5 A1                                                                         
 -- Virtual --                   
  0.143   0.165   0.168   0.171   0.175   0.186   0.262   0.282
  4 B1    2 B2    6 A1    1 A2    7 A1    5 B1    8 A1    2 A2                 
  0.320   0.329   0.343   0.367   0.370   0.380   0.448   0.457
  6 B1    7 B1    9 A1    3 B2    8 B1   10 A1    3 A2   11 A1                 
  0.496   0.502   0.661   0.701   0.884   0.978   1.018   1.033
 12 A1    9 B1   10 B1   11 B1   13 A1   14 A1   15 A1   16 A1                 
  1.081   1.085   1.109   1.133   1.148   1.224   1.227   1.272
 12 B1    4 B2   17 A1    4 A2   13 B1   14 B1   18 A1    5 B2                 
  1.440   1.443   1.458   1.510   1.768   1.773   1.870   1.884
  6 B2    5 A2   15 B1   16 B1   19 A1   17 B1   20 A1    7 B2                 
  1.918   1.964   2.014   2.078   2.096   2.167   2.179   2.225
 18 B1   21 A1    6 A2   19 B1    8 B2   22 A1    9 B2   23 A1                 
  2.329   2.475   2.571   2.619   2.720   2.741   2.955   2.982
  7 A2   20 B1    8 A2   24 A1   21 B1   22 B1   25 A1   26 A1                 
  3.400   3.501
 23 B1   24 B1                                                                 
 --------------------------------------------------------------
 
          Ground-State Mulliken Net Atomic Charges

     Atom                 Charge (a.u.)
  ----------------------------------------
      1 C                    -0.344201
      2 C                    -0.344201
      3 H                     0.138516
      4 H                     0.138516
      5 H                     0.024117
      6 H                     0.024117
      7 H                    -0.636866
  ----------------------------------------
  Sum of atomic charges =    -1.000000

 -----------------------------------------------------------------
                    Cartesian Multipole Moments
 -----------------------------------------------------------------
    Charge (ESU x 10^10)
                -4.8032
    Dipole Moment (Debye)
         X      -0.0000      Y       0.0000      Z     -11.6078
       Tot      11.6078
    Quadrupole Moments (Debye-Ang)
        XX     -20.4938     XY       0.0000     YY     -23.1863
        XZ      -0.0000     YZ       0.0000     ZZ     -59.5403
    Octopole Moments (Debye-Ang^2)
       XXX      -0.0000    XXY      -0.0000    XYY       0.0000
       YYY       0.0000    XXZ      -7.8479    XYZ       0.0000
       YYZ     -10.6957    XZZ      -0.0000    YZZ       0.0000
       ZZZ    -138.0415
    Hexadecapole Moments (Debye-Ang^3)
      XXXX    -113.4415   XXXY      -0.0000   XXYY     -28.3045
      XYYY       0.0000   YYYY     -56.8278   XXXZ      -0.0000
      XXYZ       0.0000   XYYZ      -0.0000   YYYZ       0.0000
      XXZZ     -80.9039   XYZZ       0.0000   YYZZ     -73.4178
      XZZZ      -0.0000   YZZZ       0.0000   ZZZZ    -695.0006
 -----------------------------------------------------------------
 Total job time:  119.90s(wall), 176.78s(cpu) 
 Thu Feb 17 13:09:53 2022

        *************************************************************
        *                                                           *
        *  Thank you very much for using Q-Chem.  Have a nice day.  *
        *                                                           *
        *************************************************************


