/src/tsommerfeld/qchem/exe/qcprog.exe .input1.555556.13827.qcin.1 /src/jdavis/qchem.scratch/qchem13827/

                  Welcome to Q-Chem
     A Quantum Leap Into The Future Of Chemistry


 Q-Chem 5.4 (devel), Q-Chem, Inc., Pleasanton, CA (2021)

 E. Epifanovsky,  A. T. B. Gilbert,  Xintian Feng,  Joonho Lee,  Yuezhi Mao,  
 N. Mardirossian,  P. Pokhilko,  A. White,  M. Wormit,  M. P. Coons,  
 A. L. Dempwolff,  Zhengting Gan,  D. Hait,  P. R. Horn,  L. D. Jacobson,  
 I. Kaliman,  J. Kussmann,  A. W. Lange,  Ka Un Lao,  D. S. Levine,  Jie Liu,  
 S. C. McKenzie,  A. F. Morrison,  K. Nanda,  F. Plasser,  D. R. Rehn,  
 M. L. Vidal,  Zhi-Qiang You,  Ying Zhu,  B. Alam,  B. Albrecht,  
 A. Aldossary,  E. Alguire,  J. H. Andersen,  D. Barton,  K. Begam,  A. Behn,  
 Y. A. Bernard,  E. J. Berquist,  H. Burton,  A. Carreras,  K. Carter-Fenk,  
 R. Chakraborty,  A. D. Chien,  K. D. Closser,  V. Cofer-Shabica,  
 S. Dasgupta,  Jia Deng,  M. de Wergifosse,  M. Diedenhofen,  Hainam Do,  
 S. Ehlert,  Po-Tung Fang,  S. Fatehi,  Qingguo Feng,  T. Friedhoff,  
 J. Gayvert,  Qinghui Ge,  G. Gidofalvi,  M. Goldey,  J. Gomes,  
 C. Gonzalez-Espinoza,  S. Gulania,  A. Gunina,  M. W. D. Hanson-Heine,  
 P. H. P. Harbach,  A. W. Hauser,  M. F. Herbst,  M. Hernandez Vera,  
 M. Hodecker,  Z. C. Holden,  S. Houck,  Xunkun Huang,  Kerwin Hui,  
 B. C. Huynh,  M. Ivanov,  Hyunjun Ji,  Hanjie Jiang,  B. Kaduk,  S. Kaehler,  
 K. Khistyaev,  Jaehoon Kim,  P. Klunzinger,  Z. Koczor-Benda,  
 Joong Hoon Koh,  D. Kosenkov,  L. Koulias,  T. Kowalczyk,  C. M. Krauter,  
 K. Kue,  A. Kunitsa,  T. Kus,  A. Landau,  K. V. Lawler,  D. Lefrancois,  
 S. Lehtola,  Rain Li,  Yi-Pei Li,  Jiashu Liang,  M. Liebenthal,  
 Hung-Hsuan Lin,  You-Sheng Lin,  Fenglai Liu,  Kuan-Yu Liu,  
 M. Loipersberger,  A. Luenser,  A. Manjanath,  P. Manohar,  E. Mansoor,  
 S. F. Manzer,  Shan-Ping Mao,  A. V. Marenich,  T. Markovich,  S. Mason,  
 S. A. Maurer,  P. F. McLaughlin,  M. F. S. J. Menger,  J.-M. Mewes,  
 S. A. Mewes,  P. Morgante,  J. W. Mullinax,  K. J. Oosterbaan,  G. Paran,  
 Alexander C. Paul,  Suranjan K. Paul,  F. Pavosevic,  Zheng Pei,  S. Prager,  
 E. I. Proynov,  E. Ramos,  B. Rana,  A. E. Rask,  A. Rettig,  R. M. Richard,  
 F. Rob,  E. Rossomme,  T. Scheele,  M. Scheurer,  M. Schneider,  
 N. Sergueev,  S. M. Sharada,  W. Skomorowski,  D. W. Small,  C. J. Stein,  
 Yu-Chuan Su,  E. J. Sundstrom,  Zhen Tao,  J. Thirman,  T. Tsuchimochi,  
 N. M. Tubman,  S. P. Veccham,  O. Vydrov,  J. Wenzel,  J. Witte,  A. Yamada,  
 Kun Yao,  S. Yeganeh,  S. R. Yost,  A. Zech,  Igor Ying Zhang,  Xing Zhang,  
 Yu Zhang,  D. Zuev,  A. Aspuru-Guzik,  A. T. Bell,  N. A. Besley,  
 K. B. Bravaya,  B. R. Brooks,  D. Casanova,  Jeng-Da Chai,  S. Coriani,  
 C. J. Cramer,  A. E. DePrince, III,  R. A. DiStasio Jr.,  A. Dreuw,  
 B. D. Dunietz,  T. R. Furlani,  W. A. Goddard III,  S. Grimme,  
 S. Hammes-Schiffer,  T. Head-Gordon,  W. J. Hehre,  Chao-Ping Hsu,  
 T.-C. Jagau,  Yousung Jung,  A. Klamt,  Jing Kong,  D. S. Lambrecht,  
 WanZhen Liang,  N. J. Mayhall,  C. W. McCurdy,  J. B. Neaton,  
 C. Ochsenfeld,  J. A. Parkhill,  R. Peverati,  V. A. Rassolov,  Yihan Shao,  
 L. V. Slipchenko,  T. Stauch,  R. P. Steele,  J. E. Subotnik,  
 A. J. W. Thom,  A. Tkatchenko,  D. G. Truhlar,  T. Van Voorhis,  
 T. A. Wesolowski,  K. B. Whaley,  H. L. Woodcock III,  P. M. Zimmerman,  
 S. Faraji,  P. M. W. Gill,  M. Head-Gordon,  J. M. Herbert,  A. I. Krylov

 Additional authors for Version 5.4.1: 
 S. Kotaru,  Shaozhi Li,  Xiangyuan Li,  F. Matz,  A. Molle,  Haisheng Ren,  
 Yingli Su,  Hung-Yi Tsai,  C. Utku,  Fang Wang

 Contributors to earlier versions of Q-Chem not listed above: 
 R. D. Adamson,  B. Austin,  R. Baer,  J. Baker,  G. J. O. Beran,  
 K. Brandhorst,  S. T. Brown,  E. F. C. Byrd,  A. K. Chakraborty,  
 G. K. L. Chan,  Chun-Min Chang,  Yunqing Chen,  C.-L. Cheng,  
 Siu Hung Chien,  D. M. Chipman,  D. L. Crittenden,  H. Dachsel,  
 R. J. Doerksen,  A. D. Dutoi,  R. G. Edgar,  J. Fosso-Tande,  
 L. Fusti-Molnar,  D. Ghosh,  A. Ghysels,  A. Golubeva-Zadorozhnaya,  
 J. Gonthier,  M. S. Gordon,  S. R. Gwaltney,  G. Hawkins,  J. E. Herr,  
 A. Heyden,  S. Hirata,  E. G. Hohenstein,  G. Kedziora,  F. J. Keil,  
 C. Kelley,  Jihan Kim,  R. A. King,  R. Z. Khaliullin,  P. P. Korambath,  
 W. Kurlancheek,  A. Laurent,  A. M. Lee,  M. S. Lee,  S. V. Levchenko,  
 Ching Yeh Lin,  D. Liotard,  E. Livshits,  R. C. Lochan,  I. Lotan,  
 L. A. Martinez-Martinez,  P. E. Maslen,  N. Nair,  D. P. O'Neill,  
 D. Neuhauser,  E. Neuscamman,  C. M. Oana,  R. Olivares-Amaya,  R. Olson,  
 T. M. Perrine,  B. Peters,  P. A. Pieniazek,  A. Prociuk,  Y. M. Rhee,  
 J. Ritchie,  M. A. Rohrdanz,  E. Rosta,  N. J. Russ,  H. F. Schaefer III,  
 M. W. Schmidt,  N. E. Schultz,  S. Sharma,  N. Shenvi,  C. D. Sherrill,  
 A. C. Simmonett,  A. Sodt,  T. Stein,  D. Stuck,  K. S. Thanthiriwatte,  
 V. Vanovschi,  L. Vogt,  Tao Wang,  A. Warshel,  M. A. Watson,  
 C. F. Williams,  Q. Wu,  X. Xu,  Jun Yang,  W. Zhang,  Yan Zhao

 Please cite Q-Chem as follows:
 Y. Shao et al., Mol. Phys. 113, 184-215 (2015)
 DOI: 10.1080/00268976.2014.952696

 Q-Chem 5.4.1 for Intel X86 EM64T Linux

 Parts of Q-Chem use Armadillo 9.900.5 (Nocturnal Misbehaviour).
 http://arma.sourceforge.net/

 Q-Chem begins on Thu Feb 17 13:27:21 2022  

 Host: node01
0

     Scratch files written to /src/jdavis/qchem.scratch/qchem13827//
 Processing $rem in /src/tsommerfeld/qchem/config/preferences:
 Processing $rem in /home/jdavis/.qchemrc:

 Checking the input file for inconsistencies... 	...done.

--------------------------------------------------------------
User input:
--------------------------------------------------------------
$molecule
-1 1
C        -0.6645000000    0.0000000000   -0.2082049804
C         0.6645000000    0.0000000000   -0.2082049804
H        -1.1590800000    0.0000000000    0.7541440196
H         1.1590800000    0.0000000000    0.7541440196
H        -1.1590800000    0.0000000000   -1.1705529804
H         1.1590800000    0.0000000000   -1.1705529804
H         0.0000000000    0.0000000000    3.0139349415
$end

$rem
   METHOD adc(2)
   BASIS gen
   PURECART 11
   EE_STATES [0,10,0,0]
   scf_convergence 8
   ADC_DAVIDSON_MAXITER 120
   ADC_DAVIDSON_MAXSUBSPACE 200
   adc_nguess_singles 100
   THRESH 14
   S2THRESH 14
   adc_davidson_conv 5
   adc_davidson_thresh 14
   THREADS 10
   MEM_TOTAL 95000
   STATE_ANALYSIS TRUE
$end
$basis
C 1
S   9   1.00
      6.665000D+03           6.920000D-04
      1.000000D+03           5.329000D-03
      2.280000D+02           2.707700D-02
      6.471000D+01           1.017180D-01
      2.106000D+01           2.747400D-01
      7.495000D+00           4.485640D-01
      2.797000D+00           2.850740D-01
      5.215000D-01           1.520400D-02
      1.596000D-01          -3.191000D-03
S   9   1.00
      6.665000D+03          -1.460000D-04
      1.000000D+03          -1.154000D-03
      2.280000D+02          -5.725000D-03
      6.471000D+01          -2.331200D-02
      2.106000D+01          -6.395500D-02
      7.495000D+00          -1.499810D-01
      2.797000D+00          -1.272620D-01
      5.215000D-01           5.445290D-01
      1.596000D-01           5.804960D-01
S   1   1.00
      1.596000D-01           1.000000D+00
S   1   1.00
      0.0469000              1.0000000
P   4   1.00
      9.439000D+00           3.810900D-02
      2.002000D+00           2.094800D-01
      5.456000D-01           5.085570D-01
      1.517000D-01           4.688420D-01
P   1   1.00
      1.517000D-01           1.000000D+00
P   1   1.00
      0.0674222      1.0000000
P   1   1.00
      0.0337111      1.0000000
D   1   1.00
      5.500000D-01           1.0000000
****
C 2
S   9   1.00
      6.665000D+03           6.920000D-04
      1.000000D+03           5.329000D-03
      2.280000D+02           2.707700D-02
      6.471000D+01           1.017180D-01
      2.106000D+01           2.747400D-01
      7.495000D+00           4.485640D-01
      2.797000D+00           2.850740D-01
      5.215000D-01           1.520400D-02
      1.596000D-01          -3.191000D-03
S   9   1.00
      6.665000D+03          -1.460000D-04
      1.000000D+03          -1.154000D-03
      2.280000D+02          -5.725000D-03
      6.471000D+01          -2.331200D-02
      2.106000D+01          -6.395500D-02
      7.495000D+00          -1.499810D-01
      2.797000D+00          -1.272620D-01
      5.215000D-01           5.445290D-01
      1.596000D-01           5.804960D-01
S   1   1.00
      1.596000D-01           1.000000D+00
S   1   1.00
      0.0469000              1.0000000
P   4   1.00
      9.439000D+00           3.810900D-02
      2.002000D+00           2.094800D-01
      5.456000D-01           5.085570D-01
      1.517000D-01           4.688420D-01
P   1   1.00
      1.517000D-01           1.000000D+00
P   1   1.00
      0.0674222      1.0000000
P   1   1.00
      0.0337111      1.0000000
D   1   1.00
      5.500000D-01           1.0000000
****
H 3
cc-pVDZ
****
H 4
cc-pVDZ
****
H 5
cc-pVDZ
****
H 6
cc-pVDZ
****
H 7
aug-cc-pVDZ
****
$end
--------------------------------------------------------------
 ----------------------------------------------------------------
             Standard Nuclear Orientation (Angstroms)
    I     Atom           X                Y                Z
 ----------------------------------------------------------------
    1      C      -0.6645000000    -0.0000000000    -0.1895377601
    2      C       0.6645000000     0.0000000000    -0.1895377601
    3      H      -1.1590800000    -0.0000000000     0.7728112399
    4      H       1.1590800000     0.0000000000     0.7728112399
    5      H      -1.1590800000    -0.0000000000    -1.1518857601
    6      H       1.1590800000     0.0000000000    -1.1518857601
    7      H      -0.0000000000     0.0000000000     3.0326021618
 ----------------------------------------------------------------
 Molecular Point Group                 C2v   NOp =  4
 Largest Abelian Subgroup              C2v   NOp =  4
 Nuclear Repulsion Energy =          36.17984589 hartrees
 There are        9 alpha and        9 beta electrons
 Requested basis set is non-standard
 There are 33 shells and 67 basis functions
 Total memory of 95000 MB is distributed as follows: 
   MEM_STATIC is set to 192 MB
   QALLOC/CCMAN JOB total memory use is  94808 MB
 Warning: actual memory use might exceed 95000 MB

 Total QAlloc Memory Limit  95000 MB
 Mega-Array Size       188 MB
 MEM_STATIC part       192 MB

                       Distance Matrix (Angstroms)
             C (  1)   C (  2)   H (  3)   H (  4)   H (  5)   H (  6)
   C (  2)  1.329000
   H (  3)  1.082000  2.061931
   H (  4)  2.061931  1.082000  2.318160
   H (  5)  1.082000  2.061931  1.924697  3.013026
   H (  6)  2.061931  1.082000  3.013026  1.924697  2.318160
   H (  7)  3.289946  3.289946  2.539709  2.539709  4.342051  4.342051

 
 A cutoff of  1.0D-14 yielded    561 shell pairs
 There are      2337 function pairs (      2484 Cartesian)
 Smallest overlap matrix eigenvalue = 2.53E-04

 Scale SEOQF with 1.000000e-01/1.000000e-01/1.000000e-01

 Standard Electronic Orientation quadrupole field applied
 Nucleus-field energy     =    -0.0000000011 hartrees
 ================ Generating on-the-fly SAD Guess ================
Attempting to make child job directory: /src/jdavis/qchem.scratch/qchem13827//Frg1/
Attempting to make child job directory: /src/jdavis/qchem.scratch/qchem13827//Frg2/
Creating input file /src/jdavis/qchem.scratch/qchem13827/Frg1.input
using default PutDataFrgm: nothing
calling putenv with: QCSCRATCH=/src/jdavis/qchem.scratch/qchem13827/ 
Spawning Job For Fragment 0
Done Job For Fragment 0
calling putenv with: QCSCRATCH=/src/jdavis/qchem.scratch 
calling putenv with: QCTHREADS=1 
Creating input file /src/jdavis/qchem.scratch/qchem13827/Frg2.input
using default PutDataFrgm: nothing
calling putenv with: QCSCRATCH=/src/jdavis/qchem.scratch/qchem13827/ 
Spawning Job For Fragment 1
Done Job For Fragment 1
calling putenv with: QCSCRATCH=/src/jdavis/qchem.scratch 
calling putenv with: QCTHREADS=1 
 Time for running child jobs:  CPU 1.77 s  wall 53.18 s
 ============= Method Specific SAD Guess Constructed =============
 Guess from on-the-fly superposition of atomic densities
 Warning: Energy on first SCF cycle will be non-variational
 A restricted Hartree-Fock SCF calculation will be
 performed using Pulay DIIS extrapolation
 SCF converges when DIIS error is below 1.0E-08
 using 10 threads for integral computing
 -------------------------------------------------------
 OpenMP Integral computing Module                
 Release: version 1.0, May 2013, Q-Chem Inc. Pittsburgh 
 -------------------------------------------------------
 ---------------------------------------
  Cycle       Energy         DIIS Error
 ---------------------------------------
    1     -78.8082096769      7.36E-02
    2     -78.4603605232      6.88E-03
    3     -78.5087027867      1.66E-03
    4     -78.5112491881      5.32E-04
    5     -78.5115327607      1.15E-04
    6     -78.5115555172      2.57E-05
    7     -78.5115574081      7.29E-06
    8     -78.5115576010      1.01E-06
    9     -78.5115576059      2.47E-07
   10     -78.5115576063      5.32E-08
   11     -78.5115576063      1.11E-08
   12     -78.5115576063      1.55E-09 Convergence criterion met
 ---------------------------------------
 SCF time:  CPU 10.55 s  wall 1.06 s
 SCF   energy in the final basis set = -78.51155761
 Total energy in the final basis set = -78.51155761
================================================================================
|                                                                              |
|                                 A D C  M A N                                 |
|                                                                              |
 ------------------------------------------------------------------------------ 
|                                                                              |
| Components:                                                                  |
|                                                                              |
| - libvmm - 1.3-trunk                                                         |
|   Authors:                                                                   |
|   Evgeny Epifanovsky, Ilya Kaliman                                           |
|                                                                              |
| - libtensor - 2.5-trunk                                                      |
|   Authors:                                                                   |
|   Evgeny Epifanovsky, Michael Wormit, Dmitry Zuev, Sam Manzer,               |
|   Ilya Kaliman                                                               |
|                                                                              |
| - libwfa - 1.1-trunk                                                         |
|   Authors:                                                                   |
|   Felix Plasser, Stefanie Mewes (Baeppler), Benjamin Thomitzni,              |
|   Michael Wormit, Feng Chen, Anna I. Krylov, Pavel Pokhilko                  |
|                                                                              |
| - libadc - 1.1-trunk                                                         |
|   Authors:                                                                   |
|   Michael Wormit, Adrian L. Dempwolff, Philipp H. P. Harbach,                |
|   Caroline Krauter, Dirk Rehn, Matthias Schneider, Jan Wenzel                |
|                                                                              |
| - adcman - 2.6-trunk                                                         |
|   Authors:                                                                   |
|   Michael Wormit, Adrian L. Dempwolff, Philipp H. P. Harbach,                |
|   Caroline Krauter, Daniel Lefrancois, Jan-Michael Mewes, Dirk Rehn,         |
|   Matthias Schneider, Jan Wenzel, Andreas Dreuw                              |
|                                                                              |
| Authors of earlier versions of ADCMAN:                                       |
| Andreas Dreuw, Jan Hendrik Starcke, Dirk Rehn, Michael Wormit                |
|                                                                              |
================================================================================

 
 Alpha MOs, Restricted
 -- Occupied --                  
-11.075 -11.073  -0.881  -0.623  -0.497  -0.408  -0.352  -0.217
  1 A1    1 B1    2 A1    2 B1    3 A1    4 A1    3 B1    1 B2                 
 -0.027
  5 A1                                                                         
 -- Virtual --                   
  0.161   0.183   0.195   0.200   0.203   0.217   0.291   0.308
  4 B1    6 A1    2 B2    1 A2    7 A1    5 B1    8 A1    2 A2                 
  0.322   0.401   0.430   0.432   0.443   0.444   0.477   0.506
  6 B1    9 A1    7 B1   10 A1    8 B1    3 B2   11 A1   12 A1                 
  0.517   0.524   0.705   0.755   0.956   1.012   1.039   1.066
  9 B1    3 A2   10 B1   11 B1   13 A1   14 A1   15 A1   16 A1                 
  1.088   1.176   1.193   1.205   1.235   1.239   1.253   1.276
 12 B1   17 A1    4 B2   13 B1    4 A2   18 A1   14 B1    5 B2                 
  1.421   1.445   1.446   1.559   1.778   1.793   1.889   1.896
 15 B1    6 B2    5 A2   16 B1   19 A1   17 B1   20 A1    7 B2                 
  1.931   1.993   2.028   2.102   2.112   2.182   2.210   2.250
 18 B1   21 A1    6 A2    8 B2   19 B1    9 B2   22 A1   23 A1                 
  2.337   2.484   2.574   2.639   2.732   2.755   2.973   3.001
  7 A2   20 B1    8 A2   24 A1   21 B1   22 B1   25 A1   26 A1                 
  3.410   3.503
 23 B1   24 B1                                                                 
 
 Beta MOs, Restricted
 -- Occupied --                  
-11.075 -11.073  -0.881  -0.623  -0.497  -0.408  -0.352  -0.217
  1 A1    1 B1    2 A1    2 B1    3 A1    4 A1    3 B1    1 B2                 
 -0.027
  5 A1                                                                         
 -- Virtual --                   
  0.161   0.183   0.195   0.200   0.203   0.217   0.291   0.308
  4 B1    6 A1    2 B2    1 A2    7 A1    5 B1    8 A1    2 A2                 
  0.322   0.401   0.430   0.432   0.443   0.444   0.477   0.506
  6 B1    9 A1    7 B1   10 A1    8 B1    3 B2   11 A1   12 A1                 
  0.517   0.524   0.705   0.755   0.956   1.012   1.039   1.066
  9 B1    3 A2   10 B1   11 B1   13 A1   14 A1   15 A1   16 A1                 
  1.088   1.176   1.193   1.205   1.235   1.239   1.253   1.276
 12 B1   17 A1    4 B2   13 B1    4 A2   18 A1   14 B1    5 B2                 
  1.421   1.445   1.446   1.559   1.778   1.793   1.889   1.896
 15 B1    6 B2    5 A2   16 B1   19 A1   17 B1   20 A1    7 B2                 
  1.931   1.993   2.028   2.102   2.112   2.182   2.210   2.250
 18 B1   21 A1    6 A2    8 B2   19 B1    9 B2   22 A1   23 A1                 
  2.337   2.484   2.574   2.639   2.732   2.755   2.973   3.001
  7 A2   20 B1    8 A2   24 A1   21 B1   22 B1   25 A1   26 A1                 
  3.410   3.503
 23 B1   24 B1                                                                 

--------------------------------------------------------------------------------
                                   HF Summary                                   
--------------------------------------------------------------------------------
  Energy:                                                  -78.5115576063 a.u.
  Dip. moment [a.u.]:                  [  -0.000000,    0.000000,   -4.634398]
  Total dipole [Debye]:                                              11.779468
  <r^2> [a.u.]:                        [  52.599260,   16.620076,   90.761618]
  Total <r^2> [a.u.]:                                               159.980955
--------------------------------------------------------------------------------

--------------------------------------------------------------------------------
                                 MP(2) Summary                                  
--------------------------------------------------------------------------------
  MP energy contribution:                                   -0.3047090802 a.u.
  Total energy:                                            -78.8162666865 a.u.
  Dip. moment [a.u.]:                  [  -0.000000,   -0.000000,   -4.487448]
  Total dipole [Debye]:                                              11.405958
  <r^2> [a.u.]:                        [  53.000472,   16.673966,   90.267189]
  Total <r^2> [a.u.]:                                               159.941628

  Density matrix analysis:
  ------------------------
  NOs
    Occupation of frontier NOs:
       0.0448   1.9362
    Number of electrons: 18.000000
    Number of unpaired electrons: n_u =  0.46158, n_u,nl =  0.05050
    NO participation ratio (PR_NO): 16.199075
  
  
  Mulliken Population Analysis
  Atom      Charge (e)              h+              e-           Del q
  --------------------------------------------------------------------
   1 C       -0.381194        0.087629       -0.115656       -0.028028
   2 C       -0.381194        0.087629       -0.115656       -0.028028
   3 H        0.155885        0.016580       -0.017032       -0.000452
   4 H        0.155885        0.016580       -0.017032       -0.000452
   5 H        0.037074        0.019326       -0.011598        0.007729
   6 H        0.037074        0.019326       -0.011598        0.007729
   7 H       -0.623529        0.055870       -0.014367        0.041503
  --------------------------------------------------------------------
  Sum:       -1.000000        0.302940       -0.302940        0.000000
  
  Multipole moment analysis of the density matrix
    Molecular charge:                      -1.000000
    Number of electrons:                   18.000000
      Center of electronic charge [Ang]: [  0.000000,   0.000000,   0.131925]
    Total nuclear charge:                  17.000000
      Center of nuclear charge [Ang]:    [ -0.000000,   0.000000,  -0.000000]
    Dipole moment [D]:                     11.405954
      Cartesian components [D]:          [ -0.000000,  -0.000000, -11.405954]
    RMS size of the density [Ang]:         1.571887
      Cartesian components [Ang]:        [  0.908040,   0.509313,   1.177665]
  
  Exciton analysis of the difference density matrix
    <r_h> [Ang]:                  [  0.000000,   0.000000,   0.307363]
    <r_e> [Ang]:                  [  0.000000,   0.000000,   0.050669]
    |<r_e - r_h>| [Ang]:            0.256694
    Hole size [Ang]:                1.909136
      Cartesian components [Ang]: [  0.965144,   0.768632,   1.456881]
    Electron size [Ang]:            1.923630
      Cartesian components [Ang]: [  1.141215,   0.800380,   1.325659]
--------------------------------------------------------------------------------
Less singles guess vectors found than requested: 85 (found), 100 (requested).
Adjusting number of doubles guess vectors to 15.
  Starting Davidson for singlet states of irrep A2 ... 
--------------------------------------------------------------------------------
   It NVec Conv  Avg. Norm  Max. Norm  Conv. states           Remark
--------------------------------------------------------------------------------
       100    0  9.765e-02  3.856e-01  0.1181 n n n n n n n n Guess.
    1  110    0  5.295e-03  2.749e-02  0.0876 n n n n n n n n 
    2  120    0  6.991e-04  3.981e-03  0.0875 n n n n n n n n 
    3  130    1  4.402e-04  4.353e-03  0.0875 n n n n n n n n 
    4  140    7  4.231e-05  4.225e-04  0.0875 y y y y n y n y 
    5  150    9  1.490e-06  1.488e-05  0.0875 y y y y y y y y 
    6  160   10  2.858e-08  2.856e-07  0.0875 y y y y y y y y Converged.
--------------------------------------------------------------------------------
  Davidson Summary: 
 ------------------------------------------------------------
  State  0: excitation energy =   0.0875 a.u.   (converged)
  State  1: excitation energy =   0.1456 a.u.   (converged)
  State  2: excitation energy =   0.2409 a.u.   (converged)
  State  3: excitation energy =   0.3034 a.u.   (converged)
  State  4: excitation energy =   0.3525 a.u.   (converged)
  State  5: excitation energy =   0.3628 a.u.   (converged)
  State  6: excitation energy =   0.3632 a.u.   (converged)
  State  7: excitation energy =   0.3690 a.u.   (converged)
  State  8: excitation energy =   0.4095 a.u.   (converged)
  State  9: excitation energy =   0.4385 a.u.   (converged)
 ------------------------------------------------------------


--------------------------------------------------------------------------------
                   State-averaged natural transition orbitals
--------------------------------------------------------------------------------
--------------------------------------------------------------------------------

--------------------------------------------------------------------------------
                             Excited State Summary
--------------------------------------------------------------------------------
--------------------------------------------------------------------------------

  Excited state 1 (singlet, A2)                                    [converged]
  ----------------------------------------------------------------------------
  Term symbol:  1 (1) A2                                    R^2 =  5.03807e-11

  Total energy:                                            -78.7287473824 a.u.
  Excitation energy:                                               2.381521 eV

  Osc. strength:                                                      0.000000
  Trans. dip. moment [a.u.]:           [  -0.000000,    0.000000,   -0.000000]
  <i|r^2|0> [a.u.]:                    [   0.000000,   -0.000000,    0.000000]

  Dip. moment [a.u.]:                  [   0.000000,    0.000000,    0.600871]
  Total dipole [Debye]:                                               1.527261
  <r^2> [a.u.]:                        [  69.297981,   32.171037,   65.023441]
  Total <r^2> [a.u.]:                                               166.492459

  V1^2 = 0.9263, V2^2 = 0.0737

  Important amplitudes:
      occ i      occ j       vir a       vir b          v   
    ---------------------------------------------------------
     5 (A1) A               1 (A2) A                 -0.6265
     5 (A1) A               2 (A2) A                  0.2628
    ---------------------------------------------------------

  Density matrix analysis:
  ------------------------
  NOs
    Occupation of frontier NOs:
       0.9897   0.9937
    Number of electrons: 18.000000
    Number of unpaired electrons: n_u =  2.41596, n_u,nl =  2.04562
    NO participation ratio (PR_NO):  2.949603
  
  
  Mulliken Population Analysis
  Atom      Charge (e)              h+              e-           Del q
  --------------------------------------------------------------------
   1 C       -0.670163        0.250598       -0.539567       -0.288969
   2 C       -0.670163        0.250598       -0.539567       -0.288969
   3 H        0.108040        0.022787       -0.070632       -0.047845
   4 H        0.108040        0.022787       -0.070632       -0.047845
   5 H        0.047905        0.011982       -0.001151        0.010831
   6 H        0.047905        0.011982       -0.001151        0.010831
   7 H        0.028438        0.691004       -0.039037        0.651967
  --------------------------------------------------------------------
  Sum:       -1.000000        1.261739       -1.261739       -0.000000
  
  Multipole moment analysis of the density matrix
    Molecular charge:                      -1.000000
    Number of electrons:                   18.000000
      Center of electronic charge [Ang]: [ -0.000000,  -0.000000,  -0.017665]
    Total nuclear charge:                  17.000000
      Center of nuclear charge [Ang]:    [ -0.000000,   0.000000,  -0.000000]
    Dipole moment [D]:                     1.527261
      Cartesian components [D]:          [  0.000000,   0.000000,   1.527261]
    RMS size of the density [Ang]:         1.609296
      Cartesian components [Ang]:        [  1.038306,   0.707453,   1.005618]
  
  Exciton analysis of the difference density matrix
    <r_h> [Ang]:                  [  0.000000,  -0.000000,   2.148238]
    <r_e> [Ang]:                  [  0.000000,  -0.000000,   0.014181]
    |<r_e - r_h>| [Ang]:            2.134056
    Hole size [Ang]:                2.286433
      Cartesian components [Ang]: [  1.044362,   0.976146,   1.784438]
    Electron size [Ang]:            3.361009
      Cartesian components [Ang]: [  2.169732,   2.095771,   1.482020]

  Transition density matrix analysis:
  -----------------------------------
  
  CT numbers (Mulliken)
    omega =     0.9100
    <Phe> =     0.0008
  
  Exciton analysis of the transition density matrix
    Trans. dipole moment [D]:             0.000000
      Cartesian components [D]:         [ -0.000000,   0.000000,  -0.000000]
    <r_h> [Ang]:                        [  0.000000,  -0.000000,   2.796972]
    <r_e> [Ang]:                        [  0.000000,  -0.000000,  -0.188960]
    |<r_e - r_h>| [Ang]:                  2.985932
    Hole size [Ang]:                      1.643674
      Cartesian components [Ang]:       [  0.829455,   0.814169,   1.162238]
    Electron size [Ang]:                  3.531988
      Cartesian components [Ang]:       [  2.344117,   2.286672,   1.323322]
    RMS electron-hole separation [Ang]:   4.906679
      Cartesian components [Ang]:       [  2.483563,   2.426908,   3.466631]
    Covariance(r_h, r_e) [Ang^2]:         0.008445
    Correlation coefficient:              0.001455
    Center-of-mass size [Ang]:            1.948942
      Cartesian components [Ang]:       [  1.244756,   1.213837,   0.880655]

  Decomposition into state-averaged NTOs
    H- 1 -> L+ 0:  0.5571 ( 62.1%)
    H- 1 -> L+ 1: -0.3745 ( 28.0%)
                   omega =  91.0%
  ----------------------------------------------------------------------------


  Excited state 2 (singlet, A2)                                    [converged]
  ----------------------------------------------------------------------------
  Term symbol:  2 (1) A2                                    R^2 =  8.62420e-11

  Total energy:                                            -78.6707062736 a.u.
  Excitation energy:                                               3.960900 eV

  Osc. strength:                                                      0.000000
  Trans. dip. moment [a.u.]:           [  -0.000000,   -0.000000,    0.000000]
  <i|r^2|0> [a.u.]:                    [   0.000000,    0.000000,    0.000000]

  Dip. moment [a.u.]:                  [   0.000000,    0.000000,    0.617196]
  Total dipole [Debye]:                                               1.568756
  <r^2> [a.u.]:                        [  67.541749,   30.191383,   64.788553]
  Total <r^2> [a.u.]:                                               162.521684

  V1^2 = 0.9178, V2^2 = 0.0822

  Important amplitudes:
      occ i      occ j       vir a       vir b          v   
    ---------------------------------------------------------
     5 (A1) A               2 (A2) A                 -0.6099
     5 (A1) A               1 (A2) A                 -0.2690
    ---------------------------------------------------------

  Density matrix analysis:
  ------------------------
  NOs
    Occupation of frontier NOs:
       0.9886   0.9901
    Number of electrons: 18.000000
    Number of unpaired electrons: n_u =  2.41928, n_u,nl =  2.04529
    NO participation ratio (PR_NO):  2.971783
  
  
  Mulliken Population Analysis
  Atom      Charge (e)              h+              e-           Del q
  --------------------------------------------------------------------
   1 C       -0.628227        0.288637       -0.535670       -0.247033
   2 C       -0.628227        0.288637       -0.535670       -0.247033
   3 H        0.088711        0.023729       -0.090902       -0.067173
   4 H        0.088711        0.023729       -0.090902       -0.067173
   5 H        0.021619        0.007105       -0.022560       -0.015455
   6 H        0.021619        0.007105       -0.022560       -0.015455
   7 H        0.035792        0.693649       -0.034327        0.659322
  --------------------------------------------------------------------
  Sum:       -1.000000        1.332590       -1.332590       -0.000000
  
  Multipole moment analysis of the density matrix
    Molecular charge:                      -1.000000
    Number of electrons:                   18.000000
      Center of electronic charge [Ang]: [ -0.000000,  -0.000000,  -0.018145]
    Total nuclear charge:                  17.000000
      Center of nuclear charge [Ang]:    [ -0.000000,   0.000000,  -0.000000]
    Dipole moment [D]:                     1.568755
      Cartesian components [D]:          [  0.000000,   0.000000,   1.568755]
    RMS size of the density [Ang]:         1.589982
      Cartesian components [Ang]:        [  1.025064,   0.685340,   1.003790]
  
  Exciton analysis of the difference density matrix
    <r_h> [Ang]:                  [  0.000000,  -0.000000,   2.022892]
    <r_e> [Ang]:                  [  0.000000,  -0.000000,  -0.004184]
    |<r_e - r_h>| [Ang]:            2.027076
    Hole size [Ang]:                2.267010
      Cartesian components [Ang]: [  1.018887,   0.935742,   1.795993]
    Electron size [Ang]:            3.126272
      Cartesian components [Ang]: [  2.023317,   1.927730,   1.401293]

  Transition density matrix analysis:
  -----------------------------------
  
  CT numbers (Mulliken)
    omega =     0.8974
    <Phe> =    -0.0001
  
  Exciton analysis of the transition density matrix
    Trans. dipole moment [D]:             0.000000
      Cartesian components [D]:         [ -0.000000,  -0.000000,   0.000000]
    <r_h> [Ang]:                        [  0.000000,   0.000000,   2.793779]
    <r_e> [Ang]:                        [  0.000000,  -0.000000,  -0.188529]
    |<r_e - r_h>| [Ang]:                  2.982308
    Hole size [Ang]:                      1.644683
      Cartesian components [Ang]:       [  0.828430,   0.812803,   1.165348]
    Electron size [Ang]:                  3.333900
      Cartesian components [Ang]:       [  2.213592,   2.156211,   1.251260]
    RMS electron-hole separation [Ang]:   4.764225
      Cartesian components [Ang]:       [  2.360758,   2.303791,   3.437616]
    Covariance(r_h, r_e) [Ang^2]:         0.008096
    Correlation coefficient:              0.001476
    Center-of-mass size [Ang]:            1.859843
      Cartesian components [Ang]:       [  1.183152,   1.152425,   0.855033]

  Decomposition into state-averaged NTOs
    H- 1 -> L+ 1: -0.5624 ( 63.3%)
    H- 1 -> L+ 0: -0.3632 ( 26.4%)
                   omega =  89.7%
  ----------------------------------------------------------------------------


  Excited state 3 (singlet, A2)                                    [converged]
  ----------------------------------------------------------------------------
  Term symbol:  3 (1) A2                                    R^2 =  1.72089e-10

  Total energy:                                            -78.5753330718 a.u.
  Excitation energy:                                               6.556137 eV

  Osc. strength:                                                      0.000000
  Trans. dip. moment [a.u.]:           [  -0.000000,    0.000000,   -0.000000]
  <i|r^2|0> [a.u.]:                    [  -0.000000,   -0.000000,   -0.000000]

  Dip. moment [a.u.]:                  [  -0.000000,   -0.000000,   -2.511750]
  Total dipole [Debye]:                                               6.384232
  <r^2> [a.u.]:                        [  87.994635,   23.098348,  100.430736]
  Total <r^2> [a.u.]:                                               211.523719

  V1^2 = 0.9424, V2^2 = 0.0576

  Important amplitudes:
      occ i      occ j       vir a       vir b          v   
    ---------------------------------------------------------
     1 (B2) A               4 (B1) A                  0.6696
     1 (B2) A               6 (B1) A                 -0.1307
    ---------------------------------------------------------

  Density matrix analysis:
  ------------------------
  NOs
    Occupation of frontier NOs:
       0.9824   0.9942
    Number of electrons: 18.000000
    Number of unpaired electrons: n_u =  2.34724, n_u,nl =  2.02885
    NO participation ratio (PR_NO):  2.809286
  
  
  Mulliken Population Analysis
  Atom      Charge (e)              h+              e-           Del q
  --------------------------------------------------------------------
   1 C       -0.505581        0.549918       -0.674305       -0.124387
   2 C       -0.505581        0.549918       -0.674305       -0.124387
   3 H        0.221587        0.072339       -0.006636        0.065703
   4 H        0.221587        0.072339       -0.006636        0.065703
   5 H        0.092430        0.116792       -0.061436        0.055356
   6 H        0.092430        0.116792       -0.061436        0.055356
   7 H       -0.616873        0.035384       -0.028727        0.006657
  --------------------------------------------------------------------
  Sum:       -1.000000        1.513482       -1.513482        0.000000
  
  Multipole moment analysis of the density matrix
    Molecular charge:                      -1.000000
    Number of electrons:                   18.000000
      Center of electronic charge [Ang]: [  0.000000,   0.000000,   0.073842]
    Total nuclear charge:                  17.000000
      Center of nuclear charge [Ang]:    [ -0.000000,   0.000000,  -0.000000]
    Dipole moment [D]:                     6.384230
      Cartesian components [D]:          [ -0.000000,  -0.000000,  -6.384230]
    RMS size of the density [Ang]:         1.812526
      Cartesian components [Ang]:        [  1.170019,   0.599453,   1.247783]
  
  Exciton analysis of the difference density matrix
    <r_h> [Ang]:                  [  0.000000,  -0.000000,  -0.144041]
    <r_e> [Ang]:                  [  0.000000,   0.000000,  -0.834829]
    |<r_e - r_h>| [Ang]:            0.690788
    Hole size [Ang]:                1.797016
      Cartesian components [Ang]: [  1.093644,   0.911472,   1.096552]
    Electron size [Ang]:            3.478065
      Cartesian components [Ang]: [  2.769616,   1.421069,   1.551361]

  Transition density matrix analysis:
  -----------------------------------
  
  CT numbers (Mulliken)
    omega =     0.9118
    <Phe> =    -0.0020
  
  Exciton analysis of the transition density matrix
    Trans. dipole moment [D]:             0.000000
      Cartesian components [D]:         [ -0.000000,   0.000000,  -0.000000]
    <r_h> [Ang]:                        [ -0.000000,  -0.000000,  -0.196458]
    <r_e> [Ang]:                        [  0.000000,   0.000000,  -1.266502]
    |<r_e - r_h>| [Ang]:                  1.070044
    Hole size [Ang]:                      1.275534
      Cartesian components [Ang]:       [  0.763461,   0.880008,   0.519329]
    Electron size [Ang]:                  4.038467
      Cartesian components [Ang]:       [  3.323001,   1.681940,   1.561396]
    RMS electron-hole separation [Ang]:   4.361113
      Cartesian components [Ang]:       [  3.403755,   1.892745,   1.962465]
    Covariance(r_h, r_e) [Ang^2]:         0.030949
    Correlation coefficient:              0.006008
    Center-of-mass size [Ang]:            2.121209
      Cartesian components [Ang]:       [  1.707693,   0.951865,   0.822959]

  Decomposition into state-averaged NTOs
    H- 0 -> L+ 5:  0.5171 ( 53.5%)
    H- 0 -> L+ 3:  0.3721 ( 27.7%)
    H- 0 -> L+ 4: -0.2232 ( 10.0%)
                   omega =  91.2%
  ----------------------------------------------------------------------------


  Excited state 4 (singlet, A2)                                    [converged]
  ----------------------------------------------------------------------------
  Term symbol:  4 (1) A2                                    R^2 =  2.94842e-10

  Total energy:                                            -78.5129126826 a.u.
  Excitation energy:                                               8.254682 eV

  Osc. strength:                                                      0.000000
  Trans. dip. moment [a.u.]:           [   0.000000,    0.000000,   -0.000000]
  <i|r^2|0> [a.u.]:                    [  -0.000000,   -0.000000,   -0.000000]

  Dip. moment [a.u.]:                  [   0.000000,   -0.000000,   -5.840825]
  Total dipole [Debye]:                                              14.845899
  <r^2> [a.u.]:                        [  81.351709,   22.319036,  111.034550]
  Total <r^2> [a.u.]:                                               214.705295

  V1^2 = 0.9421, V2^2 = 0.0579

  Important amplitudes:
      occ i      occ j       vir a       vir b          v   
    ---------------------------------------------------------
     1 (B2) A               5 (B1) A                  0.6763
     1 (B2) A               8 (B1) A                  0.0803
    ---------------------------------------------------------

  Density matrix analysis:
  ------------------------
  NOs
    Occupation of frontier NOs:
       0.9832   0.9963
    Number of electrons: 18.000000
    Number of unpaired electrons: n_u =  2.34413, n_u,nl =  2.02817
    NO participation ratio (PR_NO):  2.794028
  
  
  Mulliken Population Analysis
  Atom      Charge (e)              h+              e-           Del q
  --------------------------------------------------------------------
   1 C       -0.477390        0.542398       -0.638594       -0.096197
   2 C       -0.477390        0.542398       -0.638594       -0.096197
   3 H        0.170631        0.085786       -0.071040        0.014746
   4 H        0.170631        0.085786       -0.071040        0.014746
   5 H        0.097087        0.102382       -0.042369        0.060013
   6 H        0.097087        0.102382       -0.042369        0.060013
   7 H       -0.580655        0.054159       -0.011285        0.042874
  --------------------------------------------------------------------
  Sum:       -1.000000        1.515292       -1.515292        0.000000
  
  Multipole moment analysis of the density matrix
    Molecular charge:                      -1.000000
    Number of electrons:                   18.000000
      Center of electronic charge [Ang]: [ -0.000000,   0.000000,   0.171713]
    Total nuclear charge:                  17.000000
      Center of nuclear charge [Ang]:    [ -0.000000,   0.000000,  -0.000000]
    Dipole moment [D]:                     14.845894
      Cartesian components [D]:          [  0.000000,  -0.000000, -14.845894]
    RMS size of the density [Ang]:         1.819537
      Cartesian components [Ang]:        [  1.124989,   0.589254,   1.303033]
  
  Exciton analysis of the difference density matrix
    <r_h> [Ang]:                  [  0.000000,  -0.000000,  -0.070891]
    <r_e> [Ang]:                  [ -0.000000,   0.000000,   0.401742]
    |<r_e - r_h>| [Ang]:            0.472632
    Hole size [Ang]:                1.764050
      Cartesian components [Ang]: [  1.069526,   0.887965,   1.086050]
    Electron size [Ang]:            3.616064
      Cartesian components [Ang]: [  2.526508,   1.353403,   2.204762]

  Transition density matrix analysis:
  -----------------------------------
  
  CT numbers (Mulliken)
    omega =     0.9115
    <Phe> =    -0.0005
  
  Exciton analysis of the transition density matrix
    Trans. dipole moment [D]:             0.000000
      Cartesian components [D]:         [  0.000000,   0.000000,  -0.000000]
    <r_h> [Ang]:                        [ -0.000000,  -0.000000,  -0.195893]
    <r_e> [Ang]:                        [ -0.000000,   0.000000,   0.603209]
    |<r_e - r_h>| [Ang]:                  0.799102
    Hole size [Ang]:                      1.275586
      Cartesian components [Ang]:       [  0.763314,   0.880278,   0.519212]
    Electron size [Ang]:                  4.289381
      Cartesian components [Ang]:       [  3.019727,   1.598542,   2.593203]
    RMS electron-hole separation [Ang]:   4.541974
      Cartesian components [Ang]:       [  3.109650,   1.824401,   2.762457]
    Covariance(r_h, r_e) [Ang^2]:         0.017472
    Correlation coefficient:              0.003193
    Center-of-mass size [Ang]:            2.239467
      Cartesian components [Ang]:       [  1.559878,   0.912690,   1.322494]

  Decomposition into state-averaged NTOs
    H- 0 -> L+ 4:  0.6369 ( 81.1%)
    H- 0 -> L+ 5:  0.1793 (  6.4%)
    H- 0 -> L+ 3:  0.1333 (  3.6%)
                   omega =  91.1%
  ----------------------------------------------------------------------------


  Excited state 5 (singlet, A2)                                    [converged]
  ----------------------------------------------------------------------------
  Term symbol:  5 (1) A2                                    R^2 =  7.23325e-09

  Total energy:                                            -78.4638133065 a.u.
  Excitation energy:                                               9.590744 eV

  Osc. strength:                                                      0.000000
  Trans. dip. moment [a.u.]:           [   0.000000,    0.000000,    0.000000]
  <i|r^2|0> [a.u.]:                    [  -0.000000,   -0.000000,   -0.000000]

  Dip. moment [a.u.]:                  [  -0.000000,   -0.000000,   -4.414426]
  Total dipole [Debye]:                                              11.220353
  <r^2> [a.u.]:                        [  54.624595,   20.508690,   90.097869]
  Total <r^2> [a.u.]:                                               165.231153

  V1^2 = 0.9537, V2^2 = 0.0463

  Important amplitudes:
      occ i      occ j       vir a       vir b          v   
    ---------------------------------------------------------
     4 (A1) A               2 (A2) A                 -0.5494
     4 (A1) A               1 (A2) A                  0.3636
    ---------------------------------------------------------

  Density matrix analysis:
  ------------------------
  NOs
    Occupation of frontier NOs:
       0.9786   1.0162
    Number of electrons: 18.000000
    Number of unpaired electrons: n_u =  2.40295, n_u,nl =  2.04403
    NO participation ratio (PR_NO):  2.980460
  
  
  Mulliken Population Analysis
  Atom      Charge (e)              h+              e-           Del q
  --------------------------------------------------------------------
   1 C       -0.508913        0.440007       -0.567727       -0.127719
   2 C       -0.508913        0.440007       -0.567727       -0.127719
   3 H        0.215717        0.070347       -0.010515        0.059832
   4 H        0.215717        0.070347       -0.010515        0.059832
   5 H        0.103852        0.074021       -0.007243        0.066778
   6 H        0.103852        0.074021       -0.007243        0.066778
   7 H       -0.621312        0.007379       -0.005161        0.002218
  --------------------------------------------------------------------
  Sum:       -1.000000        1.176131       -1.176131        0.000000
  
  Multipole moment analysis of the density matrix
    Molecular charge:                      -1.000000
    Number of electrons:                   18.000000
      Center of electronic charge [Ang]: [  0.000000,   0.000000,   0.129779]
    Total nuclear charge:                  17.000000
      Center of nuclear charge [Ang]:    [ -0.000000,   0.000000,  -0.000000]
    Dipole moment [D]:                     11.220350
      Cartesian components [D]:          [ -0.000000,  -0.000000, -11.220350]
    RMS size of the density [Ang]:         1.598024
      Cartesian components [Ang]:        [  0.921847,   0.564851,   1.176785]
  
  Exciton analysis of the difference density matrix
    <r_h> [Ang]:                  [  0.000000,   0.000000,  -0.153851]
    <r_e> [Ang]:                  [ -0.000000,   0.000000,  -0.186706]
    |<r_e - r_h>| [Ang]:            0.032855
    Hole size [Ang]:                1.482229
      Cartesian components [Ang]: [  1.124298,   0.572091,   0.778248]
    Electron size [Ang]:            1.856129
      Cartesian components [Ang]: [  1.284811,   1.113692,   0.744423]

  Transition density matrix analysis:
  -----------------------------------
  
  CT numbers (Mulliken)
    omega =     0.9218
    <Phe> =    -0.0158
  
  Exciton analysis of the transition density matrix
    Trans. dipole moment [D]:             0.000000
      Cartesian components [D]:         [  0.000000,   0.000000,   0.000000]
    <r_h> [Ang]:                        [  0.000000,   0.000000,  -0.157514]
    <r_e> [Ang]:                        [ -0.000000,   0.000000,  -0.204095]
    |<r_e - r_h>| [Ang]:                  0.046581
    Hole size [Ang]:                      1.299598
      Cartesian components [Ang]:       [  1.070293,   0.418722,   0.606712]
    Electron size [Ang]:                  1.924639
      Cartesian components [Ang]:       [  1.344195,   1.174515,   0.719645]
    RMS electron-hole separation [Ang]:   2.304624
      Cartesian components [Ang]:       [  1.695563,   1.244352,   0.942308]
    Covariance(r_h, r_e) [Ang^2]:         0.042033
    Correlation coefficient:              0.016805
    Center-of-mass size [Ang]:            1.170177
      Cartesian components [Ang]:       [  0.870322,   0.624743,   0.470691]

  Decomposition into state-averaged NTOs
    H- 2 -> L+ 0: -0.6718 ( 90.3%)
                   omega =  92.2%
  ----------------------------------------------------------------------------


  Excited state 6 (singlet, A2)                                    [converged]
  ----------------------------------------------------------------------------
  Term symbol:  6 (1) A2                                    R^2 =  2.08454e-09

  Total energy:                                            -78.4534298721 a.u.
  Excitation energy:                                               9.873292 eV

  Osc. strength:                                                      0.000000
  Trans. dip. moment [a.u.]:           [  -0.000000,   -0.000000,    0.000000]
  <i|r^2|0> [a.u.]:                    [   0.000000,    0.000000,   -0.000000]

  Dip. moment [a.u.]:                  [   0.000000,    0.000000,    0.577917]
  Total dipole [Debye]:                                               1.468919
  <r^2> [a.u.]:                        [  65.048666,   28.369200,   64.197520]
  Total <r^2> [a.u.]:                                               157.615385

  V1^2 = 0.9142, V2^2 = 0.0858

  Important amplitudes:
      occ i      occ j       vir a       vir b          v   
    ---------------------------------------------------------
     5 (A1) A               3 (A2) A                 -0.6570
     5 (A1) A               2 (A2) A                 -0.1338
    ---------------------------------------------------------

  Density matrix analysis:
  ------------------------
  NOs
    Occupation of frontier NOs:
       0.9642   0.9961
    Number of electrons: 18.000000
    Number of unpaired electrons: n_u =  2.47760, n_u,nl =  2.06557
    NO participation ratio (PR_NO):  3.164567
  
  
  Mulliken Population Analysis
  Atom      Charge (e)              h+              e-           Del q
  --------------------------------------------------------------------
   1 C       -0.650221        0.260275       -0.529301       -0.269027
   2 C       -0.650221        0.260275       -0.529301       -0.269027
   3 H        0.099645        0.018880       -0.075120       -0.056239
   4 H        0.099645        0.018880       -0.075120       -0.056239
   5 H        0.035421        0.005846       -0.007499       -0.001653
   6 H        0.035421        0.005846       -0.007499       -0.001653
   7 H        0.030309        0.688156       -0.034317        0.653838
  --------------------------------------------------------------------
  Sum:       -1.000000        1.258158       -1.258158        0.000000
  
  Multipole moment analysis of the density matrix
    Molecular charge:                      -1.000000
    Number of electrons:                   18.000000
      Center of electronic charge [Ang]: [ -0.000000,  -0.000000,  -0.016990]
    Total nuclear charge:                  17.000000
      Center of nuclear charge [Ang]:    [ -0.000000,   0.000000,  -0.000000]
    Dipole moment [D]:                     1.468918
      Cartesian components [D]:          [  0.000000,   0.000000,   1.468918]
    RMS size of the density [Ang]:         1.565808
      Cartesian components [Ang]:        [  1.005968,   0.664337,   0.999220]
  
  Exciton analysis of the difference density matrix
    <r_h> [Ang]:                  [  0.000000,  -0.000000,   2.131689]
    <r_e> [Ang]:                  [ -0.000000,  -0.000000,   0.001212]
    |<r_e - r_h>| [Ang]:            2.130477
    Hole size [Ang]:                2.250006
      Cartesian components [Ang]: [  1.022562,   0.948877,   1.765369]
    Electron size [Ang]:            3.014775
      Cartesian components [Ang]: [  1.930596,   1.871731,   1.363191]

  Transition density matrix analysis:
  -----------------------------------
  
  CT numbers (Mulliken)
    omega =     0.9004
    <Phe> =     0.0001
  
  Exciton analysis of the transition density matrix
    Trans. dipole moment [D]:             0.000000
      Cartesian components [D]:         [ -0.000000,  -0.000000,   0.000000]
    <r_h> [Ang]:                        [  0.000000,  -0.000000,   2.763450]
    <r_e> [Ang]:                        [ -0.000000,  -0.000000,  -0.192011]
    |<r_e - r_h>| [Ang]:                  2.955461
    Hole size [Ang]:                      1.669491
      Cartesian components [Ang]:       [  0.829847,   0.811685,   1.199884]
    Electron size [Ang]:                  3.129243
      Cartesian components [Ang]:       [  2.061582,   2.036487,   1.181000]
    RMS electron-hole separation [Ang]:   4.611774
      Cartesian components [Ang]:       [  2.220576,   2.187367,   3.398960]
    Covariance(r_h, r_e) [Ang^2]:         0.022829
    Correlation coefficient:              0.004370
    Center-of-mass size [Ang]:            1.776585
      Cartesian components [Ang]:       [  1.112045,   1.098596,   0.844214]

  Decomposition into state-averaged NTOs
    H- 1 -> L+ 6:  0.6650 ( 88.4%)
                   omega =  90.0%
  ----------------------------------------------------------------------------


  Excited state 7 (singlet, A2)                                    [converged]
  ----------------------------------------------------------------------------
  Term symbol:  7 (1) A2                                    R^2 =  5.00108e-09

  Total energy:                                            -78.4530679163 a.u.
  Excitation energy:                                               9.883141 eV

  Osc. strength:                                                      0.000000
  Trans. dip. moment [a.u.]:           [   0.000000,   -0.000000,   -0.000000]
  <i|r^2|0> [a.u.]:                    [   0.000000,    0.000000,    0.000000]

  Dip. moment [a.u.]:                  [  -0.000000,    0.000000,   -4.356601]
  Total dipole [Debye]:                                              11.073376
  <r^2> [a.u.]:                        [  58.514475,   46.380040,   95.144824]
  Total <r^2> [a.u.]:                                               200.039339

  V1^2 = 0.9341, V2^2 = 0.0659

  Important amplitudes:
      occ i      occ j       vir a       vir b          v   
    ---------------------------------------------------------
     3 (B1) A               2 (B2) A                  0.6714
     3 (B1) A               3 (B2) A                  0.1155
    ---------------------------------------------------------

  Density matrix analysis:
  ------------------------
  NOs
    Occupation of frontier NOs:
       0.9916   1.0242
    Number of electrons: 18.000000
    Number of unpaired electrons: n_u =  2.48884, n_u,nl =  2.07778
    NO participation ratio (PR_NO):  3.166227
  
  
  Mulliken Population Analysis
  Atom      Charge (e)              h+              e-           Del q
  --------------------------------------------------------------------
   1 C       -0.710009        0.306774       -0.635588       -0.328815
   2 C       -0.710009        0.306774       -0.635588       -0.328815
   3 H        0.303071        0.166827       -0.019640        0.147186
   4 H        0.303071        0.166827       -0.019640        0.147186
   5 H        0.210948        0.183926       -0.010053        0.173874
   6 H        0.210948        0.183926       -0.010053        0.173874
   7 H       -0.608020        0.035848       -0.020339        0.015509
  --------------------------------------------------------------------
  Sum:       -1.000000        1.350902       -1.350902       -0.000000
  
  Multipole moment analysis of the density matrix
    Molecular charge:                      -1.000000
    Number of electrons:                   18.000000
      Center of electronic charge [Ang]: [  0.000000,  -0.000000,   0.128079]
    Total nuclear charge:                  17.000000
      Center of nuclear charge [Ang]:    [ -0.000000,   0.000000,  -0.000000]
    Dipole moment [D]:                     11.073373
      Cartesian components [D]:          [ -0.000000,   0.000000, -11.073373]
    RMS size of the density [Ang]:         1.759442
      Cartesian components [Ang]:        [  0.954106,   0.849436,   1.209867]
  
  Exciton analysis of the difference density matrix
    <r_h> [Ang]:                  [  0.000000,  -0.000000,  -0.071143]
    <r_e> [Ang]:                  [  0.000000,  -0.000000,  -0.122399]
    |<r_e - r_h>| [Ang]:            0.051256
    Hole size [Ang]:                1.865292
      Cartesian components [Ang]: [  1.214633,   0.696591,   1.232373]
    Electron size [Ang]:            3.432383
      Cartesian components [Ang]: [  1.618126,   2.577404,   1.587422]

  Transition density matrix analysis:
  -----------------------------------
  
  CT numbers (Mulliken)
    omega =     0.9184
    <Phe> =    -0.0005
  
  Exciton analysis of the transition density matrix
    Trans. dipole moment [D]:             0.000000
      Cartesian components [D]:         [  0.000000,  -0.000000,  -0.000000]
    <r_h> [Ang]:                        [ -0.000000,  -0.000000,  -0.134253]
    <r_e> [Ang]:                        [ -0.000000,  -0.000000,  -0.189507]
    |<r_e - r_h>| [Ang]:                  0.055253
    Hole size [Ang]:                      1.530924
      Cartesian components [Ang]:       [  1.125177,   0.416821,   0.950772]
    Electron size [Ang]:                  3.845179
      Cartesian components [Ang]:       [  1.764839,   2.958476,   1.708265]
    RMS electron-hole separation [Ang]:   4.108582
      Cartesian components [Ang]:       [  2.032836,   2.987195,   1.955682]
    Covariance(r_h, r_e) [Ang^2]:         0.125869
    Correlation coefficient:              0.021382
    Center-of-mass size [Ang]:            2.084519
      Cartesian components [Ang]:       [  1.075748,   1.494097,   0.977578]

  Decomposition into state-averaged NTOs
    H- 3 -> L+ 2: -0.6758 ( 91.3%)
                   omega =  91.8%
  ----------------------------------------------------------------------------


  Excited state 8 (singlet, A2)                                    [converged]
  ----------------------------------------------------------------------------
  Term symbol:  8 (1) A2                                    R^2 =  5.15209e-09

  Total energy:                                            -78.4472342410 a.u.
  Excitation energy:                                              10.041884 eV

  Osc. strength:                                                      0.000000
  Trans. dip. moment [a.u.]:           [  -0.000000,   -0.000000,   -0.000000]
  <i|r^2|0> [a.u.]:                    [   0.000000,    0.000000,    0.000000]

  Dip. moment [a.u.]:                  [   0.000000,    0.000000,   -3.320022]
  Total dipole [Debye]:                                               8.438655
  <r^2> [a.u.]:                        [  80.351902,   24.254960,   99.153420]
  Total <r^2> [a.u.]:                                               203.760282

  V1^2 = 0.9449, V2^2 = 0.0551

  Important amplitudes:
      occ i      occ j       vir a       vir b          v   
    ---------------------------------------------------------
     1 (B2) A               6 (B1) A                  0.6505
     1 (B2) A               4 (B1) A                  0.1381
    ---------------------------------------------------------

  Density matrix analysis:
  ------------------------
  NOs
    Occupation of frontier NOs:
       0.9718   0.9973
    Number of electrons: 18.000000
    Number of unpaired electrons: n_u =  2.38189, n_u,nl =  2.03612
    NO participation ratio (PR_NO):  2.911371
  
  
  Mulliken Population Analysis
  Atom      Charge (e)              h+              e-           Del q
  --------------------------------------------------------------------
   1 C       -0.581323        0.527506       -0.727636       -0.200130
   2 C       -0.581323        0.527506       -0.727636       -0.200130
   3 H        0.148768        0.061577       -0.068693       -0.007116
   4 H        0.148768        0.061577       -0.068693       -0.007116
   5 H        0.235416        0.107858        0.090484        0.198342
   6 H        0.235416        0.107858        0.090484        0.198342
   7 H       -0.605723        0.035014       -0.017207        0.017807
  --------------------------------------------------------------------
  Sum:       -1.000000        1.428896       -1.428896        0.000000
  
  Multipole moment analysis of the density matrix
    Molecular charge:                      -1.000000
    Number of electrons:                   18.000000
      Center of electronic charge [Ang]: [ -0.000000,  -0.000000,   0.097604]
    Total nuclear charge:                  17.000000
      Center of nuclear charge [Ang]:    [ -0.000000,   0.000000,  -0.000000]
    Dipole moment [D]:                     8.438653
      Cartesian components [D]:          [  0.000000,   0.000000,  -8.438653]
    RMS size of the density [Ang]:         1.777752
      Cartesian components [Ang]:        [  1.118054,   0.614278,   1.238151]
  
  Exciton analysis of the difference density matrix
    <r_h> [Ang]:                  [  0.000000,   0.000000,  -0.138504]
    <r_e> [Ang]:                  [ -0.000000,  -0.000000,  -0.570849]
    |<r_e - r_h>| [Ang]:            0.432345
    Hole size [Ang]:                1.761996
      Cartesian components [Ang]: [  1.081414,   0.904905,   1.056561]
    Electron size [Ang]:            3.374215
      Cartesian components [Ang]: [  2.555321,   1.518072,   1.597222]

  Transition density matrix analysis:
  -----------------------------------
  
  CT numbers (Mulliken)
    omega =     0.9137
    <Phe> =    -0.0035
  
  Exciton analysis of the transition density matrix
    Trans. dipole moment [D]:             0.000000
      Cartesian components [D]:         [ -0.000000,  -0.000000,  -0.000000]
    <r_h> [Ang]:                        [ -0.000000,  -0.000000,  -0.178827]
    <r_e> [Ang]:                        [ -0.000000,  -0.000000,  -0.807687]
    |<r_e - r_h>| [Ang]:                  0.628860
    Hole size [Ang]:                      1.295022
      Cartesian components [Ang]:       [  0.766067,   0.874146,   0.571044]
    Electron size [Ang]:                  3.857841
      Cartesian components [Ang]:       [  2.967574,   1.761422,   1.724482]
    RMS electron-hole separation [Ang]:   4.109889
      Cartesian components [Ang]:       [  3.059411,   1.964779,   1.915941]
    Covariance(r_h, r_e) [Ang^2]:         0.032151
    Correlation coefficient:              0.006435
    Center-of-mass size [Ang]:            2.038647
      Cartesian components [Ang]:       [  1.535147,   0.984012,   0.911660]

  Decomposition into state-averaged NTOs
    H- 0 -> L+ 3: -0.5443 ( 59.2%)
    H- 0 -> L+ 5:  0.3901 ( 30.4%)
    H- 2 -> L+ 0: -0.0737 (  1.1%)
                   omega =  91.4%
  ----------------------------------------------------------------------------


  Excited state 9 (singlet, A2)                                    [converged]
  ----------------------------------------------------------------------------
  Term symbol:  9 (1) A2                                    R^2 =  1.35395e-10

  Total energy:                                            -78.4067942900 a.u.
  Excitation energy:                                              11.142311 eV

  Osc. strength:                                                      0.000000
  Trans. dip. moment [a.u.]:           [  -0.000000,    0.000000,   -0.000000]
  <i|r^2|0> [a.u.]:                    [  -0.000000,   -0.000000,   -0.000000]

  Dip. moment [a.u.]:                  [  -0.000000,   -0.000000,    9.275745]
  Total dipole [Debye]:                                              23.576597
  <r^2> [a.u.]:                        [ 107.995851,   59.399622,   52.571209]
  Total <r^2> [a.u.]:                                               219.966681

  V1^2 = 0.0001, V2^2 = 0.9999

  Important amplitudes:
      occ i      occ j       vir a       vir b          v   
    ---------------------------------------------------------
     5 (A1) A   5 (A1) B    4 (B1) A    2 (B2) B      0.3535
     5 (A1) A               3 (A2) A                  0.0056
    ---------------------------------------------------------

  Density matrix analysis:
  ------------------------
  NOs
    Occupation of frontier NOs:
       1.0004   1.0015
    Number of electrons: 18.000000
    Number of unpaired electrons: n_u =  2.40955, n_u,nl =  2.06389
    NO participation ratio (PR_NO):  2.884862
  
  
  Mulliken Population Analysis
  Atom      Charge (e)              h+              e-           Del q
  --------------------------------------------------------------------
   1 C       -1.186902        0.146937       -0.952645       -0.805708
   2 C       -1.186902        0.146937       -0.952645       -0.805708
   3 H        0.183143        0.021595        0.005664        0.027259
   4 H        0.183143        0.021595        0.005664        0.027259
   5 H       -0.015505        0.000406       -0.052985       -0.052579
   6 H       -0.015505        0.000406       -0.052985       -0.052579
   7 H        1.038527        1.662055        0.000002        1.662056
  --------------------------------------------------------------------
  Sum:       -1.000000        1.999931       -1.999931        0.000000
  
  Multipole moment analysis of the density matrix
    Molecular charge:                      -1.000000
    Number of electrons:                   18.000000
      Center of electronic charge [Ang]: [  0.000000,   0.000000,  -0.272695]
    Total nuclear charge:                  17.000000
      Center of nuclear charge [Ang]:    [ -0.000000,   0.000000,  -0.000000]
    Dipole moment [D]:                     23.576590
      Cartesian components [D]:          [ -0.000000,  -0.000000,  23.576590]
    RMS size of the density [Ang]:         1.829669
      Cartesian components [Ang]:        [  1.296189,   0.961295,   0.862262]
  
  Exciton analysis of the difference density matrix
    <r_h> [Ang]:                  [  0.000000,   0.000000,   2.854493]
    <r_e> [Ang]:                  [  0.000000,   0.000000,  -0.787216]
    |<r_e - r_h>| [Ang]:            3.641709
    Hole size [Ang]:                1.536769
      Cartesian components [Ang]: [  0.792364,   0.782357,   1.059120]
    Electron size [Ang]:            4.277234
      Cartesian components [Ang]: [  2.885869,   2.567974,   1.836301]

  Transition density matrix analysis:
  -----------------------------------
  
  CT numbers (Mulliken)
    omega =     0.0001
    <Phe> =     0.0646
  
  Exciton analysis of the transition density matrix
    Trans. dipole moment [D]:             0.000000
      Cartesian components [D]:         [ -0.000000,   0.000000,  -0.000000]
    <r_h> [Ang]:                        [ -0.000000,  -0.000000,   2.040767]
    <r_e> [Ang]:                        [  0.000000,  -0.000000,  -0.552995]
    |<r_e - r_h>| [Ang]:                  2.593762
    Hole size [Ang]:                      2.553214
      Cartesian components [Ang]:       [  1.086765,   1.462447,   1.788600]
    Electron size [Ang]:                  3.407000
      Cartesian components [Ang]:       [  2.539656,   1.800640,   1.384014]
    RMS electron-hole separation [Ang]:   4.921083
      Cartesian components [Ang]:       [  2.789990,   2.361955,   3.294569]
    Covariance(r_h, r_e) [Ang^2]:         0.318545
    Correlation coefficient:              0.036619
    Center-of-mass size [Ang]:            2.165851
      Cartesian components [Ang]:       [  1.367276,   1.138341,   1.235171]

  Decomposition into state-averaged NTOs
                   omega =   0.0%
  ----------------------------------------------------------------------------


  Excited state 10 (singlet, A2)                                    [converged]
  ----------------------------------------------------------------------------
  Term symbol:  10 (1) A2                                   R^2 =  2.85626e-07

  Total energy:                                            -78.3777306673 a.u.
  Excitation energy:                                              11.933172 eV

  Osc. strength:                                                      0.000000
  Trans. dip. moment [a.u.]:           [  -0.000000,   -0.000000,    0.000000]
  <i|r^2|0> [a.u.]:                    [   0.000000,    0.000000,    0.000000]

  Dip. moment [a.u.]:                  [   0.000000,    0.000000,    7.755944]
  Total dipole [Debye]:                                              19.713647
  <r^2> [a.u.]:                        [ 118.001995,   49.267500,   48.517485]
  Total <r^2> [a.u.]:                                               215.786980

  V1^2 = 0.0450, V2^2 = 0.9550

  Important amplitudes:
      occ i      occ j       vir a       vir b          v   
    ---------------------------------------------------------
     5 (A1) A   5 (A1) B    6 (A1) A    1 (A2) B      0.3428
     4 (A1) A               1 (A2) A                  0.1095
    ---------------------------------------------------------

  Density matrix analysis:
  ------------------------
  NOs
    Occupation of frontier NOs:
       0.9551   0.9852
    Number of electrons: 18.000000
    Number of unpaired electrons: n_u =  2.50927, n_u,nl =  2.09561
    NO participation ratio (PR_NO):  3.297408
  
  
  Mulliken Population Analysis
  Atom      Charge (e)              h+              e-           Del q
  --------------------------------------------------------------------
   1 C       -1.245487        0.158508       -1.022801       -0.864293
   2 C       -1.245487        0.158508       -1.022801       -0.864293
   3 H        0.198109        0.024145        0.018079        0.042224
   4 H        0.198109        0.024145        0.018079        0.042224
   5 H        0.064719        0.006420        0.021225        0.027646
   6 H        0.064719        0.006420        0.021225        0.027646
   7 H        0.965318        1.589890       -0.001043        1.588847
  --------------------------------------------------------------------
  Sum:       -1.000000        1.968036       -1.968036        0.000000
  
  Multipole moment analysis of the density matrix
    Molecular charge:                      -1.000000
    Number of electrons:                   18.000000
      Center of electronic charge [Ang]: [ -0.000000,  -0.000000,  -0.228015]
    Total nuclear charge:                  17.000000
      Center of nuclear charge [Ang]:    [ -0.000000,   0.000000,  -0.000000]
    Dipole moment [D]:                     19.713641
      Cartesian components [D]:          [  0.000000,   0.000000,  19.713641]
    RMS size of the density [Ang]:         1.817976
      Cartesian components [Ang]:        [  1.354907,   0.875478,   0.838333]
  
  Exciton analysis of the difference density matrix
    <r_h> [Ang]:                  [  0.000000,  -0.000000,   2.762478]
    <r_e> [Ang]:                  [ -0.000000,  -0.000000,  -0.529598]
    |<r_e - r_h>| [Ang]:            3.292076
    Hole size [Ang]:                1.617860
      Cartesian components [Ang]: [  0.808312,   0.777043,   1.166322]
    Electron size [Ang]:            4.232543
      Cartesian components [Ang]: [  3.146796,   2.289427,   1.664518]

  Transition density matrix analysis:
  -----------------------------------
  
  CT numbers (Mulliken)
    omega =     0.0442
    <Phe> =    -0.0043
  
  Exciton analysis of the transition density matrix
    Trans. dipole moment [D]:             0.000000
      Cartesian components [D]:         [ -0.000000,  -0.000000,   0.000000]
    <r_h> [Ang]:                        [  0.000000,   0.000000,  -0.036706]
    <r_e> [Ang]:                        [ -0.000000,  -0.000000,  -0.189962]
    |<r_e - r_h>| [Ang]:                  0.153256
    Hole size [Ang]:                      1.430859
      Cartesian components [Ang]:       [  1.058045,   0.431378,   0.861283]
    Electron size [Ang]:                  3.982313
      Cartesian components [Ang]:       [  2.633126,   2.578434,   1.509021]
    RMS electron-hole separation [Ang]:   4.217117
      Cartesian components [Ang]:       [  2.812819,   2.613827,   1.743570]
    Covariance(r_h, r_e) [Ang^2]:         0.072792
    Correlation coefficient:              0.012775
    Center-of-mass size [Ang]:            2.124368
      Cartesian components [Ang]:       [  1.431229,   1.307357,   0.869103]

  Decomposition into state-averaged NTOs
    H- 2 -> L+ 1:  0.1285 (  3.3%)
                   omega =   4.4%
  ----------------------------------------------------------------------------


--------------------------------------------------------------------------------
  Time of ADC calculation:  CPU 134.17 s  wall 39.29 s
================================================================================
 
 --------------------------------------------------------------
             Orbital Energies (a.u.) and Symmetries
 --------------------------------------------------------------
 
 Alpha MOs, Restricted
 -- Occupied --                  
-11.075 -11.073  -0.881  -0.623  -0.497  -0.408  -0.352  -0.217
  1 A1    1 B1    2 A1    2 B1    3 A1    4 A1    3 B1    1 B2                 
 -0.027
  5 A1                                                                         
 -- Virtual --                   
  0.161   0.183   0.195   0.200   0.203   0.217   0.291   0.308
  4 B1    6 A1    2 B2    1 A2    7 A1    5 B1    8 A1    2 A2                 
  0.322   0.401   0.430   0.432   0.443   0.444   0.477   0.506
  6 B1    9 A1    7 B1   10 A1    8 B1    3 B2   11 A1   12 A1                 
  0.517   0.524   0.705   0.755   0.956   1.012   1.039   1.066
  9 B1    3 A2   10 B1   11 B1   13 A1   14 A1   15 A1   16 A1                 
  1.088   1.176   1.193   1.205   1.235   1.239   1.253   1.276
 12 B1   17 A1    4 B2   13 B1    4 A2   18 A1   14 B1    5 B2                 
  1.421   1.445   1.446   1.559   1.778   1.793   1.889   1.896
 15 B1    6 B2    5 A2   16 B1   19 A1   17 B1   20 A1    7 B2                 
  1.931   1.993   2.028   2.102   2.112   2.182   2.210   2.250
 18 B1   21 A1    6 A2    8 B2   19 B1    9 B2   22 A1   23 A1                 
  2.337   2.484   2.574   2.639   2.732   2.755   2.973   3.001
  7 A2   20 B1    8 A2   24 A1   21 B1   22 B1   25 A1   26 A1                 
  3.410   3.503
 23 B1   24 B1                                                                 
 
 Beta MOs, Restricted
 -- Occupied --                  
-11.075 -11.073  -0.881  -0.623  -0.497  -0.408  -0.352  -0.217
  1 A1    1 B1    2 A1    2 B1    3 A1    4 A1    3 B1    1 B2                 
 -0.027
  5 A1                                                                         
 -- Virtual --                   
  0.161   0.183   0.195   0.200   0.203   0.217   0.291   0.308
  4 B1    6 A1    2 B2    1 A2    7 A1    5 B1    8 A1    2 A2                 
  0.322   0.401   0.430   0.432   0.443   0.444   0.477   0.506
  6 B1    9 A1    7 B1   10 A1    8 B1    3 B2   11 A1   12 A1                 
  0.517   0.524   0.705   0.755   0.956   1.012   1.039   1.066
  9 B1    3 A2   10 B1   11 B1   13 A1   14 A1   15 A1   16 A1                 
  1.088   1.176   1.193   1.205   1.235   1.239   1.253   1.276
 12 B1   17 A1    4 B2   13 B1    4 A2   18 A1   14 B1    5 B2                 
  1.421   1.445   1.446   1.559   1.778   1.793   1.889   1.896
 15 B1    6 B2    5 A2   16 B1   19 A1   17 B1   20 A1    7 B2                 
  1.931   1.993   2.028   2.102   2.112   2.182   2.210   2.250
 18 B1   21 A1    6 A2    8 B2   19 B1    9 B2   22 A1   23 A1                 
  2.337   2.484   2.574   2.639   2.732   2.755   2.973   3.001
  7 A2   20 B1    8 A2   24 A1   21 B1   22 B1   25 A1   26 A1                 
  3.410   3.503
 23 B1   24 B1                                                                 
 --------------------------------------------------------------
 
          Ground-State Mulliken Net Atomic Charges

     Atom                 Charge (a.u.)
  ----------------------------------------
      1 C                    -0.353166
      2 C                    -0.353166
      3 H                     0.156337
      4 H                     0.156337
      5 H                     0.029345
      6 H                     0.029345
      7 H                    -0.665032
  ----------------------------------------
  Sum of atomic charges =    -1.000000

 -----------------------------------------------------------------
                    Cartesian Multipole Moments
 -----------------------------------------------------------------
    Charge (ESU x 10^10)
                -4.8032
    Dipole Moment (Debye)
         X      -0.0000      Y       0.0000      Z     -11.7795
       Tot      11.7795
    Quadrupole Moments (Debye-Ang)
        XX     -19.4852     XY       0.0000     YY     -22.3546
        XZ      -0.0000     YZ      -0.0000     ZZ     -57.3499
    Octopole Moments (Debye-Ang^2)
       XXX      -0.0000    XXY       0.0000    XYY      -0.0000
       YYY       0.0000    XXZ      -9.2788    XYZ      -0.0000
       YYZ     -10.2163    XZZ      -0.0000    YZZ      -0.0000
       ZZZ    -136.7514
    Hexadecapole Moments (Debye-Ang^3)
      XXXX     -93.9301   XXXY      -0.0000   XXYY     -23.5899
      XYYY       0.0000   YYYY     -44.6932   XXXZ       0.0000
      XXYZ      -0.0000   XYYZ      -0.0000   YYYZ      -0.0000
      XXZZ     -66.9398   XYZZ      -0.0000   YYZZ     -60.9957
      XZZZ      -0.0000   YZZZ      -0.0000   ZZZZ    -626.4629
 -----------------------------------------------------------------
 Total job time:  120.17s(wall), 178.09s(cpu) 
 Thu Feb 17 13:29:21 2022

        *************************************************************
        *                                                           *
        *  Thank you very much for using Q-Chem.  Have a nice day.  *
        *                                                           *
        *************************************************************


