/src/tsommerfeld/qchem/exe/qcprog.exe .input1.5.24147.qcin.1 /src/jdavis/qchem.scratch/qchem24147/

                  Welcome to Q-Chem
     A Quantum Leap Into The Future Of Chemistry


 Q-Chem 5.4 (devel), Q-Chem, Inc., Pleasanton, CA (2021)

 E. Epifanovsky,  A. T. B. Gilbert,  Xintian Feng,  Joonho Lee,  Yuezhi Mao,  
 N. Mardirossian,  P. Pokhilko,  A. White,  M. Wormit,  M. P. Coons,  
 A. L. Dempwolff,  Zhengting Gan,  D. Hait,  P. R. Horn,  L. D. Jacobson,  
 I. Kaliman,  J. Kussmann,  A. W. Lange,  Ka Un Lao,  D. S. Levine,  Jie Liu,  
 S. C. McKenzie,  A. F. Morrison,  K. Nanda,  F. Plasser,  D. R. Rehn,  
 M. L. Vidal,  Zhi-Qiang You,  Ying Zhu,  B. Alam,  B. Albrecht,  
 A. Aldossary,  E. Alguire,  J. H. Andersen,  D. Barton,  K. Begam,  A. Behn,  
 Y. A. Bernard,  E. J. Berquist,  H. Burton,  A. Carreras,  K. Carter-Fenk,  
 R. Chakraborty,  A. D. Chien,  K. D. Closser,  V. Cofer-Shabica,  
 S. Dasgupta,  Jia Deng,  M. de Wergifosse,  M. Diedenhofen,  Hainam Do,  
 S. Ehlert,  Po-Tung Fang,  S. Fatehi,  Qingguo Feng,  T. Friedhoff,  
 J. Gayvert,  Qinghui Ge,  G. Gidofalvi,  M. Goldey,  J. Gomes,  
 C. Gonzalez-Espinoza,  S. Gulania,  A. Gunina,  M. W. D. Hanson-Heine,  
 P. H. P. Harbach,  A. W. Hauser,  M. F. Herbst,  M. Hernandez Vera,  
 M. Hodecker,  Z. C. Holden,  S. Houck,  Xunkun Huang,  Kerwin Hui,  
 B. C. Huynh,  M. Ivanov,  Hyunjun Ji,  Hanjie Jiang,  B. Kaduk,  S. Kaehler,  
 K. Khistyaev,  Jaehoon Kim,  P. Klunzinger,  Z. Koczor-Benda,  
 Joong Hoon Koh,  D. Kosenkov,  L. Koulias,  T. Kowalczyk,  C. M. Krauter,  
 K. Kue,  A. Kunitsa,  T. Kus,  A. Landau,  K. V. Lawler,  D. Lefrancois,  
 S. Lehtola,  Rain Li,  Yi-Pei Li,  Jiashu Liang,  M. Liebenthal,  
 Hung-Hsuan Lin,  You-Sheng Lin,  Fenglai Liu,  Kuan-Yu Liu,  
 M. Loipersberger,  A. Luenser,  A. Manjanath,  P. Manohar,  E. Mansoor,  
 S. F. Manzer,  Shan-Ping Mao,  A. V. Marenich,  T. Markovich,  S. Mason,  
 S. A. Maurer,  P. F. McLaughlin,  M. F. S. J. Menger,  J.-M. Mewes,  
 S. A. Mewes,  P. Morgante,  J. W. Mullinax,  K. J. Oosterbaan,  G. Paran,  
 Alexander C. Paul,  Suranjan K. Paul,  F. Pavosevic,  Zheng Pei,  S. Prager,  
 E. I. Proynov,  E. Ramos,  B. Rana,  A. E. Rask,  A. Rettig,  R. M. Richard,  
 F. Rob,  E. Rossomme,  T. Scheele,  M. Scheurer,  M. Schneider,  
 N. Sergueev,  S. M. Sharada,  W. Skomorowski,  D. W. Small,  C. J. Stein,  
 Yu-Chuan Su,  E. J. Sundstrom,  Zhen Tao,  J. Thirman,  T. Tsuchimochi,  
 N. M. Tubman,  S. P. Veccham,  O. Vydrov,  J. Wenzel,  J. Witte,  A. Yamada,  
 Kun Yao,  S. Yeganeh,  S. R. Yost,  A. Zech,  Igor Ying Zhang,  Xing Zhang,  
 Yu Zhang,  D. Zuev,  A. Aspuru-Guzik,  A. T. Bell,  N. A. Besley,  
 K. B. Bravaya,  B. R. Brooks,  D. Casanova,  Jeng-Da Chai,  S. Coriani,  
 C. J. Cramer,  A. E. DePrince, III,  R. A. DiStasio Jr.,  A. Dreuw,  
 B. D. Dunietz,  T. R. Furlani,  W. A. Goddard III,  S. Grimme,  
 S. Hammes-Schiffer,  T. Head-Gordon,  W. J. Hehre,  Chao-Ping Hsu,  
 T.-C. Jagau,  Yousung Jung,  A. Klamt,  Jing Kong,  D. S. Lambrecht,  
 WanZhen Liang,  N. J. Mayhall,  C. W. McCurdy,  J. B. Neaton,  
 C. Ochsenfeld,  J. A. Parkhill,  R. Peverati,  V. A. Rassolov,  Yihan Shao,  
 L. V. Slipchenko,  T. Stauch,  R. P. Steele,  J. E. Subotnik,  
 A. J. W. Thom,  A. Tkatchenko,  D. G. Truhlar,  T. Van Voorhis,  
 T. A. Wesolowski,  K. B. Whaley,  H. L. Woodcock III,  P. M. Zimmerman,  
 S. Faraji,  P. M. W. Gill,  M. Head-Gordon,  J. M. Herbert,  A. I. Krylov

 Additional authors for Version 5.4.1: 
 S. Kotaru,  Shaozhi Li,  Xiangyuan Li,  F. Matz,  A. Molle,  Haisheng Ren,  
 Yingli Su,  Hung-Yi Tsai,  C. Utku,  Fang Wang

 Contributors to earlier versions of Q-Chem not listed above: 
 R. D. Adamson,  B. Austin,  R. Baer,  J. Baker,  G. J. O. Beran,  
 K. Brandhorst,  S. T. Brown,  E. F. C. Byrd,  A. K. Chakraborty,  
 G. K. L. Chan,  Chun-Min Chang,  Yunqing Chen,  C.-L. Cheng,  
 Siu Hung Chien,  D. M. Chipman,  D. L. Crittenden,  H. Dachsel,  
 R. J. Doerksen,  A. D. Dutoi,  R. G. Edgar,  J. Fosso-Tande,  
 L. Fusti-Molnar,  D. Ghosh,  A. Ghysels,  A. Golubeva-Zadorozhnaya,  
 J. Gonthier,  M. S. Gordon,  S. R. Gwaltney,  G. Hawkins,  J. E. Herr,  
 A. Heyden,  S. Hirata,  E. G. Hohenstein,  G. Kedziora,  F. J. Keil,  
 C. Kelley,  Jihan Kim,  R. A. King,  R. Z. Khaliullin,  P. P. Korambath,  
 W. Kurlancheek,  A. Laurent,  A. M. Lee,  M. S. Lee,  S. V. Levchenko,  
 Ching Yeh Lin,  D. Liotard,  E. Livshits,  R. C. Lochan,  I. Lotan,  
 L. A. Martinez-Martinez,  P. E. Maslen,  N. Nair,  D. P. O'Neill,  
 D. Neuhauser,  E. Neuscamman,  C. M. Oana,  R. Olivares-Amaya,  R. Olson,  
 T. M. Perrine,  B. Peters,  P. A. Pieniazek,  A. Prociuk,  Y. M. Rhee,  
 J. Ritchie,  M. A. Rohrdanz,  E. Rosta,  N. J. Russ,  H. F. Schaefer III,  
 M. W. Schmidt,  N. E. Schultz,  S. Sharma,  N. Shenvi,  C. D. Sherrill,  
 A. C. Simmonett,  A. Sodt,  T. Stein,  D. Stuck,  K. S. Thanthiriwatte,  
 V. Vanovschi,  L. Vogt,  Tao Wang,  A. Warshel,  M. A. Watson,  
 C. F. Williams,  Q. Wu,  X. Xu,  Jun Yang,  W. Zhang,  Yan Zhao

 Please cite Q-Chem as follows:
 Y. Shao et al., Mol. Phys. 113, 184-215 (2015)
 DOI: 10.1080/00268976.2014.952696

 Q-Chem 5.4.1 for Intel X86 EM64T Linux

 Parts of Q-Chem use Armadillo 9.900.5 (Nocturnal Misbehaviour).
 http://arma.sourceforge.net/

 Q-Chem begins on Thu Feb 17 21:08:48 2022  

 Host: node01
0

     Scratch files written to /src/jdavis/qchem.scratch/qchem24147//
 Processing $rem in /src/tsommerfeld/qchem/config/preferences:
 Processing $rem in /home/jdavis/.qchemrc:

 Checking the input file for inconsistencies... 	...done.

--------------------------------------------------------------
User input:
--------------------------------------------------------------
$molecule
-1 1
C        -0.6645000000    0.0000000000   -0.2082049804
C         0.6645000000    0.0000000000   -0.2082049804
H        -1.1590800000    0.0000000000    0.7541440196
H         1.1590800000    0.0000000000    0.7541440196
H        -1.1590800000    0.0000000000   -1.1705529804
H         1.1590800000    0.0000000000   -1.1705529804
H         0.0000000000    0.0000000000    3.0139349415
$end

$rem
   METHOD adc(2)
   BASIS gen
   PURECART 11
   EE_STATES [0,10,0,0]
   scf_convergence 8
   ADC_DAVIDSON_MAXITER 120
   ADC_DAVIDSON_MAXSUBSPACE 200
   adc_nguess_singles 100
   THRESH 14
   S2THRESH 14
   adc_davidson_conv 5
   adc_davidson_thresh 14
   THREADS 10
   MEM_TOTAL 95000
   STATE_ANALYSIS TRUE
$end
$basis
C 1
S   9   1.00
      6.665000D+03           6.920000D-04
      1.000000D+03           5.329000D-03
      2.280000D+02           2.707700D-02
      6.471000D+01           1.017180D-01
      2.106000D+01           2.747400D-01
      7.495000D+00           4.485640D-01
      2.797000D+00           2.850740D-01
      5.215000D-01           1.520400D-02
      1.596000D-01          -3.191000D-03
S   9   1.00
      6.665000D+03          -1.460000D-04
      1.000000D+03          -1.154000D-03
      2.280000D+02          -5.725000D-03
      6.471000D+01          -2.331200D-02
      2.106000D+01          -6.395500D-02
      7.495000D+00          -1.499810D-01
      2.797000D+00          -1.272620D-01
      5.215000D-01           5.445290D-01
      1.596000D-01           5.804960D-01
S   1   1.00
      1.596000D-01           1.000000D+00
S   1   1.00
      0.0469000              1.0000000
P   4   1.00
      9.439000D+00           3.810900D-02
      2.002000D+00           2.094800D-01
      5.456000D-01           5.085570D-01
      1.517000D-01           4.688420D-01
P   1   1.00
      1.517000D-01           1.000000D+00
P   1   1.00
      0.09102      1.0000000
P   1   1.00
      0.04551      1.0000000
D   1   1.00
      5.500000D-01           1.0000000
****
C 2
S   9   1.00
      6.665000D+03           6.920000D-04
      1.000000D+03           5.329000D-03
      2.280000D+02           2.707700D-02
      6.471000D+01           1.017180D-01
      2.106000D+01           2.747400D-01
      7.495000D+00           4.485640D-01
      2.797000D+00           2.850740D-01
      5.215000D-01           1.520400D-02
      1.596000D-01          -3.191000D-03
S   9   1.00
      6.665000D+03          -1.460000D-04
      1.000000D+03          -1.154000D-03
      2.280000D+02          -5.725000D-03
      6.471000D+01          -2.331200D-02
      2.106000D+01          -6.395500D-02
      7.495000D+00          -1.499810D-01
      2.797000D+00          -1.272620D-01
      5.215000D-01           5.445290D-01
      1.596000D-01           5.804960D-01
S   1   1.00
      1.596000D-01           1.000000D+00
S   1   1.00
      0.0469000              1.0000000
P   4   1.00
      9.439000D+00           3.810900D-02
      2.002000D+00           2.094800D-01
      5.456000D-01           5.085570D-01
      1.517000D-01           4.688420D-01
P   1   1.00
      1.517000D-01           1.000000D+00
P   1   1.00
      0.09102      1.0000000
P   1   1.00
      0.04551      1.0000000
D   1   1.00
      5.500000D-01           1.0000000
****
H 3
cc-pVDZ
****
H 4
cc-pVDZ
****
H 5
cc-pVDZ
****
H 6
cc-pVDZ
****
H 7
aug-cc-pVDZ
****
$end
--------------------------------------------------------------
 ----------------------------------------------------------------
             Standard Nuclear Orientation (Angstroms)
    I     Atom           X                Y                Z
 ----------------------------------------------------------------
    1      C      -0.6645000000    -0.0000000000    -0.1895377601
    2      C       0.6645000000     0.0000000000    -0.1895377601
    3      H      -1.1590800000    -0.0000000000     0.7728112399
    4      H       1.1590800000     0.0000000000     0.7728112399
    5      H      -1.1590800000    -0.0000000000    -1.1518857601
    6      H       1.1590800000     0.0000000000    -1.1518857601
    7      H      -0.0000000000     0.0000000000     3.0326021618
 ----------------------------------------------------------------
 Molecular Point Group                 C2v   NOp =  4
 Largest Abelian Subgroup              C2v   NOp =  4
 Nuclear Repulsion Energy =          36.17984589 hartrees
 There are        9 alpha and        9 beta electrons
 Requested basis set is non-standard
 There are 33 shells and 67 basis functions
 Total memory of 95000 MB is distributed as follows: 
   MEM_STATIC is set to 192 MB
   QALLOC/CCMAN JOB total memory use is  94808 MB
 Warning: actual memory use might exceed 95000 MB

 Total QAlloc Memory Limit  95000 MB
 Mega-Array Size       188 MB
 MEM_STATIC part       192 MB

                       Distance Matrix (Angstroms)
             C (  1)   C (  2)   H (  3)   H (  4)   H (  5)   H (  6)
   C (  2)  1.329000
   H (  3)  1.082000  2.061931
   H (  4)  2.061931  1.082000  2.318160
   H (  5)  1.082000  2.061931  1.924697  3.013026
   H (  6)  2.061931  1.082000  3.013026  1.924697  2.318160
   H (  7)  3.289946  3.289946  2.539709  2.539709  4.342051  4.342051

 
 A cutoff of  1.0D-14 yielded    561 shell pairs
 There are      2337 function pairs (      2484 Cartesian)
 Smallest overlap matrix eigenvalue = 1.92E-04

 Scale SEOQF with 1.000000e-01/1.000000e-01/1.000000e-01

 Standard Electronic Orientation quadrupole field applied
 Nucleus-field energy     =    -0.0000000011 hartrees
 ================ Generating on-the-fly SAD Guess ================
Attempting to make child job directory: /src/jdavis/qchem.scratch/qchem24147//Frg1/
Attempting to make child job directory: /src/jdavis/qchem.scratch/qchem24147//Frg2/
Creating input file /src/jdavis/qchem.scratch/qchem24147/Frg1.input
using default PutDataFrgm: nothing
calling putenv with: QCSCRATCH=/src/jdavis/qchem.scratch/qchem24147/ 
Spawning Job For Fragment 0
Done Job For Fragment 0
calling putenv with: QCSCRATCH=/src/jdavis/qchem.scratch 
calling putenv with: QCTHREADS=1 
Creating input file /src/jdavis/qchem.scratch/qchem24147/Frg2.input
using default PutDataFrgm: nothing
calling putenv with: QCSCRATCH=/src/jdavis/qchem.scratch/qchem24147/ 
Spawning Job For Fragment 1
Done Job For Fragment 1
calling putenv with: QCSCRATCH=/src/jdavis/qchem.scratch 
calling putenv with: QCTHREADS=1 
 Time for running child jobs:  CPU 1.77 s  wall 53.17 s
 ============= Method Specific SAD Guess Constructed =============
 Guess from on-the-fly superposition of atomic densities
 Warning: Energy on first SCF cycle will be non-variational
 A restricted Hartree-Fock SCF calculation will be
 performed using Pulay DIIS extrapolation
 SCF converges when DIIS error is below 1.0E-08
 using 10 threads for integral computing
 -------------------------------------------------------
 OpenMP Integral computing Module                
 Release: version 1.0, May 2013, Q-Chem Inc. Pittsburgh 
 -------------------------------------------------------
 ---------------------------------------
  Cycle       Energy         DIIS Error
 ---------------------------------------
    1     -78.8098167402      7.36E-02
    2     -78.4593753331      6.89E-03
    3     -78.5058004283      1.67E-03
    4     -78.5084024604      5.40E-04
    5     -78.5086967598      1.15E-04
    6     -78.5087207474      2.60E-05
    7     -78.5087227504      7.22E-06
    8     -78.5087229371      9.66E-07
    9     -78.5087229411      2.26E-07
   10     -78.5087229414      4.27E-08
   11     -78.5087229414      9.20E-09 Convergence criterion met
 ---------------------------------------
 SCF time:  CPU 10.25 s  wall 1.03 s
 SCF   energy in the final basis set = -78.50872294
 Total energy in the final basis set = -78.50872294
================================================================================
|                                                                              |
|                                 A D C  M A N                                 |
|                                                                              |
 ------------------------------------------------------------------------------ 
|                                                                              |
| Components:                                                                  |
|                                                                              |
| - libvmm - 1.3-trunk                                                         |
|   Authors:                                                                   |
|   Evgeny Epifanovsky, Ilya Kaliman                                           |
|                                                                              |
| - libtensor - 2.5-trunk                                                      |
|   Authors:                                                                   |
|   Evgeny Epifanovsky, Michael Wormit, Dmitry Zuev, Sam Manzer,               |
|   Ilya Kaliman                                                               |
|                                                                              |
| - libwfa - 1.1-trunk                                                         |
|   Authors:                                                                   |
|   Felix Plasser, Stefanie Mewes (Baeppler), Benjamin Thomitzni,              |
|   Michael Wormit, Feng Chen, Anna I. Krylov, Pavel Pokhilko                  |
|                                                                              |
| - libadc - 1.1-trunk                                                         |
|   Authors:                                                                   |
|   Michael Wormit, Adrian L. Dempwolff, Philipp H. P. Harbach,                |
|   Caroline Krauter, Dirk Rehn, Matthias Schneider, Jan Wenzel                |
|                                                                              |
| - adcman - 2.6-trunk                                                         |
|   Authors:                                                                   |
|   Michael Wormit, Adrian L. Dempwolff, Philipp H. P. Harbach,                |
|   Caroline Krauter, Daniel Lefrancois, Jan-Michael Mewes, Dirk Rehn,         |
|   Matthias Schneider, Jan Wenzel, Andreas Dreuw                              |
|                                                                              |
| Authors of earlier versions of ADCMAN:                                       |
| Andreas Dreuw, Jan Hendrik Starcke, Dirk Rehn, Michael Wormit                |
|                                                                              |
================================================================================

 
 Alpha MOs, Restricted
 -- Occupied --                  
-11.072 -11.070  -0.878  -0.620  -0.494  -0.405  -0.349  -0.214
  1 A1    1 B1    2 A1    2 B1    3 A1    4 A1    3 B1    1 B2                 
 -0.020
  5 A1                                                                         
 -- Virtual --                   
  0.195   0.200   0.231   0.232   0.240   0.261   0.316   0.340
  4 B1    6 A1    1 A2    2 B2    7 A1    5 B1    8 A1    2 A2                 
  0.353   0.437   0.480   0.483   0.500   0.517   0.539   0.559
  6 B1    9 A1    7 B1   10 A1    8 B1   11 A1    3 B2   12 A1                 
  0.575   0.623   0.696   0.774   0.987   1.009   1.060   1.089
  9 B1    3 A2   10 B1   11 B1   13 A1   14 A1   15 A1   12 B1                 
  1.179   1.193   1.262   1.278   1.305   1.306   1.335   1.382
 16 A1   13 B1   17 A1    4 B2   14 B1   18 A1    5 B2    4 A2                 
  1.450   1.459   1.482   1.649   1.789   1.901   1.906   1.910
  5 A2    6 B2   15 B1   16 B1   19 A1   17 B1   20 A1    7 B2                 
  1.945   2.021   2.043   2.107   2.137   2.186   2.251   2.273
 18 B1   21 A1    6 A2    8 B2   19 B1    9 B2   22 A1   23 A1                 
  2.346   2.497   2.577   2.661   2.720   2.755   3.024   3.049
  7 A2   20 B1    8 A2   24 A1   21 B1   22 B1   25 A1   26 A1                 
  3.447   3.517
 23 B1   24 B1                                                                 
 
 Beta MOs, Restricted
 -- Occupied --                  
-11.072 -11.070  -0.878  -0.620  -0.494  -0.405  -0.349  -0.214
  1 A1    1 B1    2 A1    2 B1    3 A1    4 A1    3 B1    1 B2                 
 -0.020
  5 A1                                                                         
 -- Virtual --                   
  0.195   0.200   0.231   0.232   0.240   0.261   0.316   0.340
  4 B1    6 A1    1 A2    2 B2    7 A1    5 B1    8 A1    2 A2                 
  0.353   0.437   0.480   0.483   0.500   0.517   0.539   0.559
  6 B1    9 A1    7 B1   10 A1    8 B1   11 A1    3 B2   12 A1                 
  0.575   0.623   0.696   0.774   0.987   1.009   1.060   1.089
  9 B1    3 A2   10 B1   11 B1   13 A1   14 A1   15 A1   12 B1                 
  1.179   1.193   1.262   1.278   1.305   1.306   1.335   1.382
 16 A1   13 B1   17 A1    4 B2   14 B1   18 A1    5 B2    4 A2                 
  1.450   1.459   1.482   1.649   1.789   1.901   1.906   1.910
  5 A2    6 B2   15 B1   16 B1   19 A1   17 B1   20 A1    7 B2                 
  1.945   2.021   2.043   2.107   2.137   2.186   2.251   2.273
 18 B1   21 A1    6 A2    8 B2   19 B1    9 B2   22 A1   23 A1                 
  2.346   2.497   2.577   2.661   2.720   2.755   3.024   3.049
  7 A2   20 B1    8 A2   24 A1   21 B1   22 B1   25 A1   26 A1                 
  3.447   3.517
 23 B1   24 B1                                                                 

--------------------------------------------------------------------------------
                                   HF Summary                                   
--------------------------------------------------------------------------------
  Energy:                                                  -78.5087229414 a.u.
  Dip. moment [a.u.]:                  [   0.000000,   -0.000000,   -4.706561]
  Total dipole [Debye]:                                              11.962886
  <r^2> [a.u.]:                        [  52.111342,   16.139754,   89.466837]
  Total <r^2> [a.u.]:                                               157.717934
--------------------------------------------------------------------------------

--------------------------------------------------------------------------------
                                 MP(2) Summary                                  
--------------------------------------------------------------------------------
  MP energy contribution:                                   -0.3052867614 a.u.
  Total energy:                                            -78.8140097028 a.u.
  Dip. moment [a.u.]:                  [  -0.000000,    0.000000,   -4.604803]
  Total dipole [Debye]:                                              11.704243
  <r^2> [a.u.]:                        [  52.393469,   16.075829,   88.831887]
  Total <r^2> [a.u.]:                                               157.301185

  Density matrix analysis:
  ------------------------
  NOs
    Occupation of frontier NOs:
       0.0448   1.9361
    Number of electrons: 18.000000
    Number of unpaired electrons: n_u =  0.45639, n_u,nl =  0.04981
    NO participation ratio (PR_NO): 16.051307
  
  
  Mulliken Population Analysis
  Atom      Charge (e)              h+              e-           Del q
  --------------------------------------------------------------------
   1 C       -0.407826        0.087372       -0.111512       -0.024140
   2 C       -0.407826        0.087372       -0.111512       -0.024140
   3 H        0.191023        0.017387       -0.017338        0.000049
   4 H        0.191023        0.017387       -0.017338        0.000049
   5 H        0.057081        0.019637       -0.011359        0.008278
   6 H        0.057081        0.019637       -0.011359        0.008278
   7 H       -0.680556        0.047214       -0.015588        0.031626
  --------------------------------------------------------------------
  Sum:       -1.000000        0.296007       -0.296007        0.000000
  
  Multipole moment analysis of the density matrix
    Molecular charge:                      -1.000000
    Number of electrons:                   18.000000
      Center of electronic charge [Ang]: [  0.000000,  -0.000000,   0.135375]
    Total nuclear charge:                  17.000000
      Center of nuclear charge [Ang]:    [ -0.000000,   0.000000,  -0.000000]
    Dipole moment [D]:                     11.704240
      Cartesian components [D]:          [ -0.000000,   0.000000, -11.704240]
    RMS size of the density [Ang]:         1.558470
      Cartesian components [Ang]:        [  0.902825,   0.500094,   1.167752]
  
  Exciton analysis of the difference density matrix
    <r_h> [Ang]:                  [  0.000000,  -0.000000,   0.271491]
    <r_e> [Ang]:                  [  0.000000,  -0.000000,   0.089576]
    |<r_e - r_h>| [Ang]:            0.181915
    Hole size [Ang]:                1.854860
      Cartesian components [Ang]: [  0.958449,   0.759226,   1.394796]
    Electron size [Ang]:            1.764068
      Cartesian components [Ang]: [  1.088817,   0.718296,   1.187630]
--------------------------------------------------------------------------------
Less singles guess vectors found than requested: 85 (found), 100 (requested).
Adjusting number of doubles guess vectors to 15.
  Starting Davidson for singlet states of irrep A2 ... 
--------------------------------------------------------------------------------
   It NVec Conv  Avg. Norm  Max. Norm  Conv. states           Remark
--------------------------------------------------------------------------------
       100    0  9.274e-02  4.605e-01  0.1375 n n n n n n n n Guess.
    1  110    0  1.327e-02  1.213e-01  0.0929 n n n n n n n n 
    2  120    0  3.771e-03  3.503e-02  0.0928 n n n n n n n n 
    3  130    1  1.153e-03  1.123e-02  0.0928 y n n n n n n n 
    4  140    6  3.222e-05  3.093e-04  0.0928 y y y y y y n n 
    5  150   10  8.482e-07  7.980e-06  0.0928 y y y y y y y y Converged.
--------------------------------------------------------------------------------
  Davidson Summary: 
 ------------------------------------------------------------
  State  0: excitation energy =   0.0928 a.u.   (converged)
  State  1: excitation energy =   0.1741 a.u.   (converged)
  State  2: excitation energy =   0.2544 a.u.   (converged)
  State  3: excitation energy =   0.3250 a.u.   (converged)
  State  4: excitation energy =   0.3525 a.u.   (converged)
  State  5: excitation energy =   0.3804 a.u.   (converged)
  State  6: excitation energy =   0.3973 a.u.   (converged)
  State  7: excitation energy =   0.4453 a.u.   (converged)
  State  8: excitation energy =   0.4495 a.u.   (converged)
  State  9: excitation energy =   0.4662 a.u.   (converged)
 ------------------------------------------------------------


--------------------------------------------------------------------------------
                   State-averaged natural transition orbitals
--------------------------------------------------------------------------------
--------------------------------------------------------------------------------

--------------------------------------------------------------------------------
                             Excited State Summary
--------------------------------------------------------------------------------
--------------------------------------------------------------------------------

  Excited state 1 (singlet, A2)                                    [converged]
  ----------------------------------------------------------------------------
  Term symbol:  1 (1) A2                                    R^2 =  2.14935e-09

  Total energy:                                            -78.7212351141 a.u.
  Excitation energy:                                               2.524525 eV

  Osc. strength:                                                      0.000000
  Trans. dip. moment [a.u.]:           [  -0.000000,    0.000000,   -0.000000]
  <i|r^2|0> [a.u.]:                    [  -0.000000,   -0.000000,    0.000000]

  Dip. moment [a.u.]:                  [  -0.000000,    0.000000,    0.593908]
  Total dipole [Debye]:                                               1.509565
  <r^2> [a.u.]:                        [  62.181083,   24.866449,   62.793993]
  Total <r^2> [a.u.]:                                               149.841525

  V1^2 = 0.9320, V2^2 = 0.0680

  Important amplitudes:
      occ i      occ j       vir a       vir b          v   
    ---------------------------------------------------------
     5 (A1) A               1 (A2) A                 -0.6252
     5 (A1) A               2 (A2) A                  0.2707
    ---------------------------------------------------------

  Density matrix analysis:
  ------------------------
  NOs
    Occupation of frontier NOs:
       0.9926   0.9928
    Number of electrons: 18.000000
    Number of unpaired electrons: n_u =  2.41325, n_u,nl =  2.04360
    NO participation ratio (PR_NO):  2.937877
  
  
  Mulliken Population Analysis
  Atom      Charge (e)              h+              e-           Del q
  --------------------------------------------------------------------
   1 C       -0.695323        0.258388       -0.545886       -0.287498
   2 C       -0.695323        0.258388       -0.545886       -0.287498
   3 H        0.124316        0.014798       -0.081505       -0.066707
   4 H        0.124316        0.014798       -0.081505       -0.066707
   5 H        0.057721        0.009759       -0.009119        0.000641
   6 H        0.057721        0.009759       -0.009119        0.000641
   7 H        0.026573        0.734908       -0.027779        0.707129
  --------------------------------------------------------------------
  Sum:       -1.000000        1.300799       -1.300799       -0.000000
  
  Multipole moment analysis of the density matrix
    Molecular charge:                      -1.000000
    Number of electrons:                   18.000000
      Center of electronic charge [Ang]: [  0.000000,  -0.000000,  -0.017460]
    Total nuclear charge:                  17.000000
      Center of nuclear charge [Ang]:    [ -0.000000,   0.000000,  -0.000000]
    Dipole moment [D]:                     1.509565
      Cartesian components [D]:          [ -0.000000,   0.000000,   1.509565]
    RMS size of the density [Ang]:         1.526696
      Cartesian components [Ang]:        [  0.983545,   0.621973,   0.988226]
  
  Exciton analysis of the difference density matrix
    <r_h> [Ang]:                  [  0.000000,  -0.000000,   2.126683]
    <r_e> [Ang]:                  [  0.000000,  -0.000000,   0.011799]
    |<r_e - r_h>| [Ang]:            2.114884
    Hole size [Ang]:                2.041264
      Cartesian components [Ang]: [  0.952842,   0.868175,   1.582757]
    Electron size [Ang]:            2.661489
      Cartesian components [Ang]: [  1.736355,   1.626690,   1.192675]

  Transition density matrix analysis:
  -----------------------------------
  
  CT numbers (Mulliken)
    omega =     0.9129
    <Phe> =     0.0004
  
  Exciton analysis of the transition density matrix
    Trans. dipole moment [D]:             0.000000
      Cartesian components [D]:         [ -0.000000,   0.000000,  -0.000000]
    <r_h> [Ang]:                        [  0.000000,  -0.000000,   2.835292]
    <r_e> [Ang]:                        [  0.000000,  -0.000000,  -0.188527]
    |<r_e - r_h>| [Ang]:                  3.023819
    Hole size [Ang]:                      1.437603
      Cartesian components [Ang]:       [  0.769096,   0.750762,   0.954751]
    Electron size [Ang]:                  2.760183
      Cartesian components [Ang]:       [  1.851710,   1.769773,   1.028438]
    RMS electron-hole separation [Ang]:   4.336925
      Cartesian components [Ang]:       [  2.000715,   1.921883,   3.333530]
    Covariance(r_h, r_e) [Ang^2]:         0.009937
    Correlation coefficient:              0.002504
    Center-of-mass size [Ang]:            1.557658
      Cartesian components [Ang]:       [  1.004716,   0.961489,   0.701699]

  Decomposition into state-averaged NTOs
    H- 1 -> L+ 0: -0.6282 ( 78.9%)
    H- 1 -> L+ 1: -0.2266 ( 10.3%)
    H- 1 -> L+ 6:  0.1014 (  2.1%)
                   omega =  91.3%
  ----------------------------------------------------------------------------


  Excited state 2 (singlet, A2)                                    [converged]
  ----------------------------------------------------------------------------
  Term symbol:  2 (1) A2                                    R^2 =  5.15076e-09

  Total energy:                                            -78.6398981460 a.u.
  Excitation energy:                                               4.737816 eV

  Osc. strength:                                                      0.000000
  Trans. dip. moment [a.u.]:           [   0.000000,    0.000000,   -0.000000]
  <i|r^2|0> [a.u.]:                    [  -0.000000,   -0.000000,    0.000000]

  Dip. moment [a.u.]:                  [  -0.000000,   -0.000000,    0.604982]
  Total dipole [Debye]:                                               1.537712
  <r^2> [a.u.]:                        [  67.012020,   29.869062,   64.347822]
  Total <r^2> [a.u.]:                                               161.228905

  V1^2 = 0.9288, V2^2 = 0.0712

  Important amplitudes:
      occ i      occ j       vir a       vir b          v   
    ---------------------------------------------------------
     5 (A1) A               2 (A2) A                 -0.6131
     5 (A1) A               1 (A2) A                 -0.2824
    ---------------------------------------------------------

  Density matrix analysis:
  ------------------------
  NOs
    Occupation of frontier NOs:
       0.9879   0.9920
    Number of electrons: 18.000000
    Number of unpaired electrons: n_u =  2.42793, n_u,nl =  2.04853
    NO participation ratio (PR_NO):  2.988233
  
  
  Mulliken Population Analysis
  Atom      Charge (e)              h+              e-           Del q
  --------------------------------------------------------------------
   1 C       -0.680655        0.254079       -0.526909       -0.272829
   2 C       -0.680655        0.254079       -0.526909       -0.272829
   3 H        0.116269        0.011634       -0.086388       -0.074754
   4 H        0.116269        0.011634       -0.086388       -0.074754
   5 H        0.050317        0.007563       -0.014327       -0.006764
   6 H        0.050317        0.007563       -0.014327       -0.006764
   7 H        0.028138        0.736734       -0.028040        0.708694
  --------------------------------------------------------------------
  Sum:       -1.000000        1.283288       -1.283288        0.000000
  
  Multipole moment analysis of the density matrix
    Molecular charge:                      -1.000000
    Number of electrons:                   18.000000
      Center of electronic charge [Ang]: [  0.000000,   0.000000,  -0.017786]
    Total nuclear charge:                  17.000000
      Center of nuclear charge [Ang]:    [ -0.000000,   0.000000,  -0.000000]
    Dipole moment [D]:                     1.537712
      Cartesian components [D]:          [ -0.000000,  -0.000000,   1.537712]
    RMS size of the density [Ang]:         1.583649
      Cartesian components [Ang]:        [  1.021036,   0.681672,   1.000376]
  
  Exciton analysis of the difference density matrix
    <r_h> [Ang]:                  [  0.000000,  -0.000000,   2.165793]
    <r_e> [Ang]:                  [  0.000000,   0.000000,   0.017484]
    |<r_e - r_h>| [Ang]:            2.148309
    Hole size [Ang]:                2.013844
      Cartesian components [Ang]: [  0.944305,   0.852274,   1.561244]
    Electron size [Ang]:            3.098870
      Cartesian components [Ang]: [  2.020310,   1.932930,   1.336087]

  Transition density matrix analysis:
  -----------------------------------
  
  CT numbers (Mulliken)
    omega =     0.9117
    <Phe> =     0.0001
  
  Exciton analysis of the transition density matrix
    Trans. dipole moment [D]:             0.000000
      Cartesian components [D]:         [  0.000000,   0.000000,  -0.000000]
    <r_h> [Ang]:                        [  0.000000,  -0.000000,   2.836942]
    <r_e> [Ang]:                        [  0.000000,   0.000000,  -0.188767]
    |<r_e - r_h>| [Ang]:                  3.025710
    Hole size [Ang]:                      1.436180
      Cartesian components [Ang]:       [  0.769024,   0.750991,   0.952486]
    Electron size [Ang]:                  3.316591
      Cartesian components [Ang]:       [  2.198750,   2.148500,   1.244679]
    RMS electron-hole separation [Ang]:   4.712198
      Cartesian components [Ang]:       [  2.327476,   2.275246,   3.407480]
    Covariance(r_h, r_e) [Ang^2]:         0.006250
    Correlation coefficient:              0.001312
    Center-of-mass size [Ang]:            1.807961
      Cartesian components [Ang]:       [  1.165617,   1.138347,   0.783726]

  Decomposition into state-averaged NTOs
    H- 1 -> L+ 1: -0.6144 ( 75.5%)
    H- 1 -> L+ 0:  0.2298 ( 10.6%)
    H- 1 -> L+ 6:  0.1593 (  5.1%)
                   omega =  91.2%
  ----------------------------------------------------------------------------


  Excited state 3 (singlet, A2)                                    [converged]
  ----------------------------------------------------------------------------
  Term symbol:  3 (1) A2                                    R^2 =  1.10301e-08

  Total energy:                                            -78.5596140106 a.u.
  Excitation energy:                                               6.922459 eV

  Osc. strength:                                                      0.000000
  Trans. dip. moment [a.u.]:           [   0.000000,   -0.000000,    0.000000]
  <i|r^2|0> [a.u.]:                    [  -0.000000,    0.000000,    0.000000]

  Dip. moment [a.u.]:                  [   0.000000,    0.000000,   -3.016766]
  Total dipole [Debye]:                                               7.667856
  <r^2> [a.u.]:                        [  80.308072,   20.032994,   95.767951]
  Total <r^2> [a.u.]:                                               196.109017

  V1^2 = 0.9441, V2^2 = 0.0559

  Important amplitudes:
      occ i      occ j       vir a       vir b          v   
    ---------------------------------------------------------
     1 (B2) A               4 (B1) A                 -0.6753
     1 (B2) A               8 (B1) A                  0.0757
    ---------------------------------------------------------

  Density matrix analysis:
  ------------------------
  NOs
    Occupation of frontier NOs:
       0.9821   0.9924
    Number of electrons: 18.000000
    Number of unpaired electrons: n_u =  2.34030, n_u,nl =  2.02814
    NO participation ratio (PR_NO):  2.798979
  
  
  Mulliken Population Analysis
  Atom      Charge (e)              h+              e-           Del q
  --------------------------------------------------------------------
   1 C       -0.525186        0.541338       -0.658699       -0.117361
   2 C       -0.525186        0.541338       -0.658699       -0.117361
   3 H        0.244555        0.067395       -0.013862        0.053532
   4 H        0.244555        0.067395       -0.013862        0.053532
   5 H        0.111999        0.113843       -0.058925        0.054918
   6 H        0.111999        0.113843       -0.058925        0.054918
   7 H       -0.662735        0.034956       -0.017136        0.017821
  --------------------------------------------------------------------
  Sum:       -1.000000        1.480109       -1.480109        0.000000
  
  Multipole moment analysis of the density matrix
    Molecular charge:                      -1.000000
    Number of electrons:                   18.000000
      Center of electronic charge [Ang]: [ -0.000000,  -0.000000,   0.088689]
    Total nuclear charge:                  17.000000
      Center of nuclear charge [Ang]:    [ -0.000000,   0.000000,  -0.000000]
    Dipole moment [D]:                     7.667854
      Cartesian components [D]:          [  0.000000,   0.000000,  -7.667854]
    RMS size of the density [Ang]:         1.744428
      Cartesian components [Ang]:        [  1.117749,   0.558262,   1.217378]
  
  Exciton analysis of the difference density matrix
    <r_h> [Ang]:                  [  0.000000,   0.000000,  -0.149533]
    <r_e> [Ang]:                  [ -0.000000,  -0.000000,  -0.717297]
    |<r_e - r_h>| [Ang]:            0.567764
    Hole size [Ang]:                1.717962
      Cartesian components [Ang]: [  1.066569,   0.886230,   1.014110]
    Electron size [Ang]:            3.130730
      Cartesian components [Ang]: [  2.533547,   1.238579,   1.359606]

  Transition density matrix analysis:
  -----------------------------------
  
  CT numbers (Mulliken)
    omega =     0.9132
    <Phe> =    -0.0030
  
  Exciton analysis of the transition density matrix
    Trans. dipole moment [D]:             0.000000
      Cartesian components [D]:         [  0.000000,  -0.000000,   0.000000]
    <r_h> [Ang]:                        [ -0.000000,  -0.000000,  -0.196709]
    <r_e> [Ang]:                        [ -0.000000,  -0.000000,  -1.048114]
    |<r_e - r_h>| [Ang]:                  0.851405
    Hole size [Ang]:                      1.276221
      Cartesian components [Ang]:       [  0.764011,   0.880313,   0.519688]
    Electron size [Ang]:                  3.610525
      Cartesian components [Ang]:       [  3.001724,   1.446487,   1.390403]
    RMS electron-hole separation [Ang]:   3.914060
      Cartesian components [Ang]:       [  3.090055,   1.686716,   1.710676]
    Covariance(r_h, r_e) [Ang^2]:         0.034829
    Correlation coefficient:              0.007559
    Center-of-mass size [Ang]:            1.919263
      Cartesian components [Ang]:       [  1.552391,   0.849932,   0.742474]

  Decomposition into state-averaged NTOs
    H- 0 -> L+ 4:  0.5970 ( 71.3%)
    H- 0 -> L+ 3:  0.2238 ( 10.0%)
    H- 0 -> L+ 5:  0.2231 ( 10.0%)
                   omega =  91.3%
  ----------------------------------------------------------------------------


  Excited state 4 (singlet, A2)                                    [converged]
  ----------------------------------------------------------------------------
  Term symbol:  4 (1) A2                                    R^2 =  1.99902e-08

  Total energy:                                            -78.4889791164 a.u.
  Excitation energy:                                               8.844532 eV

  Osc. strength:                                                      0.000000
  Trans. dip. moment [a.u.]:           [  -0.000000,   -0.000000,   -0.000000]
  <i|r^2|0> [a.u.]:                    [  -0.000000,    0.000000,   -0.000000]

  Dip. moment [a.u.]:                  [  -0.000000,    0.000000,   -4.975381]
  Total dipole [Debye]:                                              12.646159
  <r^2> [a.u.]:                        [  73.988151,   19.306207,  103.531451]
  Total <r^2> [a.u.]:                                               196.825809

  V1^2 = 0.9443, V2^2 = 0.0557

  Important amplitudes:
      occ i      occ j       vir a       vir b          v   
    ---------------------------------------------------------
     1 (B2) A               5 (B1) A                  0.6788
     1 (B2) A               9 (B1) A                  0.0835
    ---------------------------------------------------------

  Density matrix analysis:
  ------------------------
  NOs
    Occupation of frontier NOs:
       0.9831   0.9948
    Number of electrons: 18.000000
    Number of unpaired electrons: n_u =  2.33799, n_u,nl =  2.02743
    NO participation ratio (PR_NO):  2.784385
  
  
  Mulliken Population Analysis
  Atom      Charge (e)              h+              e-           Del q
  --------------------------------------------------------------------
   1 C       -0.544151        0.532301       -0.668627       -0.136326
   2 C       -0.544151        0.532301       -0.668627       -0.136326
   3 H        0.241843        0.083193       -0.032373        0.050820
   4 H        0.241843        0.083193       -0.032373        0.050820
   5 H        0.122178        0.102770       -0.037672        0.065098
   6 H        0.122178        0.102770       -0.037672        0.065098
   7 H       -0.639740        0.048962       -0.008146        0.040816
  --------------------------------------------------------------------
  Sum:       -1.000000        1.485490       -1.485490        0.000000
  
  Multipole moment analysis of the density matrix
    Molecular charge:                      -1.000000
    Number of electrons:                   18.000000
      Center of electronic charge [Ang]: [  0.000000,  -0.000000,   0.146270]
    Total nuclear charge:                  17.000000
      Center of nuclear charge [Ang]:    [ -0.000000,   0.000000,  -0.000000]
    Dipole moment [D]:                     12.646155
      Cartesian components [D]:          [ -0.000000,   0.000000, -12.646155]
    RMS size of the density [Ang]:         1.743746
      Cartesian components [Ang]:        [  1.072867,   0.548041,   1.260658]
  
  Exciton analysis of the difference density matrix
    <r_h> [Ang]:                  [  0.000000,   0.000000,  -0.094917]
    <r_e> [Ang]:                  [  0.000000,  -0.000000,   0.037094]
    |<r_e - r_h>| [Ang]:            0.132011
    Hole size [Ang]:                1.714902
      Cartesian components [Ang]: [  1.052526,   0.877482,   1.031069]
    Electron size [Ang]:            3.224791
      Cartesian components [Ang]: [  2.275655,   1.174279,   1.960036]

  Transition density matrix analysis:
  -----------------------------------
  
  CT numbers (Mulliken)
    omega =     0.9132
    <Phe> =    -0.0008
  
  Exciton analysis of the transition density matrix
    Trans. dipole moment [D]:             0.000000
      Cartesian components [D]:         [ -0.000000,  -0.000000,  -0.000000]
    <r_h> [Ang]:                        [  0.000000,  -0.000000,  -0.196218]
    <r_e> [Ang]:                        [  0.000000,  -0.000000,   0.063465]
    |<r_e - r_h>| [Ang]:                  0.259683
    Hole size [Ang]:                      1.276024
      Cartesian components [Ang]:       [  0.763714,   0.880535,   0.519265]
    Electron size [Ang]:                  3.785856
      Cartesian components [Ang]:       [  2.682577,   1.363689,   2.297137]
    RMS electron-hole separation [Ang]:   3.998975
      Cartesian components [Ang]:       [  2.783134,   1.623075,   2.368880]
    Covariance(r_h, r_e) [Ang^2]:         0.018288
    Correlation coefficient:              0.003786
    Center-of-mass size [Ang]:            1.999845
      Cartesian components [Ang]:       [  1.397598,   0.811727,   1.177794]

  Decomposition into state-averaged NTOs
    H- 0 -> L+ 5:  0.5464 ( 59.7%)
    H- 0 -> L+ 3: -0.3931 ( 30.9%)
                   omega =  91.3%
  ----------------------------------------------------------------------------


  Excited state 5 (singlet, A2)                                    [converged]
  ----------------------------------------------------------------------------
  Term symbol:  5 (1) A2                                    R^2 =  8.09898e-08

  Total energy:                                            -78.4615452259 a.u.
  Excitation energy:                                               9.591046 eV

  Osc. strength:                                                      0.000000
  Trans. dip. moment [a.u.]:           [   0.000000,   -0.000000,    0.000000]
  <i|r^2|0> [a.u.]:                    [   0.000000,    0.000000,    0.000000]

  Dip. moment [a.u.]:                  [  -0.000000,    0.000000,   -4.546099]
  Total dipole [Debye]:                                              11.555033
  <r^2> [a.u.]:                        [  53.338343,   19.534940,   88.499237]
  Total <r^2> [a.u.]:                                               161.372520

  V1^2 = 0.9543, V2^2 = 0.0457

  Important amplitudes:
      occ i      occ j       vir a       vir b          v   
    ---------------------------------------------------------
     4 (A1) A               2 (A2) A                 -0.4814
     4 (A1) A               1 (A2) A                  0.4726
    ---------------------------------------------------------

  Density matrix analysis:
  ------------------------
  NOs
    Occupation of frontier NOs:
       0.9909   1.0041
    Number of electrons: 18.000000
    Number of unpaired electrons: n_u =  2.39606, n_u,nl =  2.03793
    NO participation ratio (PR_NO):  2.894235
  
  
  Mulliken Population Analysis
  Atom      Charge (e)              h+              e-           Del q
  --------------------------------------------------------------------
   1 C       -0.538054        0.440235       -0.570463       -0.130228
   2 C       -0.538054        0.440235       -0.570463       -0.130228
   3 H        0.252968        0.070753       -0.008809        0.061945
   4 H        0.252968        0.070753       -0.008809        0.061945
   5 H        0.123922        0.073331       -0.006489        0.066842
   6 H        0.123922        0.073331       -0.006489        0.066842
   7 H       -0.677673        0.007037       -0.004154        0.002883
  --------------------------------------------------------------------
  Sum:       -1.000000        1.175676       -1.175676        0.000000
  
  Multipole moment analysis of the density matrix
    Molecular charge:                      -1.000000
    Number of electrons:                   18.000000
      Center of electronic charge [Ang]: [  0.000000,  -0.000000,   0.133650]
    Total nuclear charge:                  17.000000
      Center of nuclear charge [Ang]:    [ -0.000000,   0.000000,  -0.000000]
    Dipole moment [D]:                     11.555029
      Cartesian components [D]:          [ -0.000000,   0.000000, -11.555029]
    RMS size of the density [Ang]:         1.578807
      Cartesian components [Ang]:        [  0.910929,   0.551278,   1.165733]
  
  Exciton analysis of the difference density matrix
    <r_h> [Ang]:                  [  0.000000,  -0.000000,  -0.157098]
    <r_e> [Ang]:                  [  0.000000,  -0.000000,  -0.183521]
    |<r_e - r_h>| [Ang]:            0.026423
    Hole size [Ang]:                1.455896
      Cartesian components [Ang]: [  1.118437,   0.553583,   0.749851]
    Electron size [Ang]:            1.755096
      Cartesian components [Ang]: [  1.214890,   1.063185,   0.688509]

  Transition density matrix analysis:
  -----------------------------------
  
  CT numbers (Mulliken)
    omega =     0.9221
    <Phe> =    -0.0154
  
  Exciton analysis of the transition density matrix
    Trans. dipole moment [D]:             0.000000
      Cartesian components [D]:         [  0.000000,  -0.000000,   0.000000]
    <r_h> [Ang]:                        [  0.000000,  -0.000000,  -0.159487]
    <r_e> [Ang]:                        [  0.000000,  -0.000000,  -0.197063]
    |<r_e - r_h>| [Ang]:                  0.037576
    Hole size [Ang]:                      1.295633
      Cartesian components [Ang]:       [  1.072927,   0.410599,   0.599085]
    Electron size [Ang]:                  1.822242
      Cartesian components [Ang]:       [  1.270717,   1.122754,   0.667284]
    RMS electron-hole separation [Ang]:   2.220161
      Cartesian components [Ang]:       [  1.640788,   1.196288,   0.897678]
    Covariance(r_h, r_e) [Ang^2]:         0.035764
    Correlation coefficient:              0.015148
    Center-of-mass size [Ang]:            1.125917
      Cartesian components [Ang]:       [  0.842556,   0.597334,   0.448310]

  Decomposition into state-averaged NTOs
    H- 2 -> L+ 0:  0.6723 ( 90.4%)
                   omega =  92.2%
  ----------------------------------------------------------------------------


  Excited state 6 (singlet, A2)                                    [converged]
  ----------------------------------------------------------------------------
  Term symbol:  6 (1) A2                                    R^2 =  2.28773e-07

  Total energy:                                            -78.4335828900 a.u.
  Excitation energy:                                              10.351940 eV

  Osc. strength:                                                      0.000000
  Trans. dip. moment [a.u.]:           [  -0.000000,    0.000000,   -0.000000]
  <i|r^2|0> [a.u.]:                    [   0.000000,    0.000000,    0.000000]

  Dip. moment [a.u.]:                  [   0.000000,    0.000000,   -4.470019]
  Total dipole [Debye]:                                              11.361657
  <r^2> [a.u.]:                        [  55.879046,   39.469445,   91.983037]
  Total <r^2> [a.u.]:                                               187.331528

  V1^2 = 0.9368, V2^2 = 0.0632

  Important amplitudes:
      occ i      occ j       vir a       vir b          v   
    ---------------------------------------------------------
     3 (B1) A               2 (B2) A                  0.6757
     3 (B1) A               3 (B2) A                  0.1011
    ---------------------------------------------------------

  Density matrix analysis:
  ------------------------
  NOs
    Occupation of frontier NOs:
       0.9932   1.0206
    Number of electrons: 18.000000
    Number of unpaired electrons: n_u =  2.47992, n_u,nl =  2.07572
    NO participation ratio (PR_NO):  3.128210
  
  
  Mulliken Population Analysis
  Atom      Charge (e)              h+              e-           Del q
  --------------------------------------------------------------------
   1 C       -0.709387        0.320968       -0.622530       -0.301562
   2 C       -0.709387        0.320968       -0.622530       -0.301562
   3 H        0.322878        0.151473       -0.019618        0.131855
   4 H        0.322878        0.151473       -0.019618        0.131855
   5 H        0.216719        0.169763       -0.010125        0.159639
   6 H        0.216719        0.169763       -0.010125        0.159639
   7 H       -0.660421        0.034241       -0.014105        0.020135
  --------------------------------------------------------------------
  Sum:       -1.000000        1.318650       -1.318650       -0.000000
  
  Multipole moment analysis of the density matrix
    Molecular charge:                      -1.000000
    Number of electrons:                   18.000000
      Center of electronic charge [Ang]: [ -0.000000,  -0.000000,   0.131413]
    Total nuclear charge:                  17.000000
      Center of nuclear charge [Ang]:    [ -0.000000,   0.000000,  -0.000000]
    Dipole moment [D]:                     11.361653
      Cartesian components [D]:          [  0.000000,   0.000000, -11.361653]
    RMS size of the density [Ang]:         1.702079
      Cartesian components [Ang]:        [  0.932372,   0.783602,   1.189001]
  
  Exciton analysis of the difference density matrix
    <r_h> [Ang]:                  [  0.000000,   0.000000,  -0.079345]
    <r_e> [Ang]:                  [ -0.000000,  -0.000000,  -0.133434]
    |<r_e - r_h>| [Ang]:            0.054089
    Hole size [Ang]:                1.793770
      Cartesian components [Ang]: [  1.194923,   0.642451,   1.173467]
    Electron size [Ang]:            3.095697
      Cartesian components [Ang]: [  1.472426,   2.319614,   1.426427]

  Transition density matrix analysis:
  -----------------------------------
  
  CT numbers (Mulliken)
    omega =     0.9206
    <Phe> =    -0.0007
  
  Exciton analysis of the transition density matrix
    Trans. dipole moment [D]:             0.000000
      Cartesian components [D]:         [ -0.000000,   0.000000,  -0.000000]
    <r_h> [Ang]:                        [ -0.000000,   0.000000,  -0.142604]
    <r_e> [Ang]:                        [ -0.000000,  -0.000000,  -0.189593]
    |<r_e - r_h>| [Ang]:                  0.046990
    Hole size [Ang]:                      1.520542
      Cartesian components [Ang]:       [  1.124686,   0.417375,   0.934306]
    Electron size [Ang]:                  3.428686
      Cartesian components [Ang]:       [  1.579727,   2.635366,   1.521578]
    RMS electron-hole separation [Ang]:   3.713892
      Cartesian components [Ang]:       [  1.867487,   2.667550,   1.785963]
    Covariance(r_h, r_e) [Ang^2]:         0.138577
    Correlation coefficient:              0.026581
    Center-of-mass size [Ang]:            1.893746
      Cartesian components [Ang]:       [  1.004168,   1.334437,   0.892860]

  Decomposition into state-averaged NTOs
    H- 3 -> L+ 2: -0.6775 ( 91.8%)
                   omega =  92.1%
  ----------------------------------------------------------------------------


  Excited state 7 (singlet, A2)                                    [converged]
  ----------------------------------------------------------------------------
  Term symbol:  7 (1) A2                                    R^2 =  3.85686e-07

  Total energy:                                            -78.4167450531 a.u.
  Excitation energy:                                              10.810121 eV

  Osc. strength:                                                      0.000000
  Trans. dip. moment [a.u.]:           [   0.000000,   -0.000000,   -0.000000]
  <i|r^2|0> [a.u.]:                    [   0.000000,    0.000000,    0.000000]

  Dip. moment [a.u.]:                  [   0.000000,   -0.000000,   -5.014363]
  Total dipole [Debye]:                                              12.745241
  <r^2> [a.u.]:                        [  72.365739,   22.168757,   95.365682]
  Total <r^2> [a.u.]:                                               189.900179

  V1^2 = 0.9456, V2^2 = 0.0544

  Important amplitudes:
      occ i      occ j       vir a       vir b          v   
    ---------------------------------------------------------
     1 (B2) A               6 (B1) A                  0.6660
     1 (B2) A               8 (B1) A                  0.1271
    ---------------------------------------------------------

  Density matrix analysis:
  ------------------------
  NOs
    Occupation of frontier NOs:
       0.9819   0.9903
    Number of electrons: 18.000000
    Number of unpaired electrons: n_u =  2.33900, n_u,nl =  2.02798
    NO participation ratio (PR_NO):  2.802350
  
  
  Mulliken Population Analysis
  Atom      Charge (e)              h+              e-           Del q
  --------------------------------------------------------------------
   1 C       -0.574568        0.535628       -0.702370       -0.166743
   2 C       -0.574568        0.535628       -0.702370       -0.166743
   3 H        0.216449        0.074141       -0.048714        0.025426
   4 H        0.216449        0.074141       -0.048714        0.025426
   5 H        0.179241        0.095881        0.026279        0.122160
   6 H        0.179241        0.095881        0.026279        0.122160
   7 H       -0.642244        0.044371       -0.006059        0.038312
  --------------------------------------------------------------------
  Sum:       -1.000000        1.455671       -1.455671       -0.000000
  
  Multipole moment analysis of the density matrix
    Molecular charge:                      -1.000000
    Number of electrons:                   18.000000
      Center of electronic charge [Ang]: [ -0.000000,   0.000000,   0.147416]
    Total nuclear charge:                  17.000000
      Center of nuclear charge [Ang]:    [ -0.000000,   0.000000,  -0.000000]
    Dipole moment [D]:                     12.745237
      Cartesian components [D]:          [  0.000000,  -0.000000, -12.745237]
    RMS size of the density [Ang]:         1.712475
      Cartesian components [Ang]:        [  1.061039,   0.587267,   1.209085]
  
  Exciton analysis of the difference density matrix
    <r_h> [Ang]:                  [ -0.000000,  -0.000000,  -0.108433]
    <r_e> [Ang]:                  [ -0.000000,   0.000000,   0.040453]
    |<r_e - r_h>| [Ang]:            0.148887
    Hole size [Ang]:                1.692013
      Cartesian components [Ang]: [  1.049875,   0.877255,   0.995537]
    Electron size [Ang]:            3.023925
      Cartesian components [Ang]: [  2.223583,   1.393441,   1.502707]

  Transition density matrix analysis:
  -----------------------------------
  
  CT numbers (Mulliken)
    omega =     0.9145
    <Phe> =    -0.0020
  
  Exciton analysis of the transition density matrix
    Trans. dipole moment [D]:             0.000000
      Cartesian components [D]:         [  0.000000,  -0.000000,  -0.000000]
    <r_h> [Ang]:                        [ -0.000000,  -0.000000,  -0.196234]
    <r_e> [Ang]:                        [ -0.000000,   0.000000,   0.083627]
    |<r_e - r_h>| [Ang]:                  0.279861
    Hole size [Ang]:                      1.275348
      Cartesian components [Ang]:       [  0.763393,   0.879785,   0.519348]
    Electron size [Ang]:                  3.505049
      Cartesian components [Ang]:       [  2.592206,   1.630420,   1.705159]
    RMS electron-hole separation [Ang]:   3.732303
      Cartesian components [Ang]:       [  2.697205,   1.844514,   1.803592]
    Covariance(r_h, r_e) [Ang^2]:         0.030058
    Correlation coefficient:              0.006724
    Center-of-mass size [Ang]:            1.868957
      Cartesian components [Ang]:       [  1.353670,   0.930370,   0.891621]

  Decomposition into state-averaged NTOs
    H- 0 -> L+ 3:  0.5028 ( 50.6%)
    H- 0 -> L+ 5:  0.3279 ( 21.5%)
    H- 0 -> L+ 4: -0.3103 ( 19.3%)
                   omega =  91.4%
  ----------------------------------------------------------------------------


  Excited state 8 (singlet, A2)                                    [converged]
  ----------------------------------------------------------------------------
  Term symbol:  8 (1) A2                                    R^2 =  7.97995e-06

  Total energy:                                            -78.3686938646 a.u.
  Excitation energy:                                              12.117660 eV

  Osc. strength:                                                      0.000000
  Trans. dip. moment [a.u.]:           [  -0.000000,   -0.000000,   -0.000000]
  <i|r^2|0> [a.u.]:                    [   0.000000,    0.000000,   -0.000000]

  Dip. moment [a.u.]:                  [  -0.000000,    0.000000,   -4.323039]
  Total dipole [Debye]:                                              10.988071
  <r^2> [a.u.]:                        [  55.552630,   20.469248,   85.980335]
  Total <r^2> [a.u.]:                                               162.002213

  V1^2 = 0.9373, V2^2 = 0.0627

  Important amplitudes:
      occ i      occ j       vir a       vir b          v   
    ---------------------------------------------------------
     3 (A1) A               1 (A2) A                 -0.4711
     3 (A1) A               2 (A2) A                  0.4544
    ---------------------------------------------------------

  Density matrix analysis:
  ------------------------
  NOs
    Occupation of frontier NOs:
       0.9517   1.0809
    Number of electrons: 18.000000
    Number of unpaired electrons: n_u =  2.46068, n_u,nl =  2.07836
    NO participation ratio (PR_NO):  3.409316
  
  
  Mulliken Population Analysis
  Atom      Charge (e)              h+              e-           Del q
  --------------------------------------------------------------------
   1 C       -0.598115        0.329649       -0.519939       -0.190290
   2 C       -0.598115        0.329649       -0.519939       -0.190290
   3 H        0.257937        0.075981       -0.009067        0.066914
   4 H        0.257937        0.075981       -0.009067        0.066914
   5 H        0.159287        0.112408       -0.010201        0.102207
   6 H        0.159287        0.112408       -0.010201        0.102207
   7 H       -0.638217        0.045506       -0.003167        0.042339
  --------------------------------------------------------------------
  Sum:       -1.000000        1.081581       -1.081581       -0.000000
  
  Multipole moment analysis of the density matrix
    Molecular charge:                      -1.000000
    Number of electrons:                   18.000000
      Center of electronic charge [Ang]: [  0.000000,  -0.000000,   0.127092]
    Total nuclear charge:                  17.000000
      Center of nuclear charge [Ang]:    [ -0.000000,   0.000000,  -0.000000]
    Dipole moment [D]:                     10.988067
      Cartesian components [D]:          [ -0.000000,   0.000000, -10.988067]
    RMS size of the density [Ang]:         1.582447
      Cartesian components [Ang]:        [  0.929645,   0.564308,   1.149546]
  
  Exciton analysis of the difference density matrix
    <r_h> [Ang]:                  [  0.000000,  -0.000000,  -0.048603]
    <r_e> [Ang]:                  [  0.000000,  -0.000000,  -0.186459]
    |<r_e - r_h>| [Ang]:            0.137857
    Hole size [Ang]:                1.626238
      Cartesian components [Ang]: [  0.989109,   0.556321,   1.164827]
    Electron size [Ang]:            1.956878
      Cartesian components [Ang]: [  1.340248,   1.202904,   0.765592]

  Transition density matrix analysis:
  -----------------------------------
  
  CT numbers (Mulliken)
    omega =     0.9093
    <Phe> =    -0.0122
  
  Exciton analysis of the transition density matrix
    Trans. dipole moment [D]:             0.000000
      Cartesian components [D]:         [ -0.000000,  -0.000000,  -0.000000]
    <r_h> [Ang]:                        [ -0.000000,   0.000000,  -0.049901]
    <r_e> [Ang]:                        [  0.000000,  -0.000000,  -0.199583]
    |<r_e - r_h>| [Ang]:                  0.149682
    Hole size [Ang]:                      1.542569
      Cartesian components [Ang]:       [  0.933150,   0.451237,   1.142425]
    Electron size [Ang]:                  1.970606
      Cartesian components [Ang]:       [  1.357620,   1.228567,   0.728545]
    RMS electron-hole separation [Ang]:   2.507087
      Cartesian components [Ang]:       [  1.651720,   1.307461,   1.359358]
    Covariance(r_h, r_e) [Ang^2]:        -0.000138
    Correlation coefficient:             -0.000045
    Center-of-mass size [Ang]:            1.251252
      Cartesian components [Ang]:       [  0.821527,   0.655082,   0.679407]

  Decomposition into state-averaged NTOs
    H- 4 -> L+ 0:  0.6496 ( 84.4%)
    H- 1 -> L+ 6:  0.1517 (  4.6%)
                   omega =  90.9%
  ----------------------------------------------------------------------------


  Excited state 9 (singlet, A2)                                    [converged]
  ----------------------------------------------------------------------------
  Term symbol:  9 (1) A2                                    R^2 =  1.65124e-06

  Total energy:                                            -78.3644842317 a.u.
  Excitation energy:                                              12.232210 eV

  Osc. strength:                                                      0.000000
  Trans. dip. moment [a.u.]:           [   0.000000,   -0.000000,   -0.000000]
  <i|r^2|0> [a.u.]:                    [   0.000000,    0.000000,    0.000000]

  Dip. moment [a.u.]:                  [   0.000000,    0.000000,    0.331839]
  Total dipole [Debye]:                                               0.843450
  <r^2> [a.u.]:                        [  62.322252,   25.877935,   64.419449]
  Total <r^2> [a.u.]:                                               152.619636

  V1^2 = 0.9153, V2^2 = 0.0847

  Important amplitudes:
      occ i      occ j       vir a       vir b          v   
    ---------------------------------------------------------
     5 (A1) A               3 (A2) A                 -0.6447
     3 (A1) A               1 (A2) A                 -0.1190
    ---------------------------------------------------------

  Density matrix analysis:
  ------------------------
  NOs
    Occupation of frontier NOs:
       0.9068   1.0424
    Number of electrons: 18.000000
    Number of unpaired electrons: n_u =  2.50831, n_u,nl =  2.10304
    NO participation ratio (PR_NO):  3.548945
  
  
  Mulliken Population Analysis
  Atom      Charge (e)              h+              e-           Del q
  --------------------------------------------------------------------
   1 C       -0.687197        0.243805       -0.523176       -0.279371
   2 C       -0.687197        0.243805       -0.523176       -0.279371
   3 H        0.131393        0.007459       -0.067089       -0.059630
   4 H        0.131393        0.007459       -0.067089       -0.059630
   5 H        0.059645        0.012815       -0.010250        0.002565
   6 H        0.059645        0.012815       -0.010250        0.002565
   7 H       -0.007683        0.697984       -0.025112        0.672872
  --------------------------------------------------------------------
  Sum:       -1.000000        1.226142       -1.226142        0.000000
  
  Multipole moment analysis of the density matrix
    Molecular charge:                      -1.000000
    Number of electrons:                   18.000000
      Center of electronic charge [Ang]: [ -0.000000,  -0.000000,  -0.009756]
    Total nuclear charge:                  17.000000
      Center of nuclear charge [Ang]:    [ -0.000000,   0.000000,  -0.000000]
    Dipole moment [D]:                     0.843450
      Cartesian components [D]:          [  0.000000,   0.000000,   0.843450]
    RMS size of the density [Ang]:         1.540854
      Cartesian components [Ang]:        [  0.984660,   0.634497,   1.001043]
  
  Exciton analysis of the difference density matrix
    <r_h> [Ang]:                  [  0.000000,  -0.000000,   2.120098]
    <r_e> [Ang]:                  [ -0.000000,  -0.000000,  -0.010452]
    |<r_e - r_h>| [Ang]:            2.130551
    Hole size [Ang]:                2.032148
      Cartesian components [Ang]: [  0.936353,   0.842214,   1.594849]
    Electron size [Ang]:            2.748664
      Cartesian components [Ang]: [  1.773220,   1.716959,   1.209502]

  Transition density matrix analysis:
  -----------------------------------
  
  CT numbers (Mulliken)
    omega =     0.9024
    <Phe> =     0.0003
  
  Exciton analysis of the transition density matrix
    Trans. dipole moment [D]:             0.000000
      Cartesian components [D]:         [  0.000000,  -0.000000,  -0.000000]
    <r_h> [Ang]:                        [  0.000000,  -0.000000,   2.657706]
    <r_e> [Ang]:                        [ -0.000000,  -0.000000,  -0.190479]
    |<r_e - r_h>| [Ang]:                  2.848185
    Hole size [Ang]:                      1.598315
      Cartesian components [Ang]:       [  0.781146,   0.735861,   1.184453]
    Electron size [Ang]:                  2.842722
      Cartesian components [Ang]:       [  1.873161,   1.850707,   1.071084]
    RMS electron-hole separation [Ang]:   4.328423
      Cartesian components [Ang]:       [  2.028718,   1.991237,   3.264126]
    Covariance(r_h, r_e) [Ang^2]:         0.006299
    Correlation coefficient:              0.001386
    Center-of-mass size [Ang]:            1.631585
      Cartesian components [Ang]:       [  1.015153,   0.996016,   0.799678]

  Decomposition into state-averaged NTOs
    H- 1 -> L+ 6: -0.6238 ( 77.8%)
    H- 1 -> L+ 1: -0.1852 (  6.9%)
    H- 4 -> L+ 0:  0.1545 (  4.8%)
                   omega =  90.2%
  ----------------------------------------------------------------------------


  Excited state 10 (singlet, A2)                                    [converged]
  ----------------------------------------------------------------------------
  Term symbol:  10 (1) A2                                   R^2 =  2.30976e-06

  Total energy:                                            -78.3477705558 a.u.
  Excitation energy:                                              12.687012 eV

  Osc. strength:                                                      0.000000
  Trans. dip. moment [a.u.]:           [  -0.000000,    0.000000,    0.000000]
  <i|r^2|0> [a.u.]:                    [   0.000000,   -0.000000,   -0.000000]

  Dip. moment [a.u.]:                  [   0.000000,    0.000000,    8.583553]
  Total dipole [Debye]:                                              21.817220
  <r^2> [a.u.]:                        [  95.866664,   47.901158,   45.109291]
  Total <r^2> [a.u.]:                                               188.877113

  V1^2 = 0.0067, V2^2 = 0.9933

  Important amplitudes:
      occ i      occ j       vir a       vir b          v   
    ---------------------------------------------------------
     5 (A1) A   5 (A1) B    4 (B1) A    2 (B2) B      0.3523
     4 (A1) A               1 (A2) A                  0.0311
    ---------------------------------------------------------

  Density matrix analysis:
  ------------------------
  NOs
    Occupation of frontier NOs:
       0.9937   0.9953
    Number of electrons: 18.000000
    Number of unpaired electrons: n_u =  2.42479, n_u,nl =  2.06001
    NO participation ratio (PR_NO):  2.948996
  
  
  Mulliken Population Analysis
  Atom      Charge (e)              h+              e-           Del q
  --------------------------------------------------------------------
   1 C       -1.225529        0.132413       -0.950116       -0.817703
   2 C       -1.225529        0.132413       -0.950116       -0.817703
   3 H        0.201565        0.014265       -0.003723        0.010542
   4 H        0.201565        0.014265       -0.003723        0.010542
   5 H        0.015104        0.001325       -0.043302       -0.041977
   6 H        0.015104        0.001325       -0.043302       -0.041977
   7 H        1.017720        1.698281       -0.000005        1.698276
  --------------------------------------------------------------------
  Sum:       -1.000000        1.994287       -1.994287        0.000000
  
  Multipole moment analysis of the density matrix
    Molecular charge:                      -1.000000
    Number of electrons:                   18.000000
      Center of electronic charge [Ang]: [ -0.000000,  -0.000000,  -0.252346]
    Total nuclear charge:                  17.000000
      Center of nuclear charge [Ang]:    [ -0.000000,   0.000000,  -0.000000]
    Dipole moment [D]:                     21.817213
      Cartesian components [D]:          [  0.000000,   0.000000,  21.817213]
    RMS size of the density [Ang]:         1.695497
      Cartesian components [Ang]:        [  1.221233,   0.863253,   0.798807]
  
  Exciton analysis of the difference density matrix
    <r_h> [Ang]:                  [ -0.000000,   0.000000,   2.868962]
    <r_e> [Ang]:                  [ -0.000000,   0.000000,  -0.630522]
    |<r_e - r_h>| [Ang]:            3.499484
    Hole size [Ang]:                1.388463
      Cartesian components [Ang]: [  0.748810,   0.734938,   0.909384]
    Electron size [Ang]:            3.767620
      Cartesian components [Ang]: [  2.581670,   2.238057,   1.587780]

  Transition density matrix analysis:
  -----------------------------------
  
  CT numbers (Mulliken)
    omega =     0.0066
    <Phe> =    -0.0018
  
  Exciton analysis of the transition density matrix
    Trans. dipole moment [D]:             0.000000
      Cartesian components [D]:         [ -0.000000,   0.000000,   0.000000]
    <r_h> [Ang]:                        [  0.000000,  -0.000000,   0.571934]
    <r_e> [Ang]:                        [  0.000000,   0.000000,  -0.245733]
    |<r_e - r_h>| [Ang]:                  0.817667
    Hole size [Ang]:                      1.876617
      Cartesian components [Ang]:       [  0.968100,   0.645725,   1.472248]
    Electron size [Ang]:                  3.232607
      Cartesian components [Ang]:       [  2.140430,   2.051320,   1.288562]
    RMS electron-hole separation [Ang]:   3.781612
      Cartesian components [Ang]:       [  2.304129,   2.138428,   2.102072]
    Covariance(r_h, r_e) [Ang^2]:         0.169713
    Correlation coefficient:              0.027976
    Center-of-mass size [Ang]:            1.891485
      Cartesian components [Ang]:       [  1.196694,   1.081304,   0.988140]

  Decomposition into state-averaged NTOs
                   omega =   0.7%
  ----------------------------------------------------------------------------


--------------------------------------------------------------------------------
  Time of ADC calculation:  CPU 113.98 s  wall 33.41 s
================================================================================
 
 --------------------------------------------------------------
             Orbital Energies (a.u.) and Symmetries
 --------------------------------------------------------------
 
 Alpha MOs, Restricted
 -- Occupied --                  
-11.072 -11.070  -0.878  -0.620  -0.494  -0.405  -0.349  -0.214
  1 A1    1 B1    2 A1    2 B1    3 A1    4 A1    3 B1    1 B2                 
 -0.020
  5 A1                                                                         
 -- Virtual --                   
  0.195   0.200   0.231   0.232   0.240   0.261   0.316   0.340
  4 B1    6 A1    1 A2    2 B2    7 A1    5 B1    8 A1    2 A2                 
  0.353   0.437   0.480   0.483   0.500   0.517   0.539   0.559
  6 B1    9 A1    7 B1   10 A1    8 B1   11 A1    3 B2   12 A1                 
  0.575   0.623   0.696   0.774   0.987   1.009   1.060   1.089
  9 B1    3 A2   10 B1   11 B1   13 A1   14 A1   15 A1   12 B1                 
  1.179   1.193   1.262   1.278   1.305   1.306   1.335   1.382
 16 A1   13 B1   17 A1    4 B2   14 B1   18 A1    5 B2    4 A2                 
  1.450   1.459   1.482   1.649   1.789   1.901   1.906   1.910
  5 A2    6 B2   15 B1   16 B1   19 A1   17 B1   20 A1    7 B2                 
  1.945   2.021   2.043   2.107   2.137   2.186   2.251   2.273
 18 B1   21 A1    6 A2    8 B2   19 B1    9 B2   22 A1   23 A1                 
  2.346   2.497   2.577   2.661   2.720   2.755   3.024   3.049
  7 A2   20 B1    8 A2   24 A1   21 B1   22 B1   25 A1   26 A1                 
  3.447   3.517
 23 B1   24 B1                                                                 
 
 Beta MOs, Restricted
 -- Occupied --                  
-11.072 -11.070  -0.878  -0.620  -0.494  -0.405  -0.349  -0.214
  1 A1    1 B1    2 A1    2 B1    3 A1    4 A1    3 B1    1 B2                 
 -0.020
  5 A1                                                                         
 -- Virtual --                   
  0.195   0.200   0.231   0.232   0.240   0.261   0.316   0.340
  4 B1    6 A1    1 A2    2 B2    7 A1    5 B1    8 A1    2 A2                 
  0.353   0.437   0.480   0.483   0.500   0.517   0.539   0.559
  6 B1    9 A1    7 B1   10 A1    8 B1   11 A1    3 B2   12 A1                 
  0.575   0.623   0.696   0.774   0.987   1.009   1.060   1.089
  9 B1    3 A2   10 B1   11 B1   13 A1   14 A1   15 A1   12 B1                 
  1.179   1.193   1.262   1.278   1.305   1.306   1.335   1.382
 16 A1   13 B1   17 A1    4 B2   14 B1   18 A1    5 B2    4 A2                 
  1.450   1.459   1.482   1.649   1.789   1.901   1.906   1.910
  5 A2    6 B2   15 B1   16 B1   19 A1   17 B1   20 A1    7 B2                 
  1.945   2.021   2.043   2.107   2.137   2.186   2.251   2.273
 18 B1   21 A1    6 A2    8 B2   19 B1    9 B2   22 A1   23 A1                 
  2.346   2.497   2.577   2.661   2.720   2.755   3.024   3.049
  7 A2   20 B1    8 A2   24 A1   21 B1   22 B1   25 A1   26 A1                 
  3.447   3.517
 23 B1   24 B1                                                                 
 --------------------------------------------------------------
 
          Ground-State Mulliken Net Atomic Charges

     Atom                 Charge (a.u.)
  ----------------------------------------
      1 C                    -0.383685
      2 C                    -0.383685
      3 H                     0.190974
      4 H                     0.190974
      5 H                     0.048802
      6 H                     0.048802
      7 H                    -0.712182
  ----------------------------------------
  Sum of atomic charges =    -1.000000

 -----------------------------------------------------------------
                    Cartesian Multipole Moments
 -----------------------------------------------------------------
    Charge (ESU x 10^10)
                -4.8032
    Dipole Moment (Debye)
         X       0.0000      Y      -0.0000      Z     -11.9629
       Tot      11.9629
    Quadrupole Moments (Debye-Ang)
        XX     -18.8289     XY       0.0000     YY     -21.7085
        XZ       0.0000     YZ      -0.0000     ZZ     -55.6083
    Octopole Moments (Debye-Ang^2)
       XXX       0.0000    XXY      -0.0000    XYY       0.0000
       YYY       0.0000    XXZ      -9.2730    XYZ       0.0000
       YYZ      -9.7504    XZZ       0.0000    YZZ       0.0000
       ZZZ    -135.8606
    Hexadecapole Moments (Debye-Ang^3)
      XXXX     -86.9093   XXXY       0.0000   XXYY     -21.3178
      XYYY       0.0000   YYYY     -37.6627   XXXZ       0.0000
      XXYZ       0.0000   XYYZ       0.0000   YYYZ      -0.0000
      XXZZ     -58.3351   XYZZ       0.0000   YYZZ     -52.8991
      XZZZ       0.0000   YZZZ      -0.0000   ZZZZ    -581.5807
 -----------------------------------------------------------------
 Total job time:  113.88s(wall), 157.27s(cpu) 
 Thu Feb 17 21:10:42 2022

        *************************************************************
        *                                                           *
        *  Thank you very much for using Q-Chem.  Have a nice day.  *
        *                                                           *
        *************************************************************


