/src/tsommerfeld/qchem/exe/qcprog.exe .input0.944444.9142.qcin.1 /src/jdavis/qchem.scratch/qchem9142/

                  Welcome to Q-Chem
     A Quantum Leap Into The Future Of Chemistry


 Q-Chem 5.4 (devel), Q-Chem, Inc., Pleasanton, CA (2021)

 E. Epifanovsky,  A. T. B. Gilbert,  Xintian Feng,  Joonho Lee,  Yuezhi Mao,  
 N. Mardirossian,  P. Pokhilko,  A. White,  M. Wormit,  M. P. Coons,  
 A. L. Dempwolff,  Zhengting Gan,  D. Hait,  P. R. Horn,  L. D. Jacobson,  
 I. Kaliman,  J. Kussmann,  A. W. Lange,  Ka Un Lao,  D. S. Levine,  Jie Liu,  
 S. C. McKenzie,  A. F. Morrison,  K. Nanda,  F. Plasser,  D. R. Rehn,  
 M. L. Vidal,  Zhi-Qiang You,  Ying Zhu,  B. Alam,  B. Albrecht,  
 A. Aldossary,  E. Alguire,  J. H. Andersen,  D. Barton,  K. Begam,  A. Behn,  
 Y. A. Bernard,  E. J. Berquist,  H. Burton,  A. Carreras,  K. Carter-Fenk,  
 R. Chakraborty,  A. D. Chien,  K. D. Closser,  V. Cofer-Shabica,  
 S. Dasgupta,  Jia Deng,  M. de Wergifosse,  M. Diedenhofen,  Hainam Do,  
 S. Ehlert,  Po-Tung Fang,  S. Fatehi,  Qingguo Feng,  T. Friedhoff,  
 J. Gayvert,  Qinghui Ge,  G. Gidofalvi,  M. Goldey,  J. Gomes,  
 C. Gonzalez-Espinoza,  S. Gulania,  A. Gunina,  M. W. D. Hanson-Heine,  
 P. H. P. Harbach,  A. W. Hauser,  M. F. Herbst,  M. Hernandez Vera,  
 M. Hodecker,  Z. C. Holden,  S. Houck,  Xunkun Huang,  Kerwin Hui,  
 B. C. Huynh,  M. Ivanov,  Hyunjun Ji,  Hanjie Jiang,  B. Kaduk,  S. Kaehler,  
 K. Khistyaev,  Jaehoon Kim,  P. Klunzinger,  Z. Koczor-Benda,  
 Joong Hoon Koh,  D. Kosenkov,  L. Koulias,  T. Kowalczyk,  C. M. Krauter,  
 K. Kue,  A. Kunitsa,  T. Kus,  A. Landau,  K. V. Lawler,  D. Lefrancois,  
 S. Lehtola,  Rain Li,  Yi-Pei Li,  Jiashu Liang,  M. Liebenthal,  
 Hung-Hsuan Lin,  You-Sheng Lin,  Fenglai Liu,  Kuan-Yu Liu,  
 M. Loipersberger,  A. Luenser,  A. Manjanath,  P. Manohar,  E. Mansoor,  
 S. F. Manzer,  Shan-Ping Mao,  A. V. Marenich,  T. Markovich,  S. Mason,  
 S. A. Maurer,  P. F. McLaughlin,  M. F. S. J. Menger,  J.-M. Mewes,  
 S. A. Mewes,  P. Morgante,  J. W. Mullinax,  K. J. Oosterbaan,  G. Paran,  
 Alexander C. Paul,  Suranjan K. Paul,  F. Pavosevic,  Zheng Pei,  S. Prager,  
 E. I. Proynov,  E. Ramos,  B. Rana,  A. E. Rask,  A. Rettig,  R. M. Richard,  
 F. Rob,  E. Rossomme,  T. Scheele,  M. Scheurer,  M. Schneider,  
 N. Sergueev,  S. M. Sharada,  W. Skomorowski,  D. W. Small,  C. J. Stein,  
 Yu-Chuan Su,  E. J. Sundstrom,  Zhen Tao,  J. Thirman,  T. Tsuchimochi,  
 N. M. Tubman,  S. P. Veccham,  O. Vydrov,  J. Wenzel,  J. Witte,  A. Yamada,  
 Kun Yao,  S. Yeganeh,  S. R. Yost,  A. Zech,  Igor Ying Zhang,  Xing Zhang,  
 Yu Zhang,  D. Zuev,  A. Aspuru-Guzik,  A. T. Bell,  N. A. Besley,  
 K. B. Bravaya,  B. R. Brooks,  D. Casanova,  Jeng-Da Chai,  S. Coriani,  
 C. J. Cramer,  A. E. DePrince, III,  R. A. DiStasio Jr.,  A. Dreuw,  
 B. D. Dunietz,  T. R. Furlani,  W. A. Goddard III,  S. Grimme,  
 S. Hammes-Schiffer,  T. Head-Gordon,  W. J. Hehre,  Chao-Ping Hsu,  
 T.-C. Jagau,  Yousung Jung,  A. Klamt,  Jing Kong,  D. S. Lambrecht,  
 WanZhen Liang,  N. J. Mayhall,  C. W. McCurdy,  J. B. Neaton,  
 C. Ochsenfeld,  J. A. Parkhill,  R. Peverati,  V. A. Rassolov,  Yihan Shao,  
 L. V. Slipchenko,  T. Stauch,  R. P. Steele,  J. E. Subotnik,  
 A. J. W. Thom,  A. Tkatchenko,  D. G. Truhlar,  T. Van Voorhis,  
 T. A. Wesolowski,  K. B. Whaley,  H. L. Woodcock III,  P. M. Zimmerman,  
 S. Faraji,  P. M. W. Gill,  M. Head-Gordon,  J. M. Herbert,  A. I. Krylov

 Additional authors for Version 5.4.1: 
 S. Kotaru,  Shaozhi Li,  Xiangyuan Li,  F. Matz,  A. Molle,  Haisheng Ren,  
 Yingli Su,  Hung-Yi Tsai,  C. Utku,  Fang Wang

 Contributors to earlier versions of Q-Chem not listed above: 
 R. D. Adamson,  B. Austin,  R. Baer,  J. Baker,  G. J. O. Beran,  
 K. Brandhorst,  S. T. Brown,  E. F. C. Byrd,  A. K. Chakraborty,  
 G. K. L. Chan,  Chun-Min Chang,  Yunqing Chen,  C.-L. Cheng,  
 Siu Hung Chien,  D. M. Chipman,  D. L. Crittenden,  H. Dachsel,  
 R. J. Doerksen,  A. D. Dutoi,  R. G. Edgar,  J. Fosso-Tande,  
 L. Fusti-Molnar,  D. Ghosh,  A. Ghysels,  A. Golubeva-Zadorozhnaya,  
 J. Gonthier,  M. S. Gordon,  S. R. Gwaltney,  G. Hawkins,  J. E. Herr,  
 A. Heyden,  S. Hirata,  E. G. Hohenstein,  G. Kedziora,  F. J. Keil,  
 C. Kelley,  Jihan Kim,  R. A. King,  R. Z. Khaliullin,  P. P. Korambath,  
 W. Kurlancheek,  A. Laurent,  A. M. Lee,  M. S. Lee,  S. V. Levchenko,  
 Ching Yeh Lin,  D. Liotard,  E. Livshits,  R. C. Lochan,  I. Lotan,  
 L. A. Martinez-Martinez,  P. E. Maslen,  N. Nair,  D. P. O'Neill,  
 D. Neuhauser,  E. Neuscamman,  C. M. Oana,  R. Olivares-Amaya,  R. Olson,  
 T. M. Perrine,  B. Peters,  P. A. Pieniazek,  A. Prociuk,  Y. M. Rhee,  
 J. Ritchie,  M. A. Rohrdanz,  E. Rosta,  N. J. Russ,  H. F. Schaefer III,  
 M. W. Schmidt,  N. E. Schultz,  S. Sharma,  N. Shenvi,  C. D. Sherrill,  
 A. C. Simmonett,  A. Sodt,  T. Stein,  D. Stuck,  K. S. Thanthiriwatte,  
 V. Vanovschi,  L. Vogt,  Tao Wang,  A. Warshel,  M. A. Watson,  
 C. F. Williams,  Q. Wu,  X. Xu,  Jun Yang,  W. Zhang,  Yan Zhao

 Please cite Q-Chem as follows:
 Y. Shao et al., Mol. Phys. 113, 184-215 (2015)
 DOI: 10.1080/00268976.2014.952696

 Q-Chem 5.4.1 for Intel X86 EM64T Linux

 Parts of Q-Chem use Armadillo 9.900.5 (Nocturnal Misbehaviour).
 http://arma.sourceforge.net/

 Q-Chem begins on Fri Mar 25 22:15:20 2022  

 Host: node01
0

     Scratch files written to /src/jdavis/qchem.scratch/qchem9142//
 Processing $rem in /src/tsommerfeld/qchem/config/preferences:
 Processing $rem in /home/jdavis/.qchemrc:

 Checking the input file for inconsistencies... 	...done.

--------------------------------------------------------------
User input:
--------------------------------------------------------------
$molecule
-1 1
C         0.0000003663    0.4438502432    0.6645000000
C         0.0000003663    0.4438502432   -0.6645000000
H        -0.9623486337    0.4438522630    1.1590800000
H        -0.9623486337    0.4438522630   -1.1590800000
H         0.9623483663    0.4438482235    1.1590800000
H         0.9623483663    0.4438482235   -1.1590800000
H        -0.0000038605   -3.8477690721    0.0000000000
$end

$rem
   METHOD adc(2)
   BASIS gen
   PURECART 11
   EE_STATES [0,0,0,10]
   scf_convergence 8
   ADC_DAVIDSON_MAXITER 120
   ADC_DAVIDSON_MAXSUBSPACE 200
   adc_nguess_singles 100
   THRESH 14
   S2THRESH 14
   adc_davidson_conv 5
   adc_davidson_thresh 14
   THREADS 10
   MEM_TOTAL 95000
   STATE_ANALYSIS TRUE
$end
$basis
C 1
S   9   1.00
      6.665000D+03           6.920000D-04
      1.000000D+03           5.329000D-03
      2.280000D+02           2.707700D-02
      6.471000D+01           1.017180D-01
      2.106000D+01           2.747400D-01
      7.495000D+00           4.485640D-01
      2.797000D+00           2.850740D-01
      5.215000D-01           1.520400D-02
      1.596000D-01          -3.191000D-03
S   9   1.00
      6.665000D+03          -1.460000D-04
      1.000000D+03          -1.154000D-03
      2.280000D+02          -5.725000D-03
      6.471000D+01          -2.331200D-02
      2.106000D+01          -6.395500D-02
      7.495000D+00          -1.499810D-01
      2.797000D+00          -1.272620D-01
      5.215000D-01           5.445290D-01
      1.596000D-01           5.804960D-01
S   1   1.00
      1.596000D-01           1.000000D+00
S   1   1.00
      0.0469000              1.0000000
P   4   1.00
      9.439000D+00           3.810900D-02
      2.002000D+00           2.094800D-01
      5.456000D-01           5.085570D-01
      1.517000D-01           4.688420D-01
P   1   1.00
      1.517000D-01           1.000000D+00
P   1   1.00
      0.0573089      1.0000000
P   1   1.00
      0.0286544      1.0000000
D   1   1.00
      5.500000D-01           1.0000000
****
C 2
S   9   1.00
      6.665000D+03           6.920000D-04
      1.000000D+03           5.329000D-03
      2.280000D+02           2.707700D-02
      6.471000D+01           1.017180D-01
      2.106000D+01           2.747400D-01
      7.495000D+00           4.485640D-01
      2.797000D+00           2.850740D-01
      5.215000D-01           1.520400D-02
      1.596000D-01          -3.191000D-03
S   9   1.00
      6.665000D+03          -1.460000D-04
      1.000000D+03          -1.154000D-03
      2.280000D+02          -5.725000D-03
      6.471000D+01          -2.331200D-02
      2.106000D+01          -6.395500D-02
      7.495000D+00          -1.499810D-01
      2.797000D+00          -1.272620D-01
      5.215000D-01           5.445290D-01
      1.596000D-01           5.804960D-01
S   1   1.00
      1.596000D-01           1.000000D+00
S   1   1.00
      0.0469000              1.0000000
P   4   1.00
      9.439000D+00           3.810900D-02
      2.002000D+00           2.094800D-01
      5.456000D-01           5.085570D-01
      1.517000D-01           4.688420D-01
P   1   1.00
      1.517000D-01           1.000000D+00
P   1   1.00
      0.0573089      1.0000000
P   1   1.00
      0.0286544      1.0000000
D   1   1.00
      5.500000D-01           1.0000000
****
H 3
cc-pVDZ
****
H 4
cc-pVDZ
****
H 5
cc-pVDZ
****
H 6
cc-pVDZ
****
H 7
aug-cc-pVDZ
****
$end
--------------------------------------------------------------
 Atom   2: (  0.6645000000,  0.0000002034, -0.2524481950)
         ->(  0.6645000000, -0.0000002034, -0.2524481950)
 Atom   1: ( -0.6645000000,  0.0000002034, -0.2524481950)
         ->( -0.6645000000,  0.0000000000, -0.2524481950)
 Atom   6: (  1.1590800000,  0.9623482034, -0.2524467961)
         ->(  1.1590800000,  0.9623487966, -0.2524495940)
 Atom   5: ( -1.1590800000,  0.9623482034, -0.2524467961)
         ->( -1.1590800000,  0.9623487966, -0.2524495940)
 Atom   7: ( -0.0000000000, -0.0000012548,  4.0391711203)
         ->(  0.0000000000,  0.0000000000,  4.0391711203)
 ----------------------------------------------------------------
             Standard Nuclear Orientation (Angstroms)
    I     Atom           X                Y                Z
 ----------------------------------------------------------------
    1      C      -0.6645000000     0.0000000000    -0.2524481950
    2      C       0.6645000000    -0.0000002034    -0.2524481950
    3      H      -1.1590800000    -0.9623487966    -0.2524495940
    4      H       1.1590800000    -0.9623487966    -0.2524495940
    5      H      -1.1590800000     0.9623487966    -0.2524495940
    6      H       1.1590800000     0.9623487966    -0.2524495940
    7      H       0.0000000000     0.0000000000     4.0391711203
 ----------------------------------------------------------------
 Molecular Point Group                 C2v   NOp =  4
 Largest Abelian Subgroup              C2v   NOp =  4
 Nuclear Repulsion Energy =          35.51682835 hartrees
 There are        9 alpha and        9 beta electrons
 Requested basis set is non-standard
 There are 33 shells and 67 basis functions
 Total memory of 95000 MB is distributed as follows: 
   MEM_STATIC is set to 192 MB
   QALLOC/CCMAN JOB total memory use is  94808 MB
 Warning: actual memory use might exceed 95000 MB

 Total QAlloc Memory Limit  95000 MB
 Mega-Array Size       188 MB
 MEM_STATIC part       192 MB

                       Distance Matrix (Angstroms)
             C (  1)   C (  2)   H (  3)   H (  4)   H (  5)   H (  6)
   C (  2)  1.329000
   H (  3)  1.082000  2.061931
   H (  4)  2.061931  1.082000  2.318160
   H (  5)  1.082000  2.061931  1.924698  3.013026
   H (  6)  2.061931  1.082000  3.013026  1.924698  2.318160
   H (  7)  4.342759  4.342759  4.548361  4.548361  4.548361  4.548361

 
 A cutoff of  1.0D-14 yielded    561 shell pairs
 There are      2337 function pairs (      2484 Cartesian)
 Smallest overlap matrix eigenvalue = 2.08E-04

 Scale SEOQF with 1.000000e-01/1.000000e-01/1.000000e-01

 Standard Electronic Orientation quadrupole field applied
 Nucleus-field energy     =    -0.0000000012 hartrees
 ================ Generating on-the-fly SAD Guess ================
Attempting to make child job directory: /src/jdavis/qchem.scratch/qchem9142//Frg1/
Attempting to make child job directory: /src/jdavis/qchem.scratch/qchem9142//Frg2/
Creating input file /src/jdavis/qchem.scratch/qchem9142/Frg1.input
using default PutDataFrgm: nothing
calling putenv with: QCSCRATCH=/src/jdavis/qchem.scratch/qchem9142/ 
Spawning Job For Fragment 0
Done Job For Fragment 0
calling putenv with: QCSCRATCH=/src/jdavis/qchem.scratch 
calling putenv with: QCTHREADS=1 
Creating input file /src/jdavis/qchem.scratch/qchem9142/Frg2.input
using default PutDataFrgm: nothing
calling putenv with: QCSCRATCH=/src/jdavis/qchem.scratch/qchem9142/ 
Spawning Job For Fragment 1
Done Job For Fragment 1
calling putenv with: QCSCRATCH=/src/jdavis/qchem.scratch 
calling putenv with: QCTHREADS=1 
 Time for running child jobs:  CPU 1.76 s  wall 54.33 s
 ============= Method Specific SAD Guess Constructed =============
 Guess from on-the-fly superposition of atomic densities
 Warning: Energy on first SCF cycle will be non-variational
 A restricted Hartree-Fock SCF calculation will be
 performed using Pulay DIIS extrapolation
 SCF converges when DIIS error is below 1.0E-08
 using 10 threads for integral computing
 -------------------------------------------------------
 OpenMP Integral computing Module                
 Release: version 1.0, May 2013, Q-Chem Inc. Pittsburgh 
 -------------------------------------------------------
 ---------------------------------------
  Cycle       Energy         DIIS Error
 ---------------------------------------
    1     -78.8001576504      7.36E-02
    2     -78.4478093063      6.68E-03
    3     -78.4969014963      1.54E-03
    4     -78.4994529099      5.05E-04
    5     -78.4996940991      1.03E-04
    6     -78.4997151456      2.00E-05
    7     -78.4997167696      7.36E-06
    8     -78.4997171203      8.85E-07
    9     -78.4997171353      2.46E-07
   10     -78.4997171371      4.56E-08
   11     -78.4997171366      9.55E-09 Convergence criterion met
 ---------------------------------------
 SCF time:  CPU 10.13 s  wall 1.02 s
 SCF   energy in the final basis set = -78.49971714
 Total energy in the final basis set = -78.49971714
================================================================================
|                                                                              |
|                                 A D C  M A N                                 |
|                                                                              |
 ------------------------------------------------------------------------------ 
|                                                                              |
| Components:                                                                  |
|                                                                              |
| - libvmm - 1.3-trunk                                                         |
|   Authors:                                                                   |
|   Evgeny Epifanovsky, Ilya Kaliman                                           |
|                                                                              |
| - libtensor - 2.5-trunk                                                      |
|   Authors:                                                                   |
|   Evgeny Epifanovsky, Michael Wormit, Dmitry Zuev, Sam Manzer,               |
|   Ilya Kaliman                                                               |
|                                                                              |
| - libwfa - 1.1-trunk                                                         |
|   Authors:                                                                   |
|   Felix Plasser, Stefanie Mewes (Baeppler), Benjamin Thomitzni,              |
|   Michael Wormit, Feng Chen, Anna I. Krylov, Pavel Pokhilko                  |
|                                                                              |
| - libadc - 1.1-trunk                                                         |
|   Authors:                                                                   |
|   Michael Wormit, Adrian L. Dempwolff, Philipp H. P. Harbach,                |
|   Caroline Krauter, Dirk Rehn, Matthias Schneider, Jan Wenzel                |
|                                                                              |
| - adcman - 2.6-trunk                                                         |
|   Authors:                                                                   |
|   Michael Wormit, Adrian L. Dempwolff, Philipp H. P. Harbach,                |
|   Caroline Krauter, Daniel Lefrancois, Jan-Michael Mewes, Dirk Rehn,         |
|   Matthias Schneider, Jan Wenzel, Andreas Dreuw                              |
|                                                                              |
| Authors of earlier versions of ADCMAN:                                       |
| Andreas Dreuw, Jan Hendrik Starcke, Dirk Rehn, Michael Wormit                |
|                                                                              |
================================================================================

 
 Alpha MOs, Restricted
 -- Occupied --                  
-11.113 -11.111  -0.916  -0.658  -0.536  -0.443  -0.392  -0.249
  1 A1    1 B1    2 A1    2 B1    1 B2    3 A1    1 A2    4 A1                 
 -0.013
  5 A1                                                                         
 -- Virtual --                   
  0.142   0.159   0.166   0.171   0.179   0.194   0.264   0.271
  3 B1    2 B2    6 A1    2 A2    7 A1    4 B1    8 A1    5 B1                 
  0.311   0.351   0.363   0.366   0.370   0.388   0.420   0.462
  6 B1    3 B2    3 A2    7 B1    9 A1   10 A1   11 A1    4 B2                 
  0.464   0.483   0.648   0.707   0.905   0.980   0.987   1.027
  8 B1    9 B1    4 A2   10 B1   12 A1    5 B2   13 A1    6 B2                 
  1.049   1.075   1.107   1.149   1.162   1.167   1.188   1.240
 11 B1   14 A1   15 A1   12 B1   16 A1   13 B1    5 A2    7 B2                 
  1.407   1.409   1.412   1.484   1.738   1.741   1.835   1.905
 14 B1    6 A2   17 A1    7 A2   18 A1    8 A2    8 B2    9 B2                 
  1.911   1.920   1.987   2.056   2.066   2.141   2.153   2.194
 15 B1   19 A1   16 B1   17 B1   20 A1   10 B2   21 A1   11 B2                 
  2.301   2.448   2.537   2.579   2.696   2.700   2.925   2.934
 18 B1   19 B1    9 A2   22 A1   20 B1   10 A2   12 B2   23 A1                 
  3.361   3.463
 21 B1   11 A2                                                                 
 
 Beta MOs, Restricted
 -- Occupied --                  
-11.113 -11.111  -0.916  -0.658  -0.536  -0.443  -0.392  -0.249
  1 A1    1 B1    2 A1    2 B1    1 B2    3 A1    1 A2    4 A1                 
 -0.013
  5 A1                                                                         
 -- Virtual --                   
  0.142   0.159   0.166   0.171   0.179   0.194   0.264   0.271
  3 B1    2 B2    6 A1    2 A2    7 A1    4 B1    8 A1    5 B1                 
  0.311   0.351   0.363   0.366   0.370   0.388   0.420   0.462
  6 B1    3 B2    3 A2    7 B1    9 A1   10 A1   11 A1    4 B2                 
  0.464   0.483   0.648   0.707   0.905   0.980   0.987   1.027
  8 B1    9 B1    4 A2   10 B1   12 A1    5 B2   13 A1    6 B2                 
  1.049   1.075   1.107   1.149   1.162   1.167   1.188   1.240
 11 B1   14 A1   15 A1   12 B1   16 A1   13 B1    5 A2    7 B2                 
  1.407   1.409   1.412   1.484   1.738   1.741   1.835   1.905
 14 B1    6 A2   17 A1    7 A2   18 A1    8 A2    8 B2    9 B2                 
  1.911   1.920   1.987   2.056   2.066   2.141   2.153   2.194
 15 B1   19 A1   16 B1   17 B1   20 A1   10 B2   21 A1   11 B2                 
  2.301   2.448   2.537   2.579   2.696   2.700   2.925   2.934
 18 B1   19 B1    9 A2   22 A1   20 B1   10 A2   12 B2   23 A1                 
  3.361   3.463
 21 B1   11 A2                                                                 

--------------------------------------------------------------------------------
                                   HF Summary                                   
--------------------------------------------------------------------------------
  Energy:                                                  -78.4997171366 a.u.
  Dip. moment [a.u.]:                  [  -0.000000,    0.000001,   -6.359858]
  Total dipole [Debye]:                                              16.165149
  <r^2> [a.u.]:                        [  52.662778,   26.985276,  128.338019]
  Total <r^2> [a.u.]:                                               207.986073
--------------------------------------------------------------------------------

--------------------------------------------------------------------------------
                                 MP(2) Summary                                  
--------------------------------------------------------------------------------
  MP energy contribution:                                   -0.3021235386 a.u.
  Total energy:                                            -78.8018406753 a.u.
  Dip. moment [a.u.]:                  [   0.000000,    0.000001,   -6.148054]
  Total dipole [Debye]:                                              15.626797
  <r^2> [a.u.]:                        [  53.142828,   27.365917,  127.115658]
  Total <r^2> [a.u.]:                                               207.624403

  Density matrix analysis:
  ------------------------
  NOs
    Occupation of frontier NOs:
       0.0454   1.9361
    Number of electrons: 18.000000
    Number of unpaired electrons: n_u =  0.45984, n_u,nl =  0.05055
    NO participation ratio (PR_NO): 16.059244
  
  
  Mulliken Population Analysis
  Atom      Charge (e)              h+              e-           Del q
  --------------------------------------------------------------------
   1 C       -0.315008        0.087687       -0.124677       -0.036990
   2 C       -0.315008        0.087687       -0.124677       -0.036990
   3 H        0.070221        0.018114       -0.010254        0.007860
   4 H        0.070234        0.018114       -0.010254        0.007860
   5 H        0.070229        0.018114       -0.010254        0.007860
   6 H        0.070215        0.018114       -0.010254        0.007860
   7 H       -0.650884        0.060231       -0.017692        0.042538
  --------------------------------------------------------------------
  Sum:       -1.000000        0.308061       -0.308061        0.000000
  
  Multipole moment analysis of the density matrix
    Molecular charge:                      -1.000000
    Number of electrons:                   18.000000
      Center of electronic charge [Ang]: [ -0.000000,  -0.000000,   0.180745]
    Total nuclear charge:                  17.000000
      Center of nuclear charge [Ang]:    [ -0.000000,  -0.000000,  -0.000000]
    Dipole moment [D]:                     15.626792
      Cartesian components [D]:          [  0.000000,   0.000002, -15.626792]
    RMS size of the density [Ang]:         1.788120
      Cartesian components [Ang]:        [  0.909258,   0.652484,   1.394592]
  
  Exciton analysis of the difference density matrix
    <r_h> [Ang]:                  [  0.000000,  -0.000000,   0.435165]
    <r_e> [Ang]:                  [ -0.000000,  -0.000000,   0.071335]
    |<r_e - r_h>| [Ang]:            0.363830
    Hole size [Ang]:                2.256359
      Cartesian components [Ang]: [  0.968900,   0.779343,   1.882821]
    Electron size [Ang]:            2.224113
      Cartesian components [Ang]: [  1.172661,   0.976412,   1.618074]
--------------------------------------------------------------------------------
  Starting Davidson for singlet states of irrep B2 ... 
--------------------------------------------------------------------------------
   It NVec Conv  Avg. Norm  Max. Norm  Conv. states           Remark
--------------------------------------------------------------------------------
       100    0  1.091e-01  4.333e-01  0.0945 n n n n n n n n Guess.
    1  110    0  7.298e-03  3.763e-02  0.0480 n n n n n n n n 
    2  120    0  2.191e-02  2.162e-01  0.0479 n n n n n n n n 
    3  130    1  3.285e-03  3.231e-02  0.0479 y n n n n n n n 
    4  140    5  2.969e-03  2.947e-02  0.0479 y y y y n n n n 
    5  150    5  2.332e-02  2.332e-01  0.0479 y y y y y n n n 
    6  160    8  1.194e-02  1.194e-01  0.0479 y y y y y n y y 
    7  170    9  7.974e-03  7.974e-02  0.0479 y y y y y n y y 
    8  180    9  7.187e-03  7.187e-02  0.0479 y y y y y n y y 
    9  190    9  6.907e-03  6.907e-02  0.0479 y y y y y n y y 
   10  200    5  2.813e-03  2.813e-02  0.0479 y y y y y n n n 
   11   20    9  2.740e-03  2.740e-02  0.0479 y y y y y n y y Subspace collapsed.
   12   30    9  2.304e-03  2.304e-02  0.0479 y y y y y n y y 
   13   40    9  1.062e-03  1.062e-02  0.0479 y y y y y n y y 
   14   50    9  7.544e-04  7.544e-03  0.0479 y y y y y n y y 
   15   60    9  6.410e-04  6.410e-03  0.0479 y y y y y n y y 
   16   70    9  5.588e-04  5.588e-03  0.0479 y y y y y n y y 
   17   80    9  4.635e-04  4.635e-03  0.0479 y y y y y n y y 
   18   90    9  4.345e-04  4.345e-03  0.0479 y y y y y n y y 
   19  100    9  2.810e-04  2.810e-03  0.0479 y y y y y n y y 
   20  110    8  7.029e-05  7.026e-04  0.0479 y n y y y n y y 
   21  120    8  1.329e-05  1.317e-04  0.0479 y n y y y n y y 
   22  130    8  3.648e-06  2.829e-05  0.0479 y n y y y n y y 
   23  140    1  6.073e-05  4.006e-04  0.0479 y n n n n n n n 
   24  150    0  7.036e-04  4.630e-03  0.0479 n n n n n n n n 
   25  160    0  7.610e-04  5.031e-03  0.0479 n n n n n n n n 
   26  170    0  5.195e-03  3.303e-02  0.0479 n n n n n n n n 
   27  180    0  6.804e-03  4.137e-02  0.0479 n n n n n n n n 
   28  190    0  6.849e-03  4.143e-02  0.0479 n n n n n n n n 
   29  200    0  1.373e-02  9.459e-02  0.0479 n n n n n n n n 
   30   20    0  7.175e-04  5.974e-03  0.0479 n n n n n n n n Subspace collapsed.
   31   30    0  2.713e-04  2.472e-03  0.0479 n n n n n n n n 
   32   40    0  2.460e-04  2.313e-03  0.0479 n n n n n n n n 
   33   50    1  2.413e-04  2.273e-03  0.0479 n n n n n y n n 
   34   60    1  1.121e-04  1.030e-03  0.0479 n n n n n y n n 
   35   70    2  3.065e-05  2.651e-04  0.0479 y n n n n y n n 
   36   80    3  2.839e-05  2.641e-04  0.0479 y n n n n y n n 
   37   90    4  2.836e-05  2.640e-04  0.0479 y n n n n y y n 
   38  100    4  2.781e-05  2.590e-04  0.0479 y n n n n y y n 
   39  110    7  7.608e-06  7.068e-05  0.0479 y n y y n y y y 
   40  120   10  3.404e-07  3.154e-06  0.0479 y y y y y y y y Converged.
--------------------------------------------------------------------------------
  Davidson Summary: 
 ------------------------------------------------------------
  State  0: excitation energy =   0.0479 a.u.   (converged)
  State  1: excitation energy =   0.2145 a.u.   (converged)
  State  2: excitation energy =   0.2656 a.u.   (converged)
  State  3: excitation energy =   0.3074 a.u.   (converged)
  State  4: excitation energy =   0.3346 a.u.   (converged)
  State  5: excitation energy =   0.3390 a.u.   (converged)
  State  6: excitation energy =   0.3524 a.u.   (converged)
  State  7: excitation energy =   0.3628 a.u.   (converged)
  State  8: excitation energy =   0.3733 a.u.   (converged)
  State  9: excitation energy =   0.3914 a.u.   (converged)
 ------------------------------------------------------------


--------------------------------------------------------------------------------
                   State-averaged natural transition orbitals
--------------------------------------------------------------------------------
--------------------------------------------------------------------------------

--------------------------------------------------------------------------------
                             Excited State Summary
--------------------------------------------------------------------------------
--------------------------------------------------------------------------------

  Excited state 1 (singlet, B2)                                    [converged]
  ----------------------------------------------------------------------------
  Term symbol:  1 (1) B2                                    R^2 =  9.43942e-08

  Total energy:                                            -78.7539270968 a.u.
  Excitation energy:                                               1.303795 eV

  Osc. strength:                                                      0.009139
  Trans. dip. moment [a.u.]:           [  -0.000002,   -0.534889,    0.000000]
  <i|r^2|0> [a.u.]:                    [   0.000000,   -0.000000,    0.000001]

  Dip. moment [a.u.]:                  [  -0.000000,    0.000001,    0.704466]
  Total dipole [Debye]:                                               1.790574
  <r^2> [a.u.]:                        [  63.116002,   61.308285,   87.074837]
  Total <r^2> [a.u.]:                                               211.499124

  V1^2 = 0.9120, V2^2 = 0.0880

  Important amplitudes:
      occ i      occ j       vir a       vir b          v   
    ---------------------------------------------------------
     5 (A1) A               2 (B2) A                  0.6730
     5 (A1) A   5 (A1) B    8 (A1) A    2 (B2) B      0.0664
    ---------------------------------------------------------

  Density matrix analysis:
  ------------------------
  NOs
    Occupation of frontier NOs:
       0.9877   0.9970
    Number of electrons: 18.000000
    Number of unpaired electrons: n_u =  2.41701, n_u,nl =  2.04874
    NO participation ratio (PR_NO):  2.947115
  
  
  Mulliken Population Analysis
  Atom      Charge (e)              h+              e-           Del q
  --------------------------------------------------------------------
   1 C       -0.624397        0.240399       -0.549789       -0.309389
   2 C       -0.624397        0.240399       -0.549789       -0.309389
   3 H        0.058924        0.005927       -0.017223       -0.011296
   4 H        0.058938        0.005927       -0.017224       -0.011297
   5 H        0.058932        0.005927       -0.017224       -0.011297
   6 H        0.058919        0.005927       -0.017223       -0.011296
   7 H        0.013082        0.721493       -0.057528        0.663965
  --------------------------------------------------------------------
  Sum:       -1.000000        1.225998       -1.225998        0.000000
  
  Multipole moment analysis of the density matrix
    Molecular charge:                      -1.000000
    Number of electrons:                   18.000000
      Center of electronic charge [Ang]: [  0.000000,  -0.000000,  -0.020711]
    Total nuclear charge:                  17.000000
      Center of nuclear charge [Ang]:    [ -0.000000,  -0.000000,  -0.000000]
    Dipole moment [D]:                     1.790573
      Cartesian components [D]:          [ -0.000000,   0.000004,   1.790573]
    RMS size of the density [Ang]:         1.813806
      Cartesian components [Ang]:        [  0.990911,   0.976617,   1.163704]
  
  Exciton analysis of the difference density matrix
    <r_h> [Ang]:                  [  0.000000,  -0.000000,   2.923656]
    <r_e> [Ang]:                  [  0.000000,  -0.000000,  -0.034094]
    |<r_e - r_h>| [Ang]:            2.957750
    Hole size [Ang]:                2.725504
      Cartesian components [Ang]: [  1.123332,   1.110295,   2.221203]
    Electron size [Ang]:            4.106092
      Cartesian components [Ang]: [  1.881444,   2.997579,   2.081989]

  Transition density matrix analysis:
  -----------------------------------
  
  CT numbers (Mulliken)
    omega =     0.9019
    <Phe> =     0.0011
  
  Exciton analysis of the transition density matrix
    Trans. dipole moment [D]:             0.679776
      Cartesian components [D]:         [ -0.000002,  -0.679776,   0.000000]
    <r_h> [Ang]:                        [  0.000000,  -0.000000,   3.678885]
    <r_e> [Ang]:                        [  0.000000,  -0.000000,  -0.252589]
    |<r_e - r_h>| [Ang]:                  3.931473
    Hole size [Ang]:                      1.860446
      Cartesian components [Ang]:       [  0.867768,   0.865286,   1.399827]
    Electron size [Ang]:                  4.228234
      Cartesian components [Ang]:       [  1.958798,   3.252570,   1.860608]
    RMS electron-hole separation [Ang]:   6.065683
      Cartesian components [Ang]:       [  2.141690,   3.365631,   4.569266]
    Covariance(r_h, r_e) [Ang^2]:         0.001598
    Correlation coefficient:              0.000203
    Center-of-mass size [Ang]:            2.309893
      Cartesian components [Ang]:       [  1.071563,   1.682884,   1.164156]

  Decomposition into state-averaged NTOs
    H- 0 -> L+ 0: -0.6594 ( 87.0%)
    H- 0 -> L+ 3: -0.0916 (  1.7%)
    H- 0 -> L+ 4: -0.0868 (  1.5%)
                   omega =  90.2%
  ----------------------------------------------------------------------------


  Excited state 2 (singlet, B2)                                    [converged]
  ----------------------------------------------------------------------------
  Term symbol:  2 (1) B2                                    R^2 =  3.15424e-06

  Total energy:                                            -78.5873276683 a.u.
  Excitation energy:                                               5.837196 eV

  Osc. strength:                                                      0.000679
  Trans. dip. moment [a.u.]:           [  -0.000000,   -0.068883,   -0.000000]
  <i|r^2|0> [a.u.]:                    [  -0.000001,   -0.000000,    0.000001]

  Dip. moment [a.u.]:                  [  -0.000000,   -0.000000,    0.712157]
  Total dipole [Debye]:                                               1.810123
  <r^2> [a.u.]:                        [  57.962574,   47.853571,   83.030471]
  Total <r^2> [a.u.]:                                               188.846616

  V1^2 = 0.9101, V2^2 = 0.0899

  Important amplitudes:
      occ i      occ j       vir a       vir b          v   
    ---------------------------------------------------------
     5 (A1) A               3 (B2) A                  0.6675
     5 (A1) A               4 (B2) A                  0.0730
    ---------------------------------------------------------

  Density matrix analysis:
  ------------------------
  NOs
    Occupation of frontier NOs:
       0.9872   0.9876
    Number of electrons: 18.000000
    Number of unpaired electrons: n_u =  2.43275, n_u,nl =  2.05369
    NO participation ratio (PR_NO):  3.013130
  
  
  Mulliken Population Analysis
  Atom      Charge (e)              h+              e-           Del q
  --------------------------------------------------------------------
   1 C       -0.679332        0.257721       -0.622045       -0.364324
   2 C       -0.679332        0.257721       -0.622045       -0.364324
   3 H        0.084259        0.002094        0.011944        0.014038
   4 H        0.084267        0.002094        0.011938        0.014032
   5 H        0.084261        0.002094        0.011938        0.014032
   6 H        0.084253        0.002094        0.011944        0.014038
   7 H        0.021623        0.721739       -0.049232        0.672507
  --------------------------------------------------------------------
  Sum:       -1.000000        1.245559       -1.245559       -0.000000
  
  Multipole moment analysis of the density matrix
    Molecular charge:                      -1.000000
    Number of electrons:                   18.000000
      Center of electronic charge [Ang]: [  0.000000,  -0.000000,  -0.020937]
    Total nuclear charge:                  17.000000
      Center of nuclear charge [Ang]:    [ -0.000000,  -0.000000,  -0.000000]
    Dipole moment [D]:                     1.810122
      Cartesian components [D]:          [ -0.000000,  -0.000000,   1.810122]
    RMS size of the density [Ang]:         1.713906
      Cartesian components [Ang]:        [  0.949596,   0.862824,   1.136344]
  
  Exciton analysis of the difference density matrix
    <r_h> [Ang]:                  [  0.000000,  -0.000000,   2.871074]
    <r_e> [Ang]:                  [  0.000000,   0.000000,  -0.043494]
    |<r_e - r_h>| [Ang]:            2.914569
    Hole size [Ang]:                2.677395
      Cartesian components [Ang]: [  1.097152,   1.076276,   2.192335]
    Electron size [Ang]:            3.344842
      Cartesian components [Ang]: [  1.512390,   2.400924,   1.770934]

  Transition density matrix analysis:
  -----------------------------------
  
  CT numbers (Mulliken)
    omega =     0.8981
    <Phe> =     0.0004
  
  Exciton analysis of the transition density matrix
    Trans. dipole moment [D]:             0.087542
      Cartesian components [D]:         [ -0.000000,  -0.087542,  -0.000000]
    <r_h> [Ang]:                        [  0.000000,  -0.000000,   3.674421]
    <r_e> [Ang]:                        [  0.000000,   0.000001,  -0.252183]
    |<r_e - r_h>| [Ang]:                  3.926604
    Hole size [Ang]:                      1.861534
      Cartesian components [Ang]:       [  0.864833,   0.862246,   1.404957]
    Electron size [Ang]:                  3.354710
      Cartesian components [Ang]:       [  1.498634,   2.597098,   1.504413]
    RMS electron-hole separation [Ang]:   5.489570
      Cartesian components [Ang]:       [  1.729382,   2.736361,   4.433615]
    Covariance(r_h, r_e) [Ang^2]:         0.001119
    Correlation coefficient:              0.000179
    Center-of-mass size [Ang]:            1.918439
      Cartesian components [Ang]:       [  0.865581,   1.368311,   1.029029]

  Decomposition into state-averaged NTOs
    H- 0 -> L+ 3:  0.5859 ( 68.6%)
    H- 0 -> L+ 4:  0.3015 ( 18.2%)
    H- 0 -> L+ 0: -0.1206 (  2.9%)
                   omega =  89.8%
  ----------------------------------------------------------------------------


  Excited state 3 (singlet, B2)                                    [converged]
  ----------------------------------------------------------------------------
  Term symbol:  3 (1) B2                                    R^2 =  2.57494e-07

  Total energy:                                            -78.5362856395 a.u.
  Excitation energy:                                               7.226120 eV

  Osc. strength:                                                      0.001242
  Trans. dip. moment [a.u.]:           [   0.000004,   -0.083754,   -0.000000]
  <i|r^2|0> [a.u.]:                    [  -0.000000,   -0.000000,   -0.000001]

  Dip. moment [a.u.]:                  [  -0.000000,    0.000001,   -6.175942]
  Total dipole [Debye]:                                              15.697681
  <r^2> [a.u.]:                        [  61.191595,   56.271810,  132.667738]
  Total <r^2> [a.u.]:                                               250.131142

  V1^2 = 0.9498, V2^2 = 0.0502

  Important amplitudes:
      occ i      occ j       vir a       vir b          v   
    ---------------------------------------------------------
     4 (A1) A               2 (B2) A                 -0.6610
     4 (A1) A               3 (B2) A                 -0.1808
    ---------------------------------------------------------

  Density matrix analysis:
  ------------------------
  NOs
    Occupation of frontier NOs:
       0.9853   0.9938
    Number of electrons: 18.000000
    Number of unpaired electrons: n_u =  2.34446, n_u,nl =  2.02852
    NO participation ratio (PR_NO):  2.795975
  
  
  Mulliken Population Analysis
  Atom      Charge (e)              h+              e-           Del q
  --------------------------------------------------------------------
   1 C       -0.426438        0.523335       -0.634765       -0.111430
   2 C       -0.426438        0.523335       -0.634765       -0.111430
   3 H        0.122453        0.096282       -0.044050        0.052232
   4 H        0.122466        0.096283       -0.044051        0.052232
   5 H        0.122461        0.096283       -0.044051        0.052232
   6 H        0.122447        0.096282       -0.044050        0.052232
   7 H       -0.636950        0.024714       -0.010781        0.013933
  --------------------------------------------------------------------
  Sum:       -1.000000        1.456513       -1.456513        0.000000
  
  Multipole moment analysis of the density matrix
    Molecular charge:                      -1.000000
    Number of electrons:                   18.000000
      Center of electronic charge [Ang]: [  0.000000,  -0.000000,   0.181565]
    Total nuclear charge:                  17.000000
      Center of nuclear charge [Ang]:    [ -0.000000,  -0.000000,  -0.000000]
    Dipole moment [D]:                     15.697677
      Cartesian components [D]:          [ -0.000000,   0.000002, -15.697677]
    RMS size of the density [Ang]:         1.964271
      Cartesian components [Ang]:        [  0.975688,   0.935643,   1.425119]
  
  Exciton analysis of the difference density matrix
    <r_h> [Ang]:                  [  0.000000,  -0.000000,  -0.208828]
    <r_e> [Ang]:                  [  0.000000,  -0.000000,  -0.198696]
    |<r_e - r_h>| [Ang]:            0.010132
    Hole size [Ang]:                1.719145
      Cartesian components [Ang]: [  1.040803,   0.835185,   1.083815]
    Electron size [Ang]:            3.336452
      Cartesian components [Ang]: [  1.621950,   2.500993,   1.498741]

  Transition density matrix analysis:
  -----------------------------------
  
  CT numbers (Mulliken)
    omega =     0.9187
    <Phe> =    -0.0019
  
  Exciton analysis of the transition density matrix
    Trans. dipole moment [D]:             0.106441
      Cartesian components [D]:         [  0.000005,  -0.106441,  -0.000000]
    <r_h> [Ang]:                        [  0.000000,  -0.000000,  -0.285962]
    <r_e> [Ang]:                        [  0.000000,  -0.000000,  -0.252639]
    |<r_e - r_h>| [Ang]:                  0.033323
    Hole size [Ang]:                      1.266792
      Cartesian components [Ang]:       [  0.757874,   0.512586,   0.876154]
    Electron size [Ang]:                  3.868305
      Cartesian components [Ang]:       [  1.834335,   2.962685,   1.679732]
    RMS electron-hole separation [Ang]:   4.068373
      Cartesian components [Ang]:       [  1.981042,   3.006184,   1.894727]
    Covariance(r_h, r_e) [Ang^2]:         0.008999
    Correlation coefficient:              0.001836
    Center-of-mass size [Ang]:            2.036329
      Cartesian components [Ang]:       [  0.994206,   1.503608,   0.947287]

  Decomposition into state-averaged NTOs
    H- 2 -> L+ 0: -0.6770 ( 91.7%)
                   omega =  91.9%
  ----------------------------------------------------------------------------


  Excited state 4 (singlet, B2)                                    [converged]
  ----------------------------------------------------------------------------
  Term symbol:  4 (1) B2                                    R^2 =  4.41831e-07

  Total energy:                                            -78.4944513071 a.u.
  Excitation energy:                                               8.364490 eV

  Osc. strength:                                                      0.010476
  Trans. dip. moment [a.u.]:           [   0.000001,   -0.226099,    0.000000]
  <i|r^2|0> [a.u.]:                    [   0.000000,   -0.000000,   -0.000002]

  Dip. moment [a.u.]:                  [   0.000000,    0.000000,    0.712974]
  Total dipole [Debye]:                                               1.812198
  <r^2> [a.u.]:                        [  57.118240,   33.383635,   79.752769]
  Total <r^2> [a.u.]:                                               170.254644

  V1^2 = 0.9099, V2^2 = 0.0901

  Important amplitudes:
      occ i      occ j       vir a       vir b          v   
    ---------------------------------------------------------
     5 (A1) A               4 (B2) A                 -0.6686
     5 (A1) A               3 (B2) A                  0.0791
    ---------------------------------------------------------

  Density matrix analysis:
  ------------------------
  NOs
    Occupation of frontier NOs:
       0.9869   0.9875
    Number of electrons: 18.000000
    Number of unpaired electrons: n_u =  2.43670, n_u,nl =  2.05485
    NO participation ratio (PR_NO):  3.023495
  
  
  Mulliken Population Analysis
  Atom      Charge (e)              h+              e-           Del q
  --------------------------------------------------------------------
   1 C       -0.399801        0.276482       -0.361275       -0.084793
   2 C       -0.399801        0.276482       -0.361275       -0.084793
   3 H       -0.056349        0.004648       -0.131218       -0.126569
   4 H       -0.056350        0.004648       -0.131233       -0.126585
   5 H       -0.056356        0.004648       -0.131233       -0.126584
   6 H       -0.056354        0.004648       -0.131218       -0.126569
   7 H        0.025009        0.721389       -0.045496        0.675893
  --------------------------------------------------------------------
  Sum:       -1.000000        1.292947       -1.292947       -0.000000
  
  Multipole moment analysis of the density matrix
    Molecular charge:                      -1.000000
    Number of electrons:                   18.000000
      Center of electronic charge [Ang]: [ -0.000000,  -0.000000,  -0.020961]
    Total nuclear charge:                  17.000000
      Center of nuclear charge [Ang]:    [ -0.000000,  -0.000000,  -0.000000]
    Dipole moment [D]:                     1.812198
      Cartesian components [D]:          [  0.000000,   0.000000,   1.812198]
    RMS size of the density [Ang]:         1.627340
      Cartesian components [Ang]:        [  0.942654,   0.720662,   1.113681]
  
  Exciton analysis of the difference density matrix
    <r_h> [Ang]:                  [  0.000000,  -0.000000,   2.750746]
    <r_e> [Ang]:                  [ -0.000000,   0.000000,  -0.057335]
    |<r_e - r_h>| [Ang]:            2.808081
    Hole size [Ang]:                2.688033
      Cartesian components [Ang]: [  1.092519,   1.057948,   2.216454]
    Electron size [Ang]:            2.587515
      Cartesian components [Ang]: [  1.433387,   1.556465,   1.489313]

  Transition density matrix analysis:
  -----------------------------------
  
  CT numbers (Mulliken)
    omega =     0.8969
    <Phe> =    -0.0001
  
  Exciton analysis of the transition density matrix
    Trans. dipole moment [D]:             0.287343
      Cartesian components [D]:         [  0.000001,  -0.287343,   0.000000]
    <r_h> [Ang]:                        [  0.000000,  -0.000000,   3.674878]
    <r_e> [Ang]:                        [ -0.000000,   0.000000,  -0.251899]
    |<r_e - r_h>| [Ang]:                  3.926777
    Hole size [Ang]:                      1.859404
      Cartesian components [Ang]:       [  0.863567,   0.861027,   1.403662]
    Electron size [Ang]:                  2.416157
      Cartesian components [Ang]:       [  1.398234,   1.610908,   1.134782]
    RMS electron-hole separation [Ang]:   4.970733
      Cartesian components [Ang]:       [  1.641423,   1.826320,   4.321860]
    Covariance(r_h, r_e) [Ang^2]:         0.003293
    Correlation coefficient:              0.000733
    Center-of-mass size [Ang]:            1.524941
      Cartesian components [Ang]:       [  0.822701,   0.913419,   0.902372]

  Decomposition into state-averaged NTOs
    H- 0 -> L+ 4: -0.5891 ( 69.4%)
    H- 0 -> L+ 3:  0.3164 ( 20.0%)
                   omega =  89.7%
  ----------------------------------------------------------------------------


  Excited state 5 (singlet, B2)                                    [converged]
  ----------------------------------------------------------------------------
  Term symbol:  5 (1) B2                                    R^2 =  8.69726e-07

  Total energy:                                            -78.4672708838 a.u.
  Excitation energy:                                               9.104107 eV

  Osc. strength:                                                      0.002696
  Trans. dip. moment [a.u.]:           [   0.000006,    0.109934,    0.000000]
  <i|r^2|0> [a.u.]:                    [  -0.000000,    0.000000,    0.000000]

  Dip. moment [a.u.]:                  [  -0.000000,    0.000000,   -5.569970]
  Total dipole [Debye]:                                              14.157453
  <r^2> [a.u.]:                        [  56.241347,   26.627988,  132.108241]
  Total <r^2> [a.u.]:                                               214.977576

  V1^2 = 0.9504, V2^2 = 0.0496

  Important amplitudes:
      occ i      occ j       vir a       vir b          v   
    ---------------------------------------------------------
     1 (A2) A               5 (B1) A                 -0.5265
     1 (A2) A               4 (B1) A                  0.2721
    ---------------------------------------------------------

  Density matrix analysis:
  ------------------------
  NOs
    Occupation of frontier NOs:
       0.9951   1.0151
    Number of electrons: 18.000000
    Number of unpaired electrons: n_u =  2.43175, n_u,nl =  2.05006
    NO participation ratio (PR_NO):  2.996785
  
  
  Mulliken Population Analysis
  Atom      Charge (e)              h+              e-           Del q
  --------------------------------------------------------------------
   1 C       -0.583369        0.250952       -0.519313       -0.268361
   2 C       -0.583369        0.250952       -0.519313       -0.268361
   3 H        0.204162        0.141479       -0.007538        0.133941
   4 H        0.204177        0.141479       -0.007537        0.133943
   5 H        0.204171        0.141479       -0.007537        0.133942
   6 H        0.204156        0.141479       -0.007538        0.133941
   7 H       -0.649928        0.002634       -0.001679        0.000956
  --------------------------------------------------------------------
  Sum:       -1.000000        1.070454       -1.070454        0.000000
  
  Multipole moment analysis of the density matrix
    Molecular charge:                      -1.000000
    Number of electrons:                   18.000000
      Center of electronic charge [Ang]: [  0.000000,  -0.000000,   0.163750]
    Total nuclear charge:                  17.000000
      Center of nuclear charge [Ang]:    [ -0.000000,  -0.000000,  -0.000000]
    Dipole moment [D]:                     14.157449
      Cartesian components [D]:          [ -0.000000,   0.000000, -14.157449]
    RMS size of the density [Ang]:         1.821434
      Cartesian components [Ang]:        [  0.935390,   0.643627,   1.424223]
  
  Exciton analysis of the difference density matrix
    <r_h> [Ang]:                  [  0.000000,  -0.000000,  -0.256285]
    <r_e> [Ang]:                  [  0.000000,  -0.000000,  -0.542060]
    |<r_e - r_h>| [Ang]:            0.285775
    Hole size [Ang]:                1.559993
      Cartesian components [Ang]: [  1.125389,   0.930300,   0.549199]
    Electron size [Ang]:            2.031995
      Cartesian components [Ang]: [  1.441203,   0.820010,   1.174530]

  Transition density matrix analysis:
  -----------------------------------
  
  CT numbers (Mulliken)
    omega =     0.9212
    <Phe> =    -0.0121
  
  Exciton analysis of the transition density matrix
    Trans. dipole moment [D]:             0.139712
      Cartesian components [D]:         [  0.000008,   0.139712,   0.000000]
    <r_h> [Ang]:                        [  0.000000,  -0.000001,  -0.254899]
    <r_e> [Ang]:                        [  0.000000,  -0.000000,  -0.572171]
    |<r_e - r_h>| [Ang]:                  0.317272
    Hole size [Ang]:                      1.515160
      Cartesian components [Ang]:       [  1.118805,   0.933365,   0.415708]
    Electron size [Ang]:                  2.052305
      Cartesian components [Ang]:       [  1.465382,   0.815916,   1.182747]
    RMS electron-hole separation [Ang]:   2.543179
      Cartesian components [Ang]:       [  1.809213,   1.234212,   1.292761]
    Covariance(r_h, r_e) [Ang^2]:         0.070283
    Correlation coefficient:              0.022602
    Center-of-mass size [Ang]:            1.289208
      Cartesian components [Ang]:       [  0.938734,   0.622596,   0.627064]

  Decomposition into state-averaged NTOs
    H- 1 -> L+ 1: -0.6728 ( 90.5%)
                   omega =  92.1%
  ----------------------------------------------------------------------------


  Excited state 6 (singlet, B2)                                    [converged]
  ----------------------------------------------------------------------------
  Term symbol:  6 (1) B2                                    R^2 =  1.42079e-08

  Total energy:                                            -78.4628226574 a.u.
  Excitation energy:                                               9.225149 eV

  Osc. strength:                                                      0.000017
  Trans. dip. moment [a.u.]:           [   0.000000,    0.008784,   -0.000000]
  <i|r^2|0> [a.u.]:                    [   0.000000,    0.000000,    0.000000]

  Dip. moment [a.u.]:                  [   0.000000,    0.000001,   11.610869]
  Total dipole [Debye]:                                              29.511891
  <r^2> [a.u.]:                        [ 134.183167,   73.798293,   46.277909]
  Total <r^2> [a.u.]:                                               254.259369

  V1^2 = 0.0000, V2^2 = 1.0000

  Important amplitudes:
      occ i      occ j       vir a       vir b          v   
    ---------------------------------------------------------
     5 (A1) A   5 (A1) B    2 (A2) A    3 (B1) B      0.3535
     5 (A1) A               3 (B2) A                  0.0015
    ---------------------------------------------------------

  Density matrix analysis:
  ------------------------
  NOs
    Occupation of frontier NOs:
       1.0004   1.0005
    Number of electrons: 18.000000
    Number of unpaired electrons: n_u =  2.41010, n_u,nl =  2.06984
    NO participation ratio (PR_NO):  2.881137
  
  
  Mulliken Population Analysis
  Atom      Charge (e)              h+              e-           Del q
  --------------------------------------------------------------------
   1 C       -1.043624        0.162122       -0.890738       -0.728616
   2 C       -1.043624        0.162122       -0.890738       -0.728616
   3 H        0.011352       -0.004239       -0.054629       -0.058869
   4 H        0.011366       -0.004239       -0.054629       -0.058868
   5 H        0.011360       -0.004239       -0.054629       -0.058868
   6 H        0.011347       -0.004239       -0.054629       -0.058869
   7 H        1.041823        1.692706       -0.000000        1.692706
  --------------------------------------------------------------------
  Sum:       -1.000000        1.999992       -1.999992       -0.000000
  
  Multipole moment analysis of the density matrix
    Molecular charge:                      -1.000000
    Number of electrons:                   18.000000
      Center of electronic charge [Ang]: [ -0.000000,  -0.000000,  -0.341345]
    Total nuclear charge:                  17.000000
      Center of nuclear charge [Ang]:    [ -0.000000,  -0.000000,  -0.000000]
    Dipole moment [D]:                     29.511882
      Cartesian components [D]:          [  0.000000,   0.000003,  29.511882]
    RMS size of the density [Ang]:         1.959345
      Cartesian components [Ang]:        [  1.444821,   1.071490,   0.776811]
  
  Exciton analysis of the difference density matrix
    <r_h> [Ang]:                  [  0.000000,  -0.000000,   3.770699]
    <r_e> [Ang]:                  [ -0.000000,  -0.000000,  -0.928128]
    |<r_e - r_h>| [Ang]:            4.698827
    Hole size [Ang]:                1.686493
      Cartesian components [Ang]: [  0.813661,   0.812296,   1.233851]
    Electron size [Ang]:            4.767662
      Cartesian components [Ang]: [  3.465385,   2.676013,   1.886971]

  Transition density matrix analysis:
  -----------------------------------
  
  CT numbers (Mulliken)
    omega =     0.0000
    <Phe> =     0.1202
  
  Exciton analysis of the transition density matrix
    Trans. dipole moment [D]:             0.011164
      Cartesian components [D]:         [  0.000000,   0.011164,  -0.000000]
    <r_h> [Ang]:                        [  0.000000,  -0.000000,   2.521658]
    <r_e> [Ang]:                        [  0.000000,   0.000000,  -0.320070]
    |<r_e - r_h>| [Ang]:                  2.841728
    Hole size [Ang]:                      3.215905
      Cartesian components [Ang]:       [  1.517221,   1.235792,   2.552040]
    Electron size [Ang]:                  3.698614
      Cartesian components [Ang]:       [  2.043629,   2.647372,   1.579476]
    RMS electron-hole separation [Ang]:   5.595524
      Cartesian components [Ang]:       [  2.632066,   2.767921,   4.089099]
    Covariance(r_h, r_e) [Ang^2]:         0.393656
    Correlation coefficient:              0.033096
    Center-of-mass size [Ang]:            2.490437
      Cartesian components [Ang]:       [  1.227699,   1.533797,   1.530522]

  Decomposition into state-averaged NTOs
                   omega =   0.0%
  ----------------------------------------------------------------------------


  Excited state 7 (singlet, B2)                                    [converged]
  ----------------------------------------------------------------------------
  Term symbol:  7 (1) B2                                    R^2 =  1.23213e-07

  Total energy:                                            -78.4494287803 a.u.
  Excitation energy:                                               9.589615 eV

  Osc. strength:                                                      0.000056
  Trans. dip. moment [a.u.]:           [  -0.000000,    0.015485,   -0.000000]
  <i|r^2|0> [a.u.]:                    [   0.000000,   -0.000000,    0.000000]

  Dip. moment [a.u.]:                  [  -0.000000,    0.000001,    9.584578]
  Total dipole [Debye]:                                              24.361571
  <r^2> [a.u.]:                        [ 118.872582,   72.825820,   39.387435]
  Total <r^2> [a.u.]:                                               231.085836

  V1^2 = 0.0014, V2^2 = 0.9986

  Important amplitudes:
      occ i      occ j       vir a       vir b          v   
    ---------------------------------------------------------
     5 (A1) A   5 (A1) B    6 (A1) A    2 (B2) B      0.3481
     5 (A1) A   5 (A1) B    7 (A1) A    2 (B2) B     -0.0593
    ---------------------------------------------------------

  Density matrix analysis:
  ------------------------
  NOs
    Occupation of frontier NOs:
       1.0005   1.0007
    Number of electrons: 18.000000
    Number of unpaired electrons: n_u =  2.40949, n_u,nl =  2.06958
    NO participation ratio (PR_NO):  2.880658
  
  
  Mulliken Population Analysis
  Atom      Charge (e)              h+              e-           Del q
  --------------------------------------------------------------------
   1 C       -1.142280        0.161099       -0.988371       -0.827272
   2 C       -1.142280        0.161099       -0.988371       -0.827272
   3 H        0.060107       -0.004476       -0.005637       -0.010113
   4 H        0.060121       -0.004476       -0.005637       -0.010114
   5 H        0.060115       -0.004476       -0.005637       -0.010114
   6 H        0.060102       -0.004476       -0.005637       -0.010114
   7 H        1.044116        1.695009       -0.000010        1.694999
  --------------------------------------------------------------------
  Sum:       -1.000000        1.999301       -1.999301        0.000000
  
  Multipole moment analysis of the density matrix
    Molecular charge:                      -1.000000
    Number of electrons:                   18.000000
      Center of electronic charge [Ang]: [  0.000000,  -0.000000,  -0.281775]
    Total nuclear charge:                  17.000000
      Center of nuclear charge [Ang]:    [ -0.000000,  -0.000000,  -0.000000]
    Dipole moment [D]:                     24.361563
      Cartesian components [D]:          [ -0.000000,   0.000004,  24.361563]
    RMS size of the density [Ang]:         1.875003
      Cartesian components [Ang]:        [  1.359896,   1.064407,   0.730314]
  
  Exciton analysis of the difference density matrix
    <r_h> [Ang]:                  [  0.000000,  -0.000000,   3.773439]
    <r_e> [Ang]:                  [  0.000000,  -0.000000,  -0.390690]
    |<r_e - r_h>| [Ang]:            4.164130
    Hole size [Ang]:                1.677013
      Cartesian components [Ang]: [  0.813286,   0.809161,   1.223191]
    Electron size [Ang]:            4.492734
      Cartesian components [Ang]: [  3.141298,   2.649906,   1.815187]

  Transition density matrix analysis:
  -----------------------------------
  
  CT numbers (Mulliken)
    omega =     0.0014
    <Phe> =     0.0082
  
  Exciton analysis of the transition density matrix
    Trans. dipole moment [D]:             0.019679
      Cartesian components [D]:         [ -0.000000,   0.019679,  -0.000000]
    <r_h> [Ang]:                        [  0.000000,   0.000000,   3.855918]
    <r_e> [Ang]:                        [  0.000000,  -0.000000,  -0.256060]
    |<r_e - r_h>| [Ang]:                  4.111978
    Hole size [Ang]:                      1.461377
      Cartesian components [Ang]:       [  0.697552,   0.737995,   1.050908]
    Electron size [Ang]:                  4.199089
      Cartesian components [Ang]:       [  1.909266,   3.214082,   1.912258]
    RMS electron-hole separation [Ang]:   6.049886
      Cartesian components [Ang]:       [  2.029912,   3.292756,   4.651702]
    Covariance(r_h, r_e) [Ang^2]:         0.037606
    Correlation coefficient:              0.006128
    Center-of-mass size [Ang]:            2.227284
      Cartesian components [Ang]:       [  1.017743,   1.651339,   1.094566]

  Decomposition into state-averaged NTOs
                   omega =   0.1%
  ----------------------------------------------------------------------------


  Excited state 8 (singlet, B2)                                    [converged]
  ----------------------------------------------------------------------------
  Term symbol:  8 (1) B2                                    R^2 =  2.98703e-07

  Total energy:                                            -78.4389960932 a.u.
  Excitation energy:                                               9.873503 eV

  Osc. strength:                                                      0.055909
  Trans. dip. moment [a.u.]:           [  -0.000002,    0.480759,   -0.000000]
  <i|r^2|0> [a.u.]:                    [   0.000003,    0.000003,    0.000000]

  Dip. moment [a.u.]:                  [   0.000000,    0.000001,   -5.107049]
  Total dipole [Debye]:                                              12.980826
  <r^2> [a.u.]:                        [  85.865987,   34.222426,  136.904657]
  Total <r^2> [a.u.]:                                               256.993071

  V1^2 = 0.9373, V2^2 = 0.0627

  Important amplitudes:
      occ i      occ j       vir a       vir b          v   
    ---------------------------------------------------------
     1 (A2) A               3 (B1) A                  0.6050
     1 (A2) A               6 (B1) A                 -0.1847
    ---------------------------------------------------------

  Density matrix analysis:
  ------------------------
  NOs
    Occupation of frontier NOs:
       0.9810   1.0294
    Number of electrons: 18.000000
    Number of unpaired electrons: n_u =  2.48369, n_u,nl =  2.07699
    NO participation ratio (PR_NO):  3.203881
  
  
  Mulliken Population Analysis
  Atom      Charge (e)              h+              e-           Del q
  --------------------------------------------------------------------
   1 C       -0.643396        0.259507       -0.587894       -0.328388
   2 C       -0.643396        0.259507       -0.587894       -0.328388
   3 H        0.232410        0.192986       -0.030797        0.162189
   4 H        0.232424        0.192987       -0.030797        0.162190
   5 H        0.232419        0.192987       -0.030797        0.162190
   6 H        0.232404        0.192986       -0.030797        0.162188
   7 H       -0.642865        0.018601       -0.010583        0.008019
  --------------------------------------------------------------------
  Sum:       -1.000000        1.309560       -1.309560        0.000000
  
  Multipole moment analysis of the density matrix
    Molecular charge:                      -1.000000
    Number of electrons:                   18.000000
      Center of electronic charge [Ang]: [ -0.000000,  -0.000000,   0.150140]
    Total nuclear charge:                  17.000000
      Center of nuclear charge [Ang]:    [ -0.000000,  -0.000000,  -0.000000]
    Dipole moment [D]:                     12.980822
      Cartesian components [D]:          [  0.000000,   0.000002, -12.980822]
    RMS size of the density [Ang]:         1.993874
      Cartesian components [Ang]:        [  1.155781,   0.729660,   1.451655]
  
  Exciton analysis of the difference density matrix
    <r_h> [Ang]:                  [ -0.000000,  -0.000000,  -0.240214]
    <r_e> [Ang]:                  [ -0.000000,  -0.000000,  -0.660871]
    |<r_e - r_h>| [Ang]:            0.420657
    Hole size [Ang]:                1.824170
      Cartesian components [Ang]: [  1.220584,   1.009730,   0.904553]
    Electron size [Ang]:            3.674949
      Cartesian components [Ang]: [  2.913272,   1.576613,   1.591348]

  Transition density matrix analysis:
  -----------------------------------
  
  CT numbers (Mulliken)
    omega =     0.9208
    <Phe> =    -0.0046
  
  Exciton analysis of the transition density matrix
    Trans. dipole moment [D]:             0.610984
      Cartesian components [D]:         [ -0.000002,   0.610984,  -0.000000]
    <r_h> [Ang]:                        [  0.000000,  -0.000001,  -0.255281]
    <r_e> [Ang]:                        [  0.000000,  -0.000000,  -0.826523]
    |<r_e - r_h>| [Ang]:                  0.571242
    Hole size [Ang]:                      1.521543
      Cartesian components [Ang]:       [  1.123922,   0.938580,   0.413472]
    Electron size [Ang]:                  4.065768
      Cartesian components [Ang]:       [  3.275156,   1.745773,   1.660151]
    RMS electron-hole separation [Ang]:   4.269633
      Cartesian components [Ang]:       [  3.341833,   1.951742,   1.803501]
    Covariance(r_h, r_e) [Ang^2]:         0.471058
    Correlation coefficient:              0.076146
    Center-of-mass size [Ang]:            2.224167
      Cartesian components [Ang]:       [  1.789682,   1.005984,   0.855544]

  Decomposition into state-averaged NTOs
    H- 1 -> L+ 2:  0.6703 ( 89.9%)
                   omega =  92.1%
  ----------------------------------------------------------------------------


  Excited state 9 (singlet, B2)                                    [converged]
  ----------------------------------------------------------------------------
  Term symbol:  9 (1) B2                                    R^2 =  7.04582e-07

  Total energy:                                            -78.4285568976 a.u.
  Excitation energy:                                              10.157568 eV

  Osc. strength:                                                      0.000714
  Trans. dip. moment [a.u.]:           [  -0.000000,    0.053555,   -0.000000]
  <i|r^2|0> [a.u.]:                    [   0.000000,   -0.000000,   -0.000000]

  Dip. moment [a.u.]:                  [  -0.000000,    0.000001,   11.820864]
  Total dipole [Debye]:                                              30.045645
  <r^2> [a.u.]:                        [  79.411800,   75.660691,   60.570688]
  Total <r^2> [a.u.]:                                               215.643179

  V1^2 = 0.0242, V2^2 = 0.9758

  Important amplitudes:
      occ i      occ j       vir a       vir b          v   
    ---------------------------------------------------------
     5 (A1) A   5 (A1) B    7 (A1) A    2 (B2) B      0.3398
     5 (A1) A               2 (B2) A                 -0.1081
    ---------------------------------------------------------

  Density matrix analysis:
  ------------------------
  NOs
    Occupation of frontier NOs:
       0.9982   1.0101
    Number of electrons: 18.000000
    Number of unpaired electrons: n_u =  2.39268, n_u,nl =  2.06335
    NO participation ratio (PR_NO):  2.873320
  
  
  Mulliken Population Analysis
  Atom      Charge (e)              h+              e-           Del q
  --------------------------------------------------------------------
   1 C       -1.161437        0.150394       -0.996823       -0.846429
   2 C       -1.161437        0.150394       -0.996823       -0.846429
   3 H        0.068925       -0.005330        0.004034       -0.001296
   4 H        0.068938       -0.005330        0.004033       -0.001296
   5 H        0.068932       -0.005330        0.004033       -0.001296
   6 H        0.068919       -0.005330        0.004034       -0.001296
   7 H        1.047160        1.709032       -0.010988        1.698043
  --------------------------------------------------------------------
  Sum:       -1.000000        1.988501       -1.988501        0.000000
  
  Multipole moment analysis of the density matrix
    Molecular charge:                      -1.000000
    Number of electrons:                   18.000000
      Center of electronic charge [Ang]: [  0.000000,  -0.000000,  -0.347519]
    Total nuclear charge:                  17.000000
      Center of nuclear charge [Ang]:    [ -0.000000,  -0.000000,  -0.000000]
    Dipole moment [D]:                     30.045636
      Cartesian components [D]:          [ -0.000000,   0.000004,  30.045636]
    RMS size of the density [Ang]:         1.798339
      Cartesian components [Ang]:        [  1.111495,   1.084926,   0.906387]
  
  Exciton analysis of the difference density matrix
    <r_h> [Ang]:                  [  0.000000,  -0.000000,   3.799943]
    <r_e> [Ang]:                  [  0.000000,  -0.000000,  -0.981922]
    |<r_e - r_h>| [Ang]:            4.781865
    Hole size [Ang]:                1.581825
      Cartesian components [Ang]: [  0.786341,   0.787948,   1.123823]
    Electron size [Ang]:            4.136038
      Cartesian components [Ang]: [  2.077891,   2.724321,   2.316733]

  Transition density matrix analysis:
  -----------------------------------
  
  CT numbers (Mulliken)
    omega =     0.0250
    <Phe> =     0.0052
  
  Exciton analysis of the transition density matrix
    Trans. dipole moment [D]:             0.068061
      Cartesian components [D]:         [ -0.000000,   0.068061,  -0.000000]
    <r_h> [Ang]:                        [ -0.000000,   0.000000,   3.933552]
    <r_e> [Ang]:                        [  0.000000,  -0.000000,  -0.254422]
    |<r_e - r_h>| [Ang]:                  4.187974
    Hole size [Ang]:                      1.203488
      Cartesian components [Ang]:       [  0.613137,   0.612715,   0.834881]
    Electron size [Ang]:                  4.496097
      Cartesian components [Ang]:       [  2.066040,   3.461942,   1.990309]
    RMS electron-hole separation [Ang]:   6.256706
      Cartesian components [Ang]:       [  2.152318,   3.513090,   4.708725]
    Covariance(r_h, r_e) [Ang^2]:         0.028017
    Correlation coefficient:              0.005178
    Center-of-mass size [Ang]:            2.330199
      Cartesian components [Ang]:       [  1.078940,   1.759199,   1.082098]

  Decomposition into state-averaged NTOs
    H- 0 -> L+ 0:  0.0987 (  1.9%)
                   omega =   2.5%
  ----------------------------------------------------------------------------


  Excited state 10 (singlet, B2)                                    [converged]
  ----------------------------------------------------------------------------
  Term symbol:  10 (1) B2                                   R^2 =  1.09329e-07

  Total energy:                                            -78.4103916974 a.u.
  Excitation energy:                                              10.651868 eV

  Osc. strength:                                                      0.000057
  Trans. dip. moment [a.u.]:           [   0.000000,   -0.014726,    0.000000]
  <i|r^2|0> [a.u.]:                    [  -0.000000,   -0.000000,   -0.000000]

  Dip. moment [a.u.]:                  [   0.000000,    0.000001,    7.085025]
  Total dipole [Debye]:                                              18.008341
  <r^2> [a.u.]:                        [ 123.232490,   71.005690,   53.475012]
  Total <r^2> [a.u.]:                                               247.713192

  V1^2 = 0.0004, V2^2 = 0.9996

  Important amplitudes:
      occ i      occ j       vir a       vir b          v   
    ---------------------------------------------------------
     5 (A1) A   5 (A1) B    2 (A2) A    4 (B1) B      0.3532
     5 (A1) A   5 (A1) B    7 (A1) A    2 (B2) B      0.0123
    ---------------------------------------------------------

  Density matrix analysis:
  ------------------------
  NOs
    Occupation of frontier NOs:
       0.9982   1.0002
    Number of electrons: 18.000000
    Number of unpaired electrons: n_u =  2.41136, n_u,nl =  2.06941
    NO participation ratio (PR_NO):  2.887671
  
  
  Mulliken Population Analysis
  Atom      Charge (e)              h+              e-           Del q
  --------------------------------------------------------------------
   1 C       -1.063421        0.162134       -0.910547       -0.748413
   2 C       -1.063421        0.162134       -0.910547       -0.748413
   3 H        0.021328       -0.004248       -0.044644       -0.048893
   4 H        0.021342       -0.004248       -0.044644       -0.048893
   5 H        0.021336       -0.004248       -0.044644       -0.048893
   6 H        0.021322       -0.004248       -0.044644       -0.048893
   7 H        1.041513        1.692403       -0.000006        1.692397
  --------------------------------------------------------------------
  Sum:       -1.000000        1.999677       -1.999677        0.000000
  
  Multipole moment analysis of the density matrix
    Molecular charge:                      -1.000000
    Number of electrons:                   18.000000
      Center of electronic charge [Ang]: [ -0.000000,  -0.000000,  -0.208291]
    Total nuclear charge:                  17.000000
      Center of nuclear charge [Ang]:    [ -0.000000,  -0.000000,  -0.000000]
    Dipole moment [D]:                     18.008335
      Cartesian components [D]:          [  0.000000,   0.000002,  18.008335]
    RMS size of the density [Ang]:         1.952005
      Cartesian components [Ang]:        [  1.384610,   1.051021,   0.887994]
  
  Exciton analysis of the difference density matrix
    <r_h> [Ang]:                  [  0.000000,  -0.000000,   3.770697]
    <r_e> [Ang]:                  [ -0.000000,   0.000000,   0.268809]
    |<r_e - r_h>| [Ang]:            3.501888
    Hole size [Ang]:                1.686125
      Cartesian components [Ang]: [  0.813607,   0.812256,   1.233411]
    Electron size [Ang]:            4.754243
      Cartesian components [Ang]: [  3.236834,   2.602103,   2.314042]

  Transition density matrix analysis:
  -----------------------------------
  
  CT numbers (Mulliken)
    omega =     0.0005
    <Phe> =     0.0214
  
  Exciton analysis of the transition density matrix
    Trans. dipole moment [D]:             0.018715
      Cartesian components [D]:         [  0.000000,  -0.018715,   0.000000]
    <r_h> [Ang]:                        [ -0.000000,   0.000000,   3.326658]
    <r_e> [Ang]:                        [  0.000000,   0.000000,  -0.250906]
    |<r_e - r_h>| [Ang]:                  3.577564
    Hole size [Ang]:                      2.448869
      Cartesian components [Ang]:       [  1.400849,   1.069284,   1.700357]
    Electron size [Ang]:                  4.598089
      Cartesian components [Ang]:       [  2.403110,   3.403705,   1.944809]
    RMS electron-hole separation [Ang]:   6.498635
      Cartesian components [Ang]:       [  3.172102,   3.561711,   4.414095]
    Covariance(r_h, r_e) [Ang^2]:        -1.146950
    Correlation coefficient:             -0.101860
    Center-of-mass size [Ang]:            2.492262
      Cartesian components [Ang]:       [  1.163228,   1.786852,   1.290516]

  Decomposition into state-averaged NTOs
                   omega =   0.0%
  ----------------------------------------------------------------------------


--------------------------------------------------------------------------------
  Time of ADC calculation:  CPU 1351.91 s  wall 280.50 s
================================================================================
 
 --------------------------------------------------------------
             Orbital Energies (a.u.) and Symmetries
 --------------------------------------------------------------
 
 Alpha MOs, Restricted
 -- Occupied --                  
-11.113 -11.111  -0.916  -0.658  -0.536  -0.443  -0.392  -0.249
  1 A1    1 B1    2 A1    2 B1    1 B2    3 A1    1 A2    4 A1                 
 -0.013
  5 A1                                                                         
 -- Virtual --                   
  0.142   0.159   0.166   0.171   0.179   0.194   0.264   0.271
  3 B1    2 B2    6 A1    2 A2    7 A1    4 B1    8 A1    5 B1                 
  0.311   0.351   0.363   0.366   0.370   0.388   0.420   0.462
  6 B1    3 B2    3 A2    7 B1    9 A1   10 A1   11 A1    4 B2                 
  0.464   0.483   0.648   0.707   0.905   0.980   0.987   1.027
  8 B1    9 B1    4 A2   10 B1   12 A1    5 B2   13 A1    6 B2                 
  1.049   1.075   1.107   1.149   1.162   1.167   1.188   1.240
 11 B1   14 A1   15 A1   12 B1   16 A1   13 B1    5 A2    7 B2                 
  1.407   1.409   1.412   1.484   1.738   1.741   1.835   1.905
 14 B1    6 A2   17 A1    7 A2   18 A1    8 A2    8 B2    9 B2                 
  1.911   1.920   1.987   2.056   2.066   2.141   2.153   2.194
 15 B1   19 A1   16 B1   17 B1   20 A1   10 B2   21 A1   11 B2                 
  2.301   2.448   2.537   2.579   2.696   2.700   2.925   2.934
 18 B1   19 B1    9 A2   22 A1   20 B1   10 A2   12 B2   23 A1                 
  3.361   3.463
 21 B1   11 A2                                                                 
 
 Beta MOs, Restricted
 -- Occupied --                  
-11.113 -11.111  -0.916  -0.658  -0.536  -0.443  -0.392  -0.249
  1 A1    1 B1    2 A1    2 B1    1 B2    3 A1    1 A2    4 A1                 
 -0.013
  5 A1                                                                         
 -- Virtual --                   
  0.142   0.159   0.166   0.171   0.179   0.194   0.264   0.271
  3 B1    2 B2    6 A1    2 A2    7 A1    4 B1    8 A1    5 B1                 
  0.311   0.351   0.363   0.366   0.370   0.388   0.420   0.462
  6 B1    3 B2    3 A2    7 B1    9 A1   10 A1   11 A1    4 B2                 
  0.464   0.483   0.648   0.707   0.905   0.980   0.987   1.027
  8 B1    9 B1    4 A2   10 B1   12 A1    5 B2   13 A1    6 B2                 
  1.049   1.075   1.107   1.149   1.162   1.167   1.188   1.240
 11 B1   14 A1   15 A1   12 B1   16 A1   13 B1    5 A2    7 B2                 
  1.407   1.409   1.412   1.484   1.738   1.741   1.835   1.905
 14 B1    6 A2   17 A1    7 A2   18 A1    8 A2    8 B2    9 B2                 
  1.911   1.920   1.987   2.056   2.066   2.141   2.153   2.194
 15 B1   19 A1   16 B1   17 B1   20 A1   10 B2   21 A1   11 B2                 
  2.301   2.448   2.537   2.579   2.696   2.700   2.925   2.934
 18 B1   19 B1    9 A2   22 A1   20 B1   10 A2   12 B2   23 A1                 
  3.361   3.463
 21 B1   11 A2                                                                 
 --------------------------------------------------------------
 
          Ground-State Mulliken Net Atomic Charges

     Atom                 Charge (a.u.)
  ----------------------------------------
      1 C                    -0.278018
      2 C                    -0.278018
      3 H                     0.062360
      4 H                     0.062374
      5 H                     0.062369
      6 H                     0.062355
      7 H                    -0.693422
  ----------------------------------------
  Sum of atomic charges =    -1.000000

 -----------------------------------------------------------------
                    Cartesian Multipole Moments
 -----------------------------------------------------------------
    Charge (ESU x 10^10)
                -4.8032
    Dipole Moment (Debye)
         X      -0.0000      Y       0.0000      Z     -16.1651
       Tot      16.1651
    Quadrupole Moments (Debye-Ang)
        XX     -19.5706     XY       0.0000     YY     -18.5028
        XZ       0.0000     YZ      -0.0000     ZZ     -89.3575
    Octopole Moments (Debye-Ang^2)
       XXX      -0.0000    XXY       0.0000    XYY      -0.0000
       YYY       0.0000    XXZ     -13.0265    XYZ       0.0000
       YYZ     -14.3872    XZZ      -0.0000    YZZ       0.0000
       ZZZ    -282.3855
    Hexadecapole Moments (Debye-Ang^3)
      XXXX     -99.4517   XXXY       0.0000   XXYY     -23.2210
      XYYY      -0.0000   YYYY     -55.5102   XXXZ       0.0000
      XXYZ      -0.0000   XYYZ       0.0000   YYYZ      -0.0000
      XXZZ    -101.7268   XYZZ      -0.0000   YYZZ     -93.6266
      XZZZ       0.0000   YZZZ      -0.0000   ZZZZ   -1457.5529
 -----------------------------------------------------------------
 Total job time:  363.08s(wall), 1396.11s(cpu) 
 Fri Mar 25 22:21:23 2022

        *************************************************************
        *                                                           *
        *  Thank you very much for using Q-Chem.  Have a nice day.  *
        *                                                           *
        *************************************************************


