/src/tsommerfeld/qchem/exe/qcprog.exe .input1.527778.10747.qcin.1 /src/jdavis/qchem.scratch/qchem10747/

                  Welcome to Q-Chem
     A Quantum Leap Into The Future Of Chemistry


 Q-Chem 5.4 (devel), Q-Chem, Inc., Pleasanton, CA (2021)

 E. Epifanovsky,  A. T. B. Gilbert,  Xintian Feng,  Joonho Lee,  Yuezhi Mao,  
 N. Mardirossian,  P. Pokhilko,  A. White,  M. Wormit,  M. P. Coons,  
 A. L. Dempwolff,  Zhengting Gan,  D. Hait,  P. R. Horn,  L. D. Jacobson,  
 I. Kaliman,  J. Kussmann,  A. W. Lange,  Ka Un Lao,  D. S. Levine,  Jie Liu,  
 S. C. McKenzie,  A. F. Morrison,  K. Nanda,  F. Plasser,  D. R. Rehn,  
 M. L. Vidal,  Zhi-Qiang You,  Ying Zhu,  B. Alam,  B. Albrecht,  
 A. Aldossary,  E. Alguire,  J. H. Andersen,  D. Barton,  K. Begam,  A. Behn,  
 Y. A. Bernard,  E. J. Berquist,  H. Burton,  A. Carreras,  K. Carter-Fenk,  
 R. Chakraborty,  A. D. Chien,  K. D. Closser,  V. Cofer-Shabica,  
 S. Dasgupta,  Jia Deng,  M. de Wergifosse,  M. Diedenhofen,  Hainam Do,  
 S. Ehlert,  Po-Tung Fang,  S. Fatehi,  Qingguo Feng,  T. Friedhoff,  
 J. Gayvert,  Qinghui Ge,  G. Gidofalvi,  M. Goldey,  J. Gomes,  
 C. Gonzalez-Espinoza,  S. Gulania,  A. Gunina,  M. W. D. Hanson-Heine,  
 P. H. P. Harbach,  A. W. Hauser,  M. F. Herbst,  M. Hernandez Vera,  
 M. Hodecker,  Z. C. Holden,  S. Houck,  Xunkun Huang,  Kerwin Hui,  
 B. C. Huynh,  M. Ivanov,  Hyunjun Ji,  Hanjie Jiang,  B. Kaduk,  S. Kaehler,  
 K. Khistyaev,  Jaehoon Kim,  P. Klunzinger,  Z. Koczor-Benda,  
 Joong Hoon Koh,  D. Kosenkov,  L. Koulias,  T. Kowalczyk,  C. M. Krauter,  
 K. Kue,  A. Kunitsa,  T. Kus,  A. Landau,  K. V. Lawler,  D. Lefrancois,  
 S. Lehtola,  Rain Li,  Yi-Pei Li,  Jiashu Liang,  M. Liebenthal,  
 Hung-Hsuan Lin,  You-Sheng Lin,  Fenglai Liu,  Kuan-Yu Liu,  
 M. Loipersberger,  A. Luenser,  A. Manjanath,  P. Manohar,  E. Mansoor,  
 S. F. Manzer,  Shan-Ping Mao,  A. V. Marenich,  T. Markovich,  S. Mason,  
 S. A. Maurer,  P. F. McLaughlin,  M. F. S. J. Menger,  J.-M. Mewes,  
 S. A. Mewes,  P. Morgante,  J. W. Mullinax,  K. J. Oosterbaan,  G. Paran,  
 Alexander C. Paul,  Suranjan K. Paul,  F. Pavosevic,  Zheng Pei,  S. Prager,  
 E. I. Proynov,  E. Ramos,  B. Rana,  A. E. Rask,  A. Rettig,  R. M. Richard,  
 F. Rob,  E. Rossomme,  T. Scheele,  M. Scheurer,  M. Schneider,  
 N. Sergueev,  S. M. Sharada,  W. Skomorowski,  D. W. Small,  C. J. Stein,  
 Yu-Chuan Su,  E. J. Sundstrom,  Zhen Tao,  J. Thirman,  T. Tsuchimochi,  
 N. M. Tubman,  S. P. Veccham,  O. Vydrov,  J. Wenzel,  J. Witte,  A. Yamada,  
 Kun Yao,  S. Yeganeh,  S. R. Yost,  A. Zech,  Igor Ying Zhang,  Xing Zhang,  
 Yu Zhang,  D. Zuev,  A. Aspuru-Guzik,  A. T. Bell,  N. A. Besley,  
 K. B. Bravaya,  B. R. Brooks,  D. Casanova,  Jeng-Da Chai,  S. Coriani,  
 C. J. Cramer,  A. E. DePrince, III,  R. A. DiStasio Jr.,  A. Dreuw,  
 B. D. Dunietz,  T. R. Furlani,  W. A. Goddard III,  S. Grimme,  
 S. Hammes-Schiffer,  T. Head-Gordon,  W. J. Hehre,  Chao-Ping Hsu,  
 T.-C. Jagau,  Yousung Jung,  A. Klamt,  Jing Kong,  D. S. Lambrecht,  
 WanZhen Liang,  N. J. Mayhall,  C. W. McCurdy,  J. B. Neaton,  
 C. Ochsenfeld,  J. A. Parkhill,  R. Peverati,  V. A. Rassolov,  Yihan Shao,  
 L. V. Slipchenko,  T. Stauch,  R. P. Steele,  J. E. Subotnik,  
 A. J. W. Thom,  A. Tkatchenko,  D. G. Truhlar,  T. Van Voorhis,  
 T. A. Wesolowski,  K. B. Whaley,  H. L. Woodcock III,  P. M. Zimmerman,  
 S. Faraji,  P. M. W. Gill,  M. Head-Gordon,  J. M. Herbert,  A. I. Krylov

 Additional authors for Version 5.4.1: 
 S. Kotaru,  Shaozhi Li,  Xiangyuan Li,  F. Matz,  A. Molle,  Haisheng Ren,  
 Yingli Su,  Hung-Yi Tsai,  C. Utku,  Fang Wang

 Contributors to earlier versions of Q-Chem not listed above: 
 R. D. Adamson,  B. Austin,  R. Baer,  J. Baker,  G. J. O. Beran,  
 K. Brandhorst,  S. T. Brown,  E. F. C. Byrd,  A. K. Chakraborty,  
 G. K. L. Chan,  Chun-Min Chang,  Yunqing Chen,  C.-L. Cheng,  
 Siu Hung Chien,  D. M. Chipman,  D. L. Crittenden,  H. Dachsel,  
 R. J. Doerksen,  A. D. Dutoi,  R. G. Edgar,  J. Fosso-Tande,  
 L. Fusti-Molnar,  D. Ghosh,  A. Ghysels,  A. Golubeva-Zadorozhnaya,  
 J. Gonthier,  M. S. Gordon,  S. R. Gwaltney,  G. Hawkins,  J. E. Herr,  
 A. Heyden,  S. Hirata,  E. G. Hohenstein,  G. Kedziora,  F. J. Keil,  
 C. Kelley,  Jihan Kim,  R. A. King,  R. Z. Khaliullin,  P. P. Korambath,  
 W. Kurlancheek,  A. Laurent,  A. M. Lee,  M. S. Lee,  S. V. Levchenko,  
 Ching Yeh Lin,  D. Liotard,  E. Livshits,  R. C. Lochan,  I. Lotan,  
 L. A. Martinez-Martinez,  P. E. Maslen,  N. Nair,  D. P. O'Neill,  
 D. Neuhauser,  E. Neuscamman,  C. M. Oana,  R. Olivares-Amaya,  R. Olson,  
 T. M. Perrine,  B. Peters,  P. A. Pieniazek,  A. Prociuk,  Y. M. Rhee,  
 J. Ritchie,  M. A. Rohrdanz,  E. Rosta,  N. J. Russ,  H. F. Schaefer III,  
 M. W. Schmidt,  N. E. Schultz,  S. Sharma,  N. Shenvi,  C. D. Sherrill,  
 A. C. Simmonett,  A. Sodt,  T. Stein,  D. Stuck,  K. S. Thanthiriwatte,  
 V. Vanovschi,  L. Vogt,  Tao Wang,  A. Warshel,  M. A. Watson,  
 C. F. Williams,  Q. Wu,  X. Xu,  Jun Yang,  W. Zhang,  Yan Zhao

 Please cite Q-Chem as follows:
 Y. Shao et al., Mol. Phys. 113, 184-215 (2015)
 DOI: 10.1080/00268976.2014.952696

 Q-Chem 5.4.1 for Intel X86 EM64T Linux

 Parts of Q-Chem use Armadillo 9.900.5 (Nocturnal Misbehaviour).
 http://arma.sourceforge.net/

 Q-Chem begins on Fri Mar 25 23:33:34 2022  

 Host: node01
0

     Scratch files written to /src/jdavis/qchem.scratch/qchem10747//
 Processing $rem in /src/tsommerfeld/qchem/config/preferences:
 Processing $rem in /home/jdavis/.qchemrc:

 Checking the input file for inconsistencies... 	...done.

--------------------------------------------------------------
User input:
--------------------------------------------------------------
$molecule
-1 1
C         0.0000003663    0.4438502432    0.6645000000
C         0.0000003663    0.4438502432   -0.6645000000
H        -0.9623486337    0.4438522630    1.1590800000
H        -0.9623486337    0.4438522630   -1.1590800000
H         0.9623483663    0.4438482235    1.1590800000
H         0.9623483663    0.4438482235   -1.1590800000
H        -0.0000038605   -3.8477690721    0.0000000000
$end

$rem
   METHOD adc(2)
   BASIS gen
   PURECART 11
   EE_STATES [0,0,0,10]
   scf_convergence 8
   ADC_DAVIDSON_MAXITER 120
   ADC_DAVIDSON_MAXSUBSPACE 200
   adc_nguess_singles 100
   THRESH 14
   S2THRESH 14
   adc_davidson_conv 5
   adc_davidson_thresh 14
   THREADS 10
   MEM_TOTAL 95000
   STATE_ANALYSIS TRUE
$end
$basis
C 1
S   9   1.00
      6.665000D+03           6.920000D-04
      1.000000D+03           5.329000D-03
      2.280000D+02           2.707700D-02
      6.471000D+01           1.017180D-01
      2.106000D+01           2.747400D-01
      7.495000D+00           4.485640D-01
      2.797000D+00           2.850740D-01
      5.215000D-01           1.520400D-02
      1.596000D-01          -3.191000D-03
S   9   1.00
      6.665000D+03          -1.460000D-04
      1.000000D+03          -1.154000D-03
      2.280000D+02          -5.725000D-03
      6.471000D+01          -2.331200D-02
      2.106000D+01          -6.395500D-02
      7.495000D+00          -1.499810D-01
      2.797000D+00          -1.272620D-01
      5.215000D-01           5.445290D-01
      1.596000D-01           5.804960D-01
S   1   1.00
      1.596000D-01           1.000000D+00
S   1   1.00
      0.0469000              1.0000000
P   4   1.00
      9.439000D+00           3.810900D-02
      2.002000D+00           2.094800D-01
      5.456000D-01           5.085570D-01
      1.517000D-01           4.688420D-01
P   1   1.00
      1.517000D-01           1.000000D+00
P   1   1.00
      0.0927056      1.0000000
P   1   1.00
      0.0463528      1.0000000
D   1   1.00
      5.500000D-01           1.0000000
****
C 2
S   9   1.00
      6.665000D+03           6.920000D-04
      1.000000D+03           5.329000D-03
      2.280000D+02           2.707700D-02
      6.471000D+01           1.017180D-01
      2.106000D+01           2.747400D-01
      7.495000D+00           4.485640D-01
      2.797000D+00           2.850740D-01
      5.215000D-01           1.520400D-02
      1.596000D-01          -3.191000D-03
S   9   1.00
      6.665000D+03          -1.460000D-04
      1.000000D+03          -1.154000D-03
      2.280000D+02          -5.725000D-03
      6.471000D+01          -2.331200D-02
      2.106000D+01          -6.395500D-02
      7.495000D+00          -1.499810D-01
      2.797000D+00          -1.272620D-01
      5.215000D-01           5.445290D-01
      1.596000D-01           5.804960D-01
S   1   1.00
      1.596000D-01           1.000000D+00
S   1   1.00
      0.0469000              1.0000000
P   4   1.00
      9.439000D+00           3.810900D-02
      2.002000D+00           2.094800D-01
      5.456000D-01           5.085570D-01
      1.517000D-01           4.688420D-01
P   1   1.00
      1.517000D-01           1.000000D+00
P   1   1.00
      0.0927056      1.0000000
P   1   1.00
      0.0463528      1.0000000
D   1   1.00
      5.500000D-01           1.0000000
****
H 3
cc-pVDZ
****
H 4
cc-pVDZ
****
H 5
cc-pVDZ
****
H 6
cc-pVDZ
****
H 7
aug-cc-pVDZ
****
$end
--------------------------------------------------------------
 Atom   2: (  0.6645000000,  0.0000002034, -0.2524481950)
         ->(  0.6645000000, -0.0000002034, -0.2524481950)
 Atom   1: ( -0.6645000000,  0.0000002034, -0.2524481950)
         ->( -0.6645000000,  0.0000000000, -0.2524481950)
 Atom   6: (  1.1590800000,  0.9623482034, -0.2524467961)
         ->(  1.1590800000,  0.9623487966, -0.2524495940)
 Atom   5: ( -1.1590800000,  0.9623482034, -0.2524467961)
         ->( -1.1590800000,  0.9623487966, -0.2524495940)
 Atom   7: ( -0.0000000000, -0.0000012548,  4.0391711203)
         ->(  0.0000000000,  0.0000000000,  4.0391711203)
 ----------------------------------------------------------------
             Standard Nuclear Orientation (Angstroms)
    I     Atom           X                Y                Z
 ----------------------------------------------------------------
    1      C      -0.6645000000     0.0000000000    -0.2524481950
    2      C       0.6645000000    -0.0000002034    -0.2524481950
    3      H      -1.1590800000    -0.9623487966    -0.2524495940
    4      H       1.1590800000    -0.9623487966    -0.2524495940
    5      H      -1.1590800000     0.9623487966    -0.2524495940
    6      H       1.1590800000     0.9623487966    -0.2524495940
    7      H       0.0000000000     0.0000000000     4.0391711203
 ----------------------------------------------------------------
 Molecular Point Group                 C2v   NOp =  4
 Largest Abelian Subgroup              C2v   NOp =  4
 Nuclear Repulsion Energy =          35.51682835 hartrees
 There are        9 alpha and        9 beta electrons
 Requested basis set is non-standard
 There are 33 shells and 67 basis functions
 Total memory of 95000 MB is distributed as follows: 
   MEM_STATIC is set to 192 MB
   QALLOC/CCMAN JOB total memory use is  94808 MB
 Warning: actual memory use might exceed 95000 MB

 Total QAlloc Memory Limit  95000 MB
 Mega-Array Size       188 MB
 MEM_STATIC part       192 MB

                       Distance Matrix (Angstroms)
             C (  1)   C (  2)   H (  3)   H (  4)   H (  5)   H (  6)
   C (  2)  1.329000
   H (  3)  1.082000  2.061931
   H (  4)  2.061931  1.082000  2.318160
   H (  5)  1.082000  2.061931  1.924698  3.013026
   H (  6)  2.061931  1.082000  3.013026  1.924698  2.318160
   H (  7)  4.342759  4.342759  4.548361  4.548361  4.548361  4.548361

 
 A cutoff of  1.0D-14 yielded    561 shell pairs
 There are      2337 function pairs (      2484 Cartesian)
 Smallest overlap matrix eigenvalue = 1.87E-04

 Scale SEOQF with 1.000000e-01/1.000000e-01/1.000000e-01

 Standard Electronic Orientation quadrupole field applied
 Nucleus-field energy     =    -0.0000000012 hartrees
 ================ Generating on-the-fly SAD Guess ================
Attempting to make child job directory: /src/jdavis/qchem.scratch/qchem10747//Frg1/
Attempting to make child job directory: /src/jdavis/qchem.scratch/qchem10747//Frg2/
Creating input file /src/jdavis/qchem.scratch/qchem10747/Frg1.input
using default PutDataFrgm: nothing
calling putenv with: QCSCRATCH=/src/jdavis/qchem.scratch/qchem10747/ 
Spawning Job For Fragment 0
Done Job For Fragment 0
calling putenv with: QCSCRATCH=/src/jdavis/qchem.scratch 
calling putenv with: QCTHREADS=1 
Creating input file /src/jdavis/qchem.scratch/qchem10747/Frg2.input
using default PutDataFrgm: nothing
calling putenv with: QCSCRATCH=/src/jdavis/qchem.scratch/qchem10747/ 
Spawning Job For Fragment 1
Done Job For Fragment 1
calling putenv with: QCSCRATCH=/src/jdavis/qchem.scratch 
calling putenv with: QCTHREADS=1 
 Time for running child jobs:  CPU 1.76 s  wall 54.24 s
 ============= Method Specific SAD Guess Constructed =============
 Guess from on-the-fly superposition of atomic densities
 Warning: Energy on first SCF cycle will be non-variational
 A restricted Hartree-Fock SCF calculation will be
 performed using Pulay DIIS extrapolation
 SCF converges when DIIS error is below 1.0E-08
 using 10 threads for integral computing
 -------------------------------------------------------
 OpenMP Integral computing Module                
 Release: version 1.0, May 2013, Q-Chem Inc. Pittsburgh 
 -------------------------------------------------------
 ---------------------------------------
  Cycle       Energy         DIIS Error
 ---------------------------------------
    1     -78.8023003325      7.36E-02
    2     -78.4462375274      6.68E-03
    3     -78.4916480709      1.56E-03
    4     -78.4943891211      5.19E-04
    5     -78.4946759173      1.11E-04
    6     -78.4947070198      2.26E-05
    7     -78.4947091513      7.00E-06
    8     -78.4947094955      9.70E-07
    9     -78.4947095181      2.74E-07
   10     -78.4947095218      3.33E-08
   11     -78.4947095214      5.12E-09 Convergence criterion met
 ---------------------------------------
 SCF time:  CPU 10.14 s  wall 1.02 s
 SCF   energy in the final basis set = -78.49470952
 Total energy in the final basis set = -78.49470952
================================================================================
|                                                                              |
|                                 A D C  M A N                                 |
|                                                                              |
 ------------------------------------------------------------------------------ 
|                                                                              |
| Components:                                                                  |
|                                                                              |
| - libvmm - 1.3-trunk                                                         |
|   Authors:                                                                   |
|   Evgeny Epifanovsky, Ilya Kaliman                                           |
|                                                                              |
| - libtensor - 2.5-trunk                                                      |
|   Authors:                                                                   |
|   Evgeny Epifanovsky, Michael Wormit, Dmitry Zuev, Sam Manzer,               |
|   Ilya Kaliman                                                               |
|                                                                              |
| - libwfa - 1.1-trunk                                                         |
|   Authors:                                                                   |
|   Felix Plasser, Stefanie Mewes (Baeppler), Benjamin Thomitzni,              |
|   Michael Wormit, Feng Chen, Anna I. Krylov, Pavel Pokhilko                  |
|                                                                              |
| - libadc - 1.1-trunk                                                         |
|   Authors:                                                                   |
|   Michael Wormit, Adrian L. Dempwolff, Philipp H. P. Harbach,                |
|   Caroline Krauter, Dirk Rehn, Matthias Schneider, Jan Wenzel                |
|                                                                              |
| - adcman - 2.6-trunk                                                         |
|   Authors:                                                                   |
|   Michael Wormit, Adrian L. Dempwolff, Philipp H. P. Harbach,                |
|   Caroline Krauter, Daniel Lefrancois, Jan-Michael Mewes, Dirk Rehn,         |
|   Matthias Schneider, Jan Wenzel, Andreas Dreuw                              |
|                                                                              |
| Authors of earlier versions of ADCMAN:                                       |
| Andreas Dreuw, Jan Hendrik Starcke, Dirk Rehn, Michael Wormit                |
|                                                                              |
================================================================================

 
 Alpha MOs, Restricted
 -- Occupied --                  
-11.111 -11.109  -0.914  -0.656  -0.535  -0.442  -0.391  -0.247
  1 A1    1 B1    2 A1    2 B1    1 B2    3 A1    1 A2    4 A1                 
 -0.000
  5 A1                                                                         
 -- Virtual --                   
  0.182   0.191   0.205   0.229   0.232   0.234   0.306   0.320
  3 B1    6 A1    2 B2    4 B1    7 A1    2 A2    8 A1    5 B1                 
  0.339   0.405   0.445   0.463   0.477   0.500   0.507   0.536
  6 B1    9 A1    3 B2    7 B1    8 B1   10 A1    4 B2    3 A2                 
  0.542   0.618   0.672   0.745   0.965   0.970   1.051   1.083
 11 A1    9 B1    4 A2   10 B1   12 A1    5 B2   11 B1   13 A1                 
  1.116   1.153   1.222   1.240   1.249   1.274   1.322   1.366
 14 A1    5 A2   15 A1    6 B2    7 B2   12 B1   16 A1   13 B1                 
  1.411   1.430   1.466   1.609   1.753   1.864   1.877   1.928
  6 A2   17 A1   14 B1    7 A2   18 A1    8 B2    8 A2    9 B2                 
  1.935   1.945   2.007   2.071   2.095   2.143   2.216   2.228
 15 B1   19 A1   16 B1   20 A1   17 B1   10 B2   21 A1   11 B2                 
  2.312   2.461   2.539   2.606   2.680   2.706   2.991   2.993
 18 B1   19 B1    9 A2   22 A1   10 A2   20 B1   23 A1   12 B2                 
  3.411   3.476
 21 B1   11 A2                                                                 
 
 Beta MOs, Restricted
 -- Occupied --                  
-11.111 -11.109  -0.914  -0.656  -0.535  -0.442  -0.391  -0.247
  1 A1    1 B1    2 A1    2 B1    1 B2    3 A1    1 A2    4 A1                 
 -0.000
  5 A1                                                                         
 -- Virtual --                   
  0.182   0.191   0.205   0.229   0.232   0.234   0.306   0.320
  3 B1    6 A1    2 B2    4 B1    7 A1    2 A2    8 A1    5 B1                 
  0.339   0.405   0.445   0.463   0.477   0.500   0.507   0.536
  6 B1    9 A1    3 B2    7 B1    8 B1   10 A1    4 B2    3 A2                 
  0.542   0.618   0.672   0.745   0.965   0.970   1.051   1.083
 11 A1    9 B1    4 A2   10 B1   12 A1    5 B2   11 B1   13 A1                 
  1.116   1.153   1.222   1.240   1.249   1.274   1.322   1.366
 14 A1    5 A2   15 A1    6 B2    7 B2   12 B1   16 A1   13 B1                 
  1.411   1.430   1.466   1.609   1.753   1.864   1.877   1.928
  6 A2   17 A1   14 B1    7 A2   18 A1    8 B2    8 A2    9 B2                 
  1.935   1.945   2.007   2.071   2.095   2.143   2.216   2.228
 15 B1   19 A1   16 B1   20 A1   17 B1   10 B2   21 A1   11 B2                 
  2.312   2.461   2.539   2.606   2.680   2.706   2.991   2.993
 18 B1   19 B1    9 A2   22 A1   10 A2   20 B1   23 A1   12 B2                 
  3.411   3.476
 21 B1   11 A2                                                                 

--------------------------------------------------------------------------------
                                   HF Summary                                   
--------------------------------------------------------------------------------
  Energy:                                                  -78.4947095214 a.u.
  Dip. moment [a.u.]:                  [   0.000000,    0.000001,   -6.688755]
  Total dipole [Debye]:                                              17.001123
  <r^2> [a.u.]:                        [  51.675523,   25.912199,  128.159487]
  Total <r^2> [a.u.]:                                               205.747208
--------------------------------------------------------------------------------

--------------------------------------------------------------------------------
                                 MP(2) Summary                                  
--------------------------------------------------------------------------------
  MP energy contribution:                                   -0.3027375422 a.u.
  Total energy:                                            -78.7974470636 a.u.
  Dip. moment [a.u.]:                  [   0.000000,    0.000001,   -6.610574]
  Total dipole [Debye]:                                              16.802408
  <r^2> [a.u.]:                        [  51.892547,   26.017314,  127.093550]
  Total <r^2> [a.u.]:                                               205.003410

  Density matrix analysis:
  ------------------------
  NOs
    Occupation of frontier NOs:
       0.0455   1.9360
    Number of electrons: 18.000000
    Number of unpaired electrons: n_u =  0.44971, n_u,nl =  0.04913
    NO participation ratio (PR_NO): 15.797297
  
  
  Mulliken Population Analysis
  Atom      Charge (e)              h+              e-           Del q
  --------------------------------------------------------------------
   1 C       -0.299188        0.088076       -0.115985       -0.027909
   2 C       -0.299188        0.088076       -0.115985       -0.027909
   3 H        0.096650        0.018409       -0.009661        0.008748
   4 H        0.096678        0.018409       -0.009662        0.008747
   5 H        0.096668        0.018409       -0.009662        0.008748
   6 H        0.096640        0.018409       -0.009661        0.008748
   7 H       -0.788260        0.040691       -0.019864        0.020827
  --------------------------------------------------------------------
  Sum:       -1.000000        0.290480       -0.290480        0.000000
  
  Multipole moment analysis of the density matrix
    Molecular charge:                      -1.000000
    Number of electrons:                   18.000000
      Center of electronic charge [Ang]: [ -0.000000,  -0.000000,   0.194342]
    Total nuclear charge:                  17.000000
      Center of nuclear charge [Ang]:    [ -0.000000,  -0.000000,  -0.000000]
    Dipole moment [D]:                     16.802403
      Cartesian components [D]:          [  0.000000,   0.000002, -16.802403]
    RMS size of the density [Ang]:         1.775246
      Cartesian components [Ang]:        [  0.898499,   0.636204,   1.392639]
  
  Exciton analysis of the difference density matrix
    <r_h> [Ang]:                  [  0.000000,  -0.000000,   0.294195]
    <r_e> [Ang]:                  [ -0.000000,   0.000000,   0.151771]
    |<r_e - r_h>| [Ang]:            0.142424
    Hole size [Ang]:                2.072976
      Cartesian components [Ang]: [  0.959922,   0.749045,   1.677710]
    Electron size [Ang]:            1.908850
      Cartesian components [Ang]: [  1.063328,   0.813881,   1.360383]
--------------------------------------------------------------------------------
  Starting Davidson for singlet states of irrep B2 ... 
--------------------------------------------------------------------------------
   It NVec Conv  Avg. Norm  Max. Norm  Conv. states           Remark
--------------------------------------------------------------------------------
       100    0  1.120e-01  4.453e-01  0.1191 n n n n n n n n Guess.
    1  110    0  8.809e-03  5.670e-02  0.0769 n n n n n n n n 
    2  120    0  1.266e-02  1.261e-01  0.0768 n n n n n n n n 
    3  130    1  1.155e-02  1.150e-01  0.0768 y n n n n n n n 
    4  140    6  8.976e-03  8.976e-02  0.0768 y y y y y n n y 
    5  150    8  1.679e-02  1.397e-01  0.0768 y y y y y y n n 
    6  160    8  4.495e-03  4.017e-02  0.0768 y y y y y y n n 
    7  170    8  2.640e-03  2.637e-02  0.0768 y y y y y y n n 
    8  180    8  1.751e-04  1.751e-03  0.0768 y y y y y y n n 
    9  190    7  6.019e-06  5.482e-05  0.0768 y y y y y y n n 
   10  200    2  1.156e-04  7.664e-04  0.0768 n n n y n n n n 
   11   20    6  9.089e-06  6.028e-05  0.0768 y y y y n y n n Subspace collapsed.
   12   30    9  1.470e-06  1.003e-05  0.0768 y y y y y y y y 
   13   40   10  2.252e-07  1.607e-06  0.0768 y y y y y y y y Converged.
--------------------------------------------------------------------------------
  Davidson Summary: 
 ------------------------------------------------------------
  State  0: excitation energy =   0.0768 a.u.   (converged)
  State  1: excitation energy =   0.2792 a.u.   (converged)
  State  2: excitation energy =   0.2824 a.u.   (converged)
  State  3: excitation energy =   0.3352 a.u.   (converged)
  State  4: excitation energy =   0.3574 a.u.   (converged)
  State  5: excitation energy =   0.3774 a.u.   (converged)
  State  6: excitation energy =   0.3971 a.u.   (converged)
  State  7: excitation energy =   0.4175 a.u.   (converged)
  State  8: excitation energy =   0.4248 a.u.   (converged)
  State  9: excitation energy =   0.4421 a.u.   (converged)
 ------------------------------------------------------------


--------------------------------------------------------------------------------
                   State-averaged natural transition orbitals
--------------------------------------------------------------------------------
--------------------------------------------------------------------------------

--------------------------------------------------------------------------------
                             Excited State Summary
--------------------------------------------------------------------------------
--------------------------------------------------------------------------------

  Excited state 1 (singlet, B2)                                    [converged]
  ----------------------------------------------------------------------------
  Term symbol:  1 (1) B2                                    R^2 =  5.72921e-08

  Total energy:                                            -78.7206494714 a.u.
  Excitation energy:                                               2.089769 eV

  Osc. strength:                                                      0.019431
  Trans. dip. moment [a.u.]:           [  -0.000002,   -0.616056,    0.000000]
  <i|r^2|0> [a.u.]:                    [   0.000000,   -0.000000,    0.000000]

  Dip. moment [a.u.]:                  [  -0.000000,    0.000000,    0.620965]
  Total dipole [Debye]:                                               1.578337
  <r^2> [a.u.]:                        [  58.770249,   48.627248,   83.249212]
  Total <r^2> [a.u.]:                                               190.646710

  V1^2 = 0.9386, V2^2 = 0.0614

  Important amplitudes:
      occ i      occ j       vir a       vir b          v   
    ---------------------------------------------------------
     5 (A1) A               2 (B2) A                  0.6833
     5 (A1) A   5 (A1) B    8 (A1) A    2 (B2) B      0.0562
    ---------------------------------------------------------

  Density matrix analysis:
  ------------------------
  NOs
    Occupation of frontier NOs:
       0.9944   0.9949
    Number of electrons: 18.000000
    Number of unpaired electrons: n_u =  2.42200, n_u,nl =  2.04988
    NO participation ratio (PR_NO):  2.945243
  
  
  Mulliken Population Analysis
  Atom      Charge (e)              h+              e-           Del q
  --------------------------------------------------------------------
   1 C       -0.680399        0.169704       -0.550915       -0.381211
   2 C       -0.680399        0.169704       -0.550915       -0.381211
   3 H        0.088181        0.003766       -0.012235       -0.008468
   4 H        0.088210        0.003767       -0.012234       -0.008468
   5 H        0.088200        0.003767       -0.012235       -0.008468
   6 H        0.088172        0.003767       -0.012235       -0.008469
   7 H        0.008034        0.829792       -0.033497        0.796295
  --------------------------------------------------------------------
  Sum:       -1.000000        1.184267       -1.184267       -0.000000
  
  Multipole moment analysis of the density matrix
    Molecular charge:                      -1.000000
    Number of electrons:                   18.000000
      Center of electronic charge [Ang]: [  0.000000,  -0.000000,  -0.018256]
    Total nuclear charge:                  17.000000
      Center of nuclear charge [Ang]:    [ -0.000000,  -0.000000,  -0.000000]
    Dipole moment [D]:                     1.578336
      Cartesian components [D]:          [ -0.000000,   0.000001,   1.578336]
    RMS size of the density [Ang]:         1.722087
      Cartesian components [Ang]:        [  0.956189,   0.869771,   1.137887]
  
  Exciton analysis of the difference density matrix
    <r_h> [Ang]:                  [  0.000000,  -0.000000,   3.214626]
    <r_e> [Ang]:                  [  0.000000,   0.000000,  -0.016711]
    |<r_e - r_h>| [Ang]:            3.231338
    Hole size [Ang]:                2.101072
      Cartesian components [Ang]: [  0.926521,   0.885094,   1.665134]
    Electron size [Ang]:            3.369466
      Cartesian components [Ang]: [  1.576301,   2.475818,   1.654963]

  Transition density matrix analysis:
  -----------------------------------
  
  CT numbers (Mulliken)
    omega =     0.9293
    <Phe> =     0.0011
  
  Exciton analysis of the transition density matrix
    Trans. dipole moment [D]:             0.782929
      Cartesian components [D]:         [ -0.000003,  -0.782929,   0.000000]
    <r_h> [Ang]:                        [  0.000000,  -0.000000,   3.824951]
    <r_e> [Ang]:                        [  0.000000,   0.000000,  -0.252365]
    |<r_e - r_h>| [Ang]:                  4.077316
    Hole size [Ang]:                      1.400692
      Cartesian components [Ang]:       [  0.743615,   0.730124,   0.935892]
    Electron size [Ang]:                  3.463241
      Cartesian components [Ang]:       [  1.619851,   2.658121,   1.518063]
    RMS electron-hole separation [Ang]:   5.529714
      Cartesian components [Ang]:       [  1.781700,   2.756377,   4.450357]
    Covariance(r_h, r_e) [Ang^2]:         0.001370
    Correlation coefficient:              0.000282
    Center-of-mass size [Ang]:            1.868068
      Cartesian components [Ang]:       [  0.891531,   1.378383,   0.891579]

  Decomposition into state-averaged NTOs
    H- 0 -> L+ 0: -0.6734 ( 90.7%)
    H- 0 -> L+ 1: -0.0917 (  1.7%)
                   omega =  92.9%
  ----------------------------------------------------------------------------


  Excited state 2 (singlet, B2)                                    [converged]
  ----------------------------------------------------------------------------
  Term symbol:  2 (1) B2                                    R^2 =  2.96075e-08

  Total energy:                                            -78.5182391213 a.u.
  Excitation energy:                                               7.597635 eV

  Osc. strength:                                                      0.007147
  Trans. dip. moment [a.u.]:           [   0.000003,    0.195943,   -0.000000]
  <i|r^2|0> [a.u.]:                    [  -0.000001,   -0.000000,    0.000002]

  Dip. moment [a.u.]:                  [  -0.000000,   -0.000000,   -0.495789]
  Total dipole [Debye]:                                               1.260169
  <r^2> [a.u.]:                        [  58.022111,   36.305973,   87.144327]
  Total <r^2> [a.u.]:                                               181.472411

  V1^2 = 0.9299, V2^2 = 0.0701

  Important amplitudes:
      occ i      occ j       vir a       vir b          v   
    ---------------------------------------------------------
     5 (A1) A               3 (B2) A                  0.6220
     4 (A1) A               2 (B2) A                 -0.2627
    ---------------------------------------------------------

  Density matrix analysis:
  ------------------------
  NOs
    Occupation of frontier NOs:
       0.8376   1.1300
    Number of electrons: 18.000000
    Number of unpaired electrons: n_u =  2.47591, n_u,nl =  2.18023
    NO participation ratio (PR_NO):  3.985276
  
  
  Mulliken Population Analysis
  Atom      Charge (e)              h+              e-           Del q
  --------------------------------------------------------------------
   1 C       -0.187432        0.219912       -0.108156        0.111756
   2 C       -0.187432        0.219912       -0.108156        0.111756
   3 H       -0.129059        0.004703       -0.230412       -0.225709
   4 H       -0.129031        0.004703       -0.230412       -0.225709
   5 H       -0.129041        0.004703       -0.230412       -0.225709
   6 H       -0.129068        0.004703       -0.230412       -0.225709
   7 H       -0.108937        0.702180       -0.022857        0.679324
  --------------------------------------------------------------------
  Sum:       -1.000000        1.160817       -1.160817       -0.000000
  
  Multipole moment analysis of the density matrix
    Molecular charge:                      -1.000000
    Number of electrons:                   18.000000
      Center of electronic charge [Ang]: [  0.000000,  -0.000000,   0.014575]
    Total nuclear charge:                  17.000000
      Center of nuclear charge [Ang]:    [ -0.000000,  -0.000000,  -0.000000]
    Dipole moment [D]:                     1.260169
      Cartesian components [D]:          [ -0.000000,  -0.000000,  -1.260169]
    RMS size of the density [Ang]:         1.680172
      Cartesian components [Ang]:        [  0.950083,   0.751543,   1.164261]
  
  Exciton analysis of the difference density matrix
    <r_h> [Ang]:                  [  0.000000,  -0.000000,   2.694966]
    <r_e> [Ang]:                  [  0.000000,   0.000000,  -0.092558]
    |<r_e - r_h>| [Ang]:            2.787524
    Hole size [Ang]:                2.338885
      Cartesian components [Ang]: [  0.891843,   0.817487,   2.001678]
    Electron size [Ang]:            2.654841
      Cartesian components [Ang]: [  1.507993,   1.774897,   1.274315]

  Transition density matrix analysis:
  -----------------------------------
  
  CT numbers (Mulliken)
    omega =     0.9144
    <Phe> =    -0.0012
  
  Exciton analysis of the transition density matrix
    Trans. dipole moment [D]:             0.249018
      Cartesian components [D]:         [  0.000003,   0.249018,  -0.000000]
    <r_h> [Ang]:                        [  0.000000,  -0.000000,   3.156881]
    <r_e> [Ang]:                        [  0.000000,   0.000000,  -0.251845]
    |<r_e - r_h>| [Ang]:                  3.408725
    Hole size [Ang]:                      2.053781
      Cartesian components [Ang]:       [  0.742289,   0.696361,   1.783846]
    Electron size [Ang]:                  2.644894
      Cartesian components [Ang]:       [  1.521037,   1.860097,   1.105419]
    RMS electron-hole separation [Ang]:   4.777417
      Cartesian components [Ang]:       [  1.690301,   1.985736,   4.002929]
    Covariance(r_h, r_e) [Ang^2]:         0.004592
    Correlation coefficient:              0.000845
    Center-of-mass size [Ang]:            1.675013
      Cartesian components [Ang]:       [  0.847345,   0.993304,   1.049295]

  Decomposition into state-averaged NTOs
    H- 0 -> L+ 1:  0.6127 ( 75.1%)
    H- 2 -> L+ 0: -0.2662 ( 14.2%)
    H- 0 -> L+ 0: -0.0845 (  1.4%)
                   omega =  91.4%
  ----------------------------------------------------------------------------


  Excited state 3 (singlet, B2)                                    [converged]
  ----------------------------------------------------------------------------
  Term symbol:  3 (1) B2                                    R^2 =  2.44811e-08

  Total energy:                                            -78.5150426416 a.u.
  Excitation energy:                                               7.684615 eV

  Osc. strength:                                                      0.006536
  Trans. dip. moment [a.u.]:           [  -0.000006,    0.186320,   -0.000000]
  <i|r^2|0> [a.u.]:                    [  -0.000000,    0.000000,    0.000001]

  Dip. moment [a.u.]:                  [  -0.000000,    0.000000,   -5.469655]
  Total dipole [Debye]:                                              13.902480
  <r^2> [a.u.]:                        [  57.159484,   43.713992,  121.663293]
  Total <r^2> [a.u.]:                                               222.536769

  V1^2 = 0.9476, V2^2 = 0.0524

  Important amplitudes:
      occ i      occ j       vir a       vir b          v   
    ---------------------------------------------------------
     4 (A1) A               2 (B2) A                  0.6164
     5 (A1) A               3 (B2) A                  0.2674
    ---------------------------------------------------------

  Density matrix analysis:
  ------------------------
  NOs
    Occupation of frontier NOs:
       0.8422   1.1259
    Number of electrons: 18.000000
    Number of unpaired electrons: n_u =  2.40694, n_u,nl =  2.13759
    NO participation ratio (PR_NO):  3.768828
  
  
  Mulliken Population Analysis
  Atom      Charge (e)              h+              e-           Del q
  --------------------------------------------------------------------
   1 C       -0.348621        0.470825       -0.520258       -0.049434
   2 C       -0.348621        0.470825       -0.520258       -0.049434
   3 H        0.085977        0.050679       -0.061352       -0.010673
   4 H        0.086005        0.050679       -0.061352       -0.010673
   5 H        0.085995        0.050679       -0.061352       -0.010673
   6 H        0.085967        0.050679       -0.061353       -0.010673
   7 H       -0.646701        0.144544       -0.002984        0.141560
  --------------------------------------------------------------------
  Sum:       -1.000000        1.288910       -1.288910       -0.000000
  
  Multipole moment analysis of the density matrix
    Molecular charge:                      -1.000000
    Number of electrons:                   18.000000
      Center of electronic charge [Ang]: [  0.000000,  -0.000000,   0.160801]
    Total nuclear charge:                  17.000000
      Center of nuclear charge [Ang]:    [ -0.000000,  -0.000000,  -0.000000]
    Dipole moment [D]:                     13.902475
      Cartesian components [D]:          [ -0.000000,   0.000000, -13.902475]
    RMS size of the density [Ang]:         1.853693
      Cartesian components [Ang]:        [  0.942994,   0.824660,   1.366337]
  
  Exciton analysis of the difference density matrix
    <r_h> [Ang]:                  [  0.000000,  -0.000000,   0.225227]
    <r_e> [Ang]:                  [  0.000000,   0.000000,  -0.243190]
    |<r_e - r_h>| [Ang]:            0.468418
    Hole size [Ang]:                2.052751
      Cartesian components [Ang]: [  0.968519,   0.759914,   1.642647]
    Electron size [Ang]:            2.831019
      Cartesian components [Ang]: [  1.443026,   2.102914,   1.228860]

  Transition density matrix analysis:
  -----------------------------------
  
  CT numbers (Mulliken)
    omega =     0.9189
    <Phe> =    -0.0023
  
  Exciton analysis of the transition density matrix
    Trans. dipole moment [D]:             0.236789
      Cartesian components [D]:         [ -0.000008,   0.236789,  -0.000000]
    <r_h> [Ang]:                        [  0.000000,  -0.000000,   0.361852]
    <r_e> [Ang]:                        [  0.000000,   0.000000,  -0.252509]
    |<r_e - r_h>| [Ang]:                  0.614362
    Hole size [Ang]:                      1.975488
      Cartesian components [Ang]:       [  0.758265,   0.555292,   1.737595]
    Electron size [Ang]:                  3.134419
      Cartesian components [Ang]:       [  1.564650,   2.364801,   1.335727]
    RMS electron-hole separation [Ang]:   3.752878
      Cartesian components [Ang]:       [  1.734399,   2.428316,   2.275794]
    Covariance(r_h, r_e) [Ang^2]:         0.010238
    Correlation coefficient:              0.001653
    Center-of-mass size [Ang]:            1.853888
      Cartesian components [Ang]:       [  0.871500,   1.214964,   1.096017]

  Decomposition into state-averaged NTOs
    H- 2 -> L+ 0:  0.6231 ( 77.6%)
    H- 0 -> L+ 1:  0.2632 ( 13.9%)
                   omega =  91.9%
  ----------------------------------------------------------------------------


  Excited state 4 (singlet, B2)                                    [converged]
  ----------------------------------------------------------------------------
  Term symbol:  4 (1) B2                                    R^2 =  1.06921e-08

  Total energy:                                            -78.4622213448 a.u.
  Excitation energy:                                               9.121956 eV

  Osc. strength:                                                      0.001301
  Trans. dip. moment [a.u.]:           [   0.000002,    0.076301,    0.000000]
  <i|r^2|0> [a.u.]:                    [   0.000000,    0.000001,   -0.000000]

  Dip. moment [a.u.]:                  [   0.000000,    0.000000,   -6.166336]
  Total dipole [Debye]:                                              15.673265
  <r^2> [a.u.]:                        [  53.592743,   24.837333,  131.285069]
  Total <r^2> [a.u.]:                                               209.715146

  V1^2 = 0.9510, V2^2 = 0.0490

  Important amplitudes:
      occ i      occ j       vir a       vir b          v   
    ---------------------------------------------------------
     1 (A2) A               4 (B1) A                  0.4548
     1 (A2) A               5 (B1) A                 -0.4108
    ---------------------------------------------------------

  Density matrix analysis:
  ------------------------
  NOs
    Occupation of frontier NOs:
       0.9959   1.0145
    Number of electrons: 18.000000
    Number of unpaired electrons: n_u =  2.41753, n_u,nl =  2.04711
    NO participation ratio (PR_NO):  2.958738
  
  
  Mulliken Population Analysis
  Atom      Charge (e)              h+              e-           Del q
  --------------------------------------------------------------------
   1 C       -0.548452        0.271036       -0.520301       -0.249264
   2 C       -0.548452        0.271036       -0.520301       -0.249264
   3 H        0.220852        0.129878       -0.005675        0.124202
   4 H        0.220880        0.129878       -0.005675        0.124203
   5 H        0.220870        0.129877       -0.005675        0.124202
   6 H        0.220842        0.129877       -0.005675        0.124201
   7 H       -0.786541        0.002459       -0.000739        0.001720
  --------------------------------------------------------------------
  Sum:       -1.000000        1.064042       -1.064042        0.000000
  
  Multipole moment analysis of the density matrix
    Molecular charge:                      -1.000000
    Number of electrons:                   18.000000
      Center of electronic charge [Ang]: [ -0.000000,  -0.000000,   0.181282]
    Total nuclear charge:                  17.000000
      Center of nuclear charge [Ang]:    [ -0.000000,  -0.000000,  -0.000000]
    Dipole moment [D]:                     15.673261
      Cartesian components [D]:          [  0.000000,   0.000000, -15.673261]
    RMS size of the density [Ang]:         1.797138
      Cartesian components [Ang]:        [  0.913099,   0.621609,   1.417588]
  
  Exciton analysis of the difference density matrix
    <r_h> [Ang]:                  [ -0.000000,  -0.000000,  -0.256984]
    <r_e> [Ang]:                  [ -0.000000,  -0.000000,  -0.477916]
    |<r_e - r_h>| [Ang]:            0.220932
    Hole size [Ang]:                1.535994
      Cartesian components [Ang]: [  1.115548,   0.921413,   0.515586]
    Electron size [Ang]:            1.853894
      Cartesian components [Ang]: [  1.300729,   0.733799,   1.098438]

  Transition density matrix analysis:
  -----------------------------------
  
  CT numbers (Mulliken)
    omega =     0.9211
    <Phe> =    -0.0119
  
  Exciton analysis of the transition density matrix
    Trans. dipole moment [D]:             0.096969
      Cartesian components [D]:         [  0.000002,   0.096969,   0.000000]
    <r_h> [Ang]:                        [  0.000000,  -0.000000,  -0.254532]
    <r_e> [Ang]:                        [ -0.000000,  -0.000000,  -0.499867]
    |<r_e - r_h>| [Ang]:                  0.245334
    Hole size [Ang]:                      1.515331
      Cartesian components [Ang]:       [  1.117718,   0.932610,   0.420919]
    Electron size [Ang]:                  1.870701
      Cartesian components [Ang]:       [  1.317862,   0.723867,   1.113003]
    RMS electron-hole separation [Ang]:   2.395993
      Cartesian components [Ang]:       [  1.697832,   1.176175,   1.214397]
    Covariance(r_h, r_e) [Ang^2]:         0.057578
    Correlation coefficient:              0.020312
    Center-of-mass size [Ang]:            1.215618
      Cartesian components [Ang]:       [  0.878845,   0.592474,   0.595258]

  Decomposition into state-averaged NTOs
    H- 1 -> L+ 3:  0.6734 ( 90.7%)
                   omega =  92.1%
  ----------------------------------------------------------------------------


  Excited state 5 (singlet, B2)                                    [converged]
  ----------------------------------------------------------------------------
  Term symbol:  5 (1) B2                                    R^2 =  3.77685e-07

  Total energy:                                            -78.4400038539 a.u.
  Excitation energy:                                               9.726524 eV

  Osc. strength:                                                      0.000143
  Trans. dip. moment [a.u.]:           [   0.000003,   -0.024532,   -0.000000]
  <i|r^2|0> [a.u.]:                    [  -0.000001,   -0.000000,    0.000001]

  Dip. moment [a.u.]:                  [  -0.000000,   -0.000001,    0.642123]
  Total dipole [Debye]:                                               1.632113
  <r^2> [a.u.]:                        [  54.726498,   37.771695,   80.838475]
  Total <r^2> [a.u.]:                                               173.336668

  V1^2 = 0.9343, V2^2 = 0.0657

  Important amplitudes:
      occ i      occ j       vir a       vir b          v   
    ---------------------------------------------------------
     5 (A1) A               4 (B2) A                 -0.6821
     5 (A1) A   5 (A1) B    8 (A1) A    4 (B2) B     -0.0555
    ---------------------------------------------------------

  Density matrix analysis:
  ------------------------
  NOs
    Occupation of frontier NOs:
       0.9882   0.9936
    Number of electrons: 18.000000
    Number of unpaired electrons: n_u =  2.43195, n_u,nl =  2.05182
    NO participation ratio (PR_NO):  2.990998
  
  
  Mulliken Population Analysis
  Atom      Charge (e)              h+              e-           Del q
  --------------------------------------------------------------------
   1 C       -1.079690        0.196548       -0.977050       -0.780502
   2 C       -1.079690        0.196548       -0.977050       -0.780502
   3 H        0.286905       -0.000243        0.190498        0.190256
   4 H        0.286933       -0.000243        0.190498        0.190255
   5 H        0.286923       -0.000243        0.190498        0.190255
   6 H        0.286896       -0.000243        0.190498        0.190256
   7 H        0.011722        0.831046       -0.031065        0.799982
  --------------------------------------------------------------------
  Sum:       -1.000000        1.223171       -1.223171        0.000000
  
  Multipole moment analysis of the density matrix
    Molecular charge:                      -1.000000
    Number of electrons:                   18.000000
      Center of electronic charge [Ang]: [  0.000000,  -0.000000,  -0.018878]
    Total nuclear charge:                  17.000000
      Center of nuclear charge [Ang]:    [ -0.000000,  -0.000000,  -0.000000]
    Dipole moment [D]:                     1.632113
      Cartesian components [D]:          [ -0.000000,  -0.000002,   1.632113]
    RMS size of the density [Ang]:         1.642031
      Cartesian components [Ang]:        [  0.922707,   0.766563,   1.121276]
  
  Exciton analysis of the difference density matrix
    <r_h> [Ang]:                  [  0.000000,  -0.000000,   3.105102]
    <r_e> [Ang]:                  [  0.000000,   0.000001,  -0.032612]
    |<r_e - r_h>| [Ang]:            3.137714
    Hole size [Ang]:                2.145294
      Cartesian components [Ang]: [  0.918829,   0.871277,   1.731738]
    Electron size [Ang]:            2.644468
      Cartesian components [Ang]: [  1.221901,   1.857452,   1.431795]

  Transition density matrix analysis:
  -----------------------------------
  
  CT numbers (Mulliken)
    omega =     0.9246
    <Phe> =     0.0005
  
  Exciton analysis of the transition density matrix
    Trans. dipole moment [D]:             0.031177
      Cartesian components [D]:         [  0.000004,  -0.031177,  -0.000000]
    <r_h> [Ang]:                        [  0.000000,  -0.000000,   3.818517]
    <r_e> [Ang]:                        [  0.000000,   0.000001,  -0.252612]
    |<r_e - r_h>| [Ang]:                  4.071129
    Hole size [Ang]:                      1.410406
      Cartesian components [Ang]:       [  0.743055,   0.729329,   0.951416]
    Electron size [Ang]:                  2.622284
      Cartesian components [Ang]:       [  1.154748,   1.987248,   1.262448]
    RMS electron-hole separation [Ang]:   5.043363
      Cartesian components [Ang]:       [  1.372357,   2.116679,   4.367129]
    Covariance(r_h, r_e) [Ang^2]:         0.002099
    Correlation coefficient:              0.000567
    Center-of-mass size [Ang]:            1.489112
      Cartesian components [Ang]:       [  0.686983,   1.058516,   0.790603]

  Decomposition into state-averaged NTOs
    H- 0 -> L+ 2:  0.6752 ( 91.2%)
                   omega =  92.5%
  ----------------------------------------------------------------------------


  Excited state 6 (singlet, B2)                                    [converged]
  ----------------------------------------------------------------------------
  Term symbol:  6 (1) B2                                    R^2 =  2.07409e-08

  Total energy:                                            -78.4200581384 a.u.
  Excitation energy:                                              10.269275 eV

  Osc. strength:                                                      0.089880
  Trans. dip. moment [a.u.]:           [   0.000001,   -0.597701,    0.000000]
  <i|r^2|0> [a.u.]:                    [  -0.000001,   -0.000001,    0.000001]

  Dip. moment [a.u.]:                  [   0.000000,   -0.000001,   -6.011358]
  Total dipole [Debye]:                                              15.279352
  <r^2> [a.u.]:                        [  76.902226,   29.721336,  132.283998]
  Total <r^2> [a.u.]:                                               238.907561

  V1^2 = 0.9392, V2^2 = 0.0608

  Important amplitudes:
      occ i      occ j       vir a       vir b          v   
    ---------------------------------------------------------
     1 (A2) A               3 (B1) A                 -0.6057
     1 (A2) A               4 (B1) A                  0.2406
    ---------------------------------------------------------

  Density matrix analysis:
  ------------------------
  NOs
    Occupation of frontier NOs:
       0.9736   1.0344
    Number of electrons: 18.000000
    Number of unpaired electrons: n_u =  2.47111, n_u,nl =  2.07709
    NO participation ratio (PR_NO):  3.211153
  
  
  Mulliken Population Analysis
  Atom      Charge (e)              h+              e-           Del q
  --------------------------------------------------------------------
   1 C       -0.589615        0.265637       -0.556065       -0.290428
   2 C       -0.589615        0.265637       -0.556065       -0.290428
   3 H        0.238001        0.185217       -0.043865        0.141352
   4 H        0.238030        0.185218       -0.043865        0.141352
   5 H        0.238021        0.185217       -0.043865        0.141352
   6 H        0.237992        0.185216       -0.043865        0.141352
   7 H       -0.772813        0.020829       -0.005382        0.015447
  --------------------------------------------------------------------
  Sum:       -1.000000        1.292971       -1.292971       -0.000000
  
  Multipole moment analysis of the density matrix
    Molecular charge:                      -1.000000
    Number of electrons:                   18.000000
      Center of electronic charge [Ang]: [ -0.000000,  -0.000000,   0.176726]
    Total nuclear charge:                  17.000000
      Center of nuclear charge [Ang]:    [ -0.000000,  -0.000000,  -0.000000]
    Dipole moment [D]:                     15.279347
      Cartesian components [D]:          [  0.000000,  -0.000001, -15.279347]
    RMS size of the density [Ang]:         1.919762
      Cartesian components [Ang]:        [  1.093791,   0.679985,   1.423632]
  
  Exciton analysis of the difference density matrix
    <r_h> [Ang]:                  [ -0.000000,  -0.000000,  -0.237413]
    <r_e> [Ang]:                  [ -0.000000,   0.000000,  -0.482655]
    |<r_e - r_h>| [Ang]:            0.245243
    Hole size [Ang]:                1.790564
      Cartesian components [Ang]: [  1.210852,   0.996381,   0.864397]
    Electron size [Ang]:            3.220623
      Cartesian components [Ang]: [  2.623490,   1.339770,   1.301816]

  Transition density matrix analysis:
  -----------------------------------
  
  CT numbers (Mulliken)
    omega =     0.9229
    <Phe> =    -0.0061
  
  Exciton analysis of the transition density matrix
    Trans. dipole moment [D]:             0.759602
      Cartesian components [D]:         [  0.000001,  -0.759602,   0.000000]
    <r_h> [Ang]:                        [  0.000000,  -0.000000,  -0.254563]
    <r_e> [Ang]:                        [ -0.000000,   0.000000,  -0.578997]
    |<r_e - r_h>| [Ang]:                  0.324434
    Hole size [Ang]:                      1.521644
      Cartesian components [Ang]:       [  1.122722,   0.937287,   0.419986]
    Electron size [Ang]:                  3.537093
      Cartesian components [Ang]:       [  2.924980,   1.463352,   1.346893]
    RMS electron-hole separation [Ang]:   3.710886
      Cartesian components [Ang]:       [  2.965283,   1.698055,   1.447197]
    Covariance(r_h, r_e) [Ang^2]:         0.580505
    Correlation coefficient:              0.107857
    Center-of-mass size [Ang]:            1.999215
      Cartesian components [Ang]:       [  1.646141,   0.888316,   0.705672]

  Decomposition into state-averaged NTOs
    H- 1 -> L+ 4:  0.6694 ( 89.6%)
    H- 4 -> L+ 5: -0.0715 (  1.0%)
                   omega =  92.3%
  ----------------------------------------------------------------------------


  Excited state 7 (singlet, B2)                                    [converged]
  ----------------------------------------------------------------------------
  Term symbol:  7 (1) B2                                    R^2 =  7.13075e-07

  Total energy:                                            -78.4003378248 a.u.
  Excitation energy:                                              10.805892 eV

  Osc. strength:                                                      0.000000
  Trans. dip. moment [a.u.]:           [   0.000000,   -0.001282,   -0.000000]
  <i|r^2|0> [a.u.]:                    [   0.000000,    0.000000,   -0.000000]

  Dip. moment [a.u.]:                  [   0.000000,    0.000001,   11.162388]
  Total dipole [Debye]:                                              28.371967
  <r^2> [a.u.]:                        [  83.974449,   56.550609,   39.232296]
  Total <r^2> [a.u.]:                                               179.757355

  V1^2 = 0.0007, V2^2 = 0.9993

  Important amplitudes:
      occ i      occ j       vir a       vir b          v   
    ---------------------------------------------------------
     5 (A1) A   5 (A1) B    6 (A1) A    2 (B2) B      0.3533
     5 (A1) A               2 (B2) A                 -0.0180
    ---------------------------------------------------------

  Density matrix analysis:
  ------------------------
  NOs
    Occupation of frontier NOs:
       1.0018   1.0029
    Number of electrons: 18.000000
    Number of unpaired electrons: n_u =  2.40326, n_u,nl =  2.05714
    NO participation ratio (PR_NO):  2.879994
  
  
  Mulliken Population Analysis
  Atom      Charge (e)              h+              e-           Del q
  --------------------------------------------------------------------
   1 C       -1.237091        0.106507       -1.044411       -0.937903
   2 C       -1.237091        0.106507       -1.044411       -0.937903
   3 H        0.113544       -0.005077        0.021972        0.016895
   4 H        0.113572       -0.005077        0.021972        0.016895
   5 H        0.113563       -0.005077        0.021972        0.016895
   6 H        0.113535       -0.005077        0.021972        0.016895
   7 H        1.019967        1.806967        0.001260        1.808227
  --------------------------------------------------------------------
  Sum:       -1.000000        1.999674       -1.999674       -0.000000
  
  Multipole moment analysis of the density matrix
    Molecular charge:                      -1.000000
    Number of electrons:                   18.000000
      Center of electronic charge [Ang]: [ -0.000000,  -0.000000,  -0.328160]
    Total nuclear charge:                  17.000000
      Center of nuclear charge [Ang]:    [ -0.000000,  -0.000000,  -0.000000]
    Dipole moment [D]:                     28.371958
      Cartesian components [D]:          [  0.000000,   0.000002,  28.371958]
    RMS size of the density [Ang]:         1.639763
      Cartesian components [Ang]:        [  1.142980,   0.937958,   0.708980]
  
  Exciton analysis of the difference density matrix
    <r_h> [Ang]:                  [  0.000000,  -0.000000,   3.862826]
    <r_e> [Ang]:                  [ -0.000000,  -0.000000,  -0.840463]
    |<r_e - r_h>| [Ang]:            4.703289
    Hole size [Ang]:                1.348561
      Cartesian components [Ang]: [  0.720570,   0.713692,   0.888841]
    Electron size [Ang]:            3.535291
      Cartesian components [Ang]: [  2.238722,   2.187498,   1.643551]

  Transition density matrix analysis:
  -----------------------------------
  
  CT numbers (Mulliken)
    omega =     0.0007
    <Phe> =     0.0090
  
  Exciton analysis of the transition density matrix
    Trans. dipole moment [D]:             0.001630
      Cartesian components [D]:         [  0.000000,  -0.001630,  -0.000000]
    <r_h> [Ang]:                        [ -0.000000,  -0.000000,   3.820076]
    <r_e> [Ang]:                        [  0.000000,  -0.000000,  -0.271563]
    |<r_e - r_h>| [Ang]:                  4.091639
    Hole size [Ang]:                      1.390235
      Cartesian components [Ang]:       [  0.660840,   0.709635,   0.996224]
    Electron size [Ang]:                  3.411468
      Cartesian components [Ang]:       [  1.680495,   2.581989,   1.465396]
    RMS electron-hole separation [Ang]:   5.505488
      Cartesian components [Ang]:       [  1.802060,   2.703866,   4.444332]
    Covariance(r_h, r_e) [Ang^2]:         0.000988
    Correlation coefficient:              0.000208
    Center-of-mass size [Ang]:            1.842067
      Cartesian components [Ang]:       [  0.904727,   1.325670,   0.904035]

  Decomposition into state-averaged NTOs
                   omega =   0.1%
  ----------------------------------------------------------------------------


  Excited state 8 (singlet, B2)                                    [converged]
  ----------------------------------------------------------------------------
  Term symbol:  8 (1) B2                                    R^2 =  1.35307e-06

  Total energy:                                            -78.3799294003 a.u.
  Excitation energy:                                              11.361233 eV

  Osc. strength:                                                      0.000002
  Trans. dip. moment [a.u.]:           [  -0.000000,   -0.002649,    0.000000]
  <i|r^2|0> [a.u.]:                    [   0.000000,    0.000000,   -0.000000]

  Dip. moment [a.u.]:                  [  -0.000000,    0.000001,   10.751721]
  Total dipole [Debye]:                                              27.328154
  <r^2> [a.u.]:                        [ 106.968945,   54.476391,   34.530636]
  Total <r^2> [a.u.]:                                               195.975972

  V1^2 = 0.0002, V2^2 = 0.9998

  Important amplitudes:
      occ i      occ j       vir a       vir b          v   
    ---------------------------------------------------------
     5 (A1) A   5 (A1) B    2 (A2) A    3 (B1) B      0.3535
     5 (A1) A               4 (B2) A                  0.0087
    ---------------------------------------------------------

  Density matrix analysis:
  ------------------------
  NOs
    Occupation of frontier NOs:
       1.0010   1.0014
    Number of electrons: 18.000000
    Number of unpaired electrons: n_u =  2.40784, n_u,nl =  2.05742
    NO participation ratio (PR_NO):  2.884393
  
  
  Mulliken Population Analysis
  Atom      Charge (e)              h+              e-           Del q
  --------------------------------------------------------------------
   1 C       -1.073704        0.106728       -0.881244       -0.774516
   2 C       -1.073704        0.106728       -0.881244       -0.774516
   3 H        0.031862       -0.005454       -0.059333       -0.064787
   4 H        0.031891       -0.005454       -0.059333       -0.064787
   5 H        0.031882       -0.005454       -0.059333       -0.064786
   6 H        0.031853       -0.005454       -0.059333       -0.064787
   7 H        1.019920        1.808184       -0.000003        1.808180
  --------------------------------------------------------------------
  Sum:       -1.000000        1.999824       -1.999824       -0.000000
  
  Multipole moment analysis of the density matrix
    Molecular charge:                      -1.000000
    Number of electrons:                   18.000000
      Center of electronic charge [Ang]: [  0.000000,  -0.000000,  -0.316087]
    Total nuclear charge:                  17.000000
      Center of nuclear charge [Ang]:    [ -0.000000,  -0.000000,  -0.000000]
    Dipole moment [D]:                     27.328146
      Cartesian components [D]:          [ -0.000000,   0.000003,  27.328146]
    RMS size of the density [Ang]:         1.717240
      Cartesian components [Ang]:        [  1.290012,   0.920596,   0.661277]
  
  Exciton analysis of the difference density matrix
    <r_h> [Ang]:                  [  0.000000,  -0.000000,   3.863468]
    <r_e> [Ang]:                  [  0.000000,  -0.000000,  -0.730801]
    |<r_e - r_h>| [Ang]:            4.594269
    Hole size [Ang]:                1.346653
      Cartesian components [Ang]: [  0.723689,   0.713261,   0.883747]
    Electron size [Ang]:            3.865451
      Cartesian components [Ang]: [  2.869823,   2.119851,   1.487300]

  Transition density matrix analysis:
  -----------------------------------
  
  CT numbers (Mulliken)
    omega =     0.0002
    <Phe> =     0.0026
  
  Exciton analysis of the transition density matrix
    Trans. dipole moment [D]:             0.003366
      Cartesian components [D]:         [ -0.000000,  -0.003366,   0.000000]
    <r_h> [Ang]:                        [  0.000000,  -0.000000,   3.757827]
    <r_e> [Ang]:                        [  0.000000,  -0.000001,  -0.255893]
    |<r_e - r_h>| [Ang]:                  4.013720
    Hole size [Ang]:                      1.510515
      Cartesian components [Ang]:       [  0.772323,   0.744348,   1.063541]
    Electron size [Ang]:                  2.700048
      Cartesian components [Ang]:       [  1.408036,   1.982562,   1.173517]
    RMS electron-hole separation [Ang]:   5.076147
      Cartesian components [Ang]:       [  1.643510,   2.113188,   4.312839]
    Covariance(r_h, r_e) [Ang^2]:        -0.042703
    Correlation coefficient:             -0.010470
    Center-of-mass size [Ang]:            1.540009
      Cartesian components [Ang]:       [  0.783736,   1.061090,   0.794652]

  Decomposition into state-averaged NTOs
                   omega =   0.0%
  ----------------------------------------------------------------------------


  Excited state 9 (singlet, B2)                                    [converged]
  ----------------------------------------------------------------------------
  Term symbol:  9 (1) B2                                    R^2 =  7.99963e-09

  Total energy:                                            -78.3726014528 a.u.
  Excitation energy:                                              11.560637 eV

  Osc. strength:                                                      0.096201
  Trans. dip. moment [a.u.]:           [  -0.000000,    0.582799,   -0.000000]
  <i|r^2|0> [a.u.]:                    [   0.000000,    0.000001,    0.000001]

  Dip. moment [a.u.]:                  [  -0.000000,   -0.000001,   -6.596689]
  Total dipole [Debye]:                                              16.767113
  <r^2> [a.u.]:                        [  55.390966,   45.019259,  131.551939]
  Total <r^2> [a.u.]:                                               231.962164

  V1^2 = 0.9298, V2^2 = 0.0702

  Important amplitudes:
      occ i      occ j       vir a       vir b          v   
    ---------------------------------------------------------
     3 (A1) A               2 (B2) A                  0.6595
     3 (A1) A               3 (B2) A                  0.1326
    ---------------------------------------------------------

  Density matrix analysis:
  ------------------------
  NOs
    Occupation of frontier NOs:
       0.9810   1.0153
    Number of electrons: 18.000000
    Number of unpaired electrons: n_u =  2.45306, n_u,nl =  2.06225
    NO participation ratio (PR_NO):  3.088068
  
  
  Mulliken Population Analysis
  Atom      Charge (e)              h+              e-           Del q
  --------------------------------------------------------------------
   1 C       -0.469973        0.429356       -0.600141       -0.170785
   2 C       -0.469973        0.429356       -0.600141       -0.170785
   3 H        0.178164        0.138992       -0.057478        0.081514
   4 H        0.178192        0.138992       -0.057477        0.081514
   5 H        0.178182        0.138991       -0.057478        0.081514
   6 H        0.178154        0.138992       -0.057478        0.081513
   7 H       -0.772746        0.020311       -0.004797        0.015514
  --------------------------------------------------------------------
  Sum:       -1.000000        1.434991       -1.434991       -0.000000
  
  Multipole moment analysis of the density matrix
    Molecular charge:                      -1.000000
    Number of electrons:                   18.000000
      Center of electronic charge [Ang]: [  0.000000,  -0.000000,   0.193934]
    Total nuclear charge:                  17.000000
      Center of nuclear charge [Ang]:    [ -0.000000,  -0.000000,  -0.000000]
    Dipole moment [D]:                     16.767108
      Cartesian components [D]:          [ -0.000000,  -0.000001, -16.767108]
    RMS size of the density [Ang]:         1.889724
      Cartesian components [Ang]:        [  0.928291,   0.836882,   1.417378]
  
  Exciton analysis of the difference density matrix
    <r_h> [Ang]:                  [ -0.000000,  -0.000000,  -0.234318]
    <r_e> [Ang]:                  [  0.000000,   0.000000,  -0.239439]
    |<r_e - r_h>| [Ang]:            0.005121
    Hole size [Ang]:                1.679203
      Cartesian components [Ang]: [  1.172192,   0.849362,   0.851043]
    Electron size [Ang]:            2.842202
      Cartesian components [Ang]: [  1.434129,   2.104641,   1.261694]

  Transition density matrix analysis:
  -----------------------------------
  
  CT numbers (Mulliken)
    omega =     0.9116
    <Phe> =    -0.0041
  
  Exciton analysis of the transition density matrix
    Trans. dipole moment [D]:             0.740664
      Cartesian components [D]:         [ -0.000000,   0.740664,  -0.000000]
    <r_h> [Ang]:                        [ -0.000000,  -0.000000,  -0.256651]
    <r_e> [Ang]:                        [  0.000000,   0.000000,  -0.259746]
    |<r_e - r_h>| [Ang]:                  0.003095
    Hole size [Ang]:                      1.328579
      Cartesian components [Ang]:       [  1.103543,   0.615964,   0.409761]
    Electron size [Ang]:                  3.254622
      Cartesian components [Ang]:       [  1.609692,   2.466085,   1.385598]
    RMS electron-hole separation [Ang]:   3.472074
      Cartesian components [Ang]:       [  1.890400,   2.528617,   1.444918]
    Covariance(r_h, r_e) [Ang^2]:         0.151199
    Correlation coefficient:              0.034967
    Center-of-mass size [Ang]:            1.779051
      Cartesian components [Ang]:       [  1.005512,   1.277505,   0.722460]

  Decomposition into state-averaged NTOs
    H- 3 -> L+ 0:  0.6703 ( 89.8%)
                   omega =  91.2%
  ----------------------------------------------------------------------------


  Excited state 10 (singlet, B2)                                    [converged]
  ----------------------------------------------------------------------------
  Term symbol:  10 (1) B2                                   R^2 =  1.60709e-06

  Total energy:                                            -78.3553551661 a.u.
  Excitation energy:                                              12.029932 eV

  Osc. strength:                                                      0.000647
  Trans. dip. moment [a.u.]:           [  -0.000000,    0.046852,    0.000000]
  <i|r^2|0> [a.u.]:                    [  -0.000000,    0.000000,    0.000000]

  Dip. moment [a.u.]:                  [  -0.000000,    0.000000,    7.958412]
  Total dipole [Debye]:                                              20.228270
  <r^2> [a.u.]:                        [  77.973074,   54.853268,   51.828918]
  Total <r^2> [a.u.]:                                               184.655260

  V1^2 = 0.1256, V2^2 = 0.8744

  Important amplitudes:
      occ i      occ j       vir a       vir b          v   
    ---------------------------------------------------------
     5 (A1) A   5 (A1) B    7 (A1) A    2 (B2) B      0.3281
     4 (A1) A               3 (B2) A                 -0.2338
    ---------------------------------------------------------

  Density matrix analysis:
  ------------------------
  NOs
    Occupation of frontier NOs:
       0.8827   0.8835
    Number of electrons: 18.000000
    Number of unpaired electrons: n_u =  2.65004, n_u,nl =  2.29996
    NO participation ratio (PR_NO):  4.212931
  
  
  Mulliken Population Analysis
  Atom      Charge (e)              h+              e-           Del q
  --------------------------------------------------------------------
   1 C       -1.033655        0.155048       -0.889515       -0.734467
   2 C       -1.033655        0.155048       -0.889515       -0.734467
   3 H        0.066724       -0.001146       -0.028780       -0.029926
   4 H        0.066752       -0.001146       -0.028780       -0.029925
   5 H        0.066743       -0.001146       -0.028780       -0.029925
   6 H        0.066714       -0.001146       -0.028780       -0.029926
   7 H        0.800376        1.592833       -0.004196        1.588637
  --------------------------------------------------------------------
  Sum:       -1.000000        1.898345       -1.898345       -0.000000
  
  Multipole moment analysis of the density matrix
    Molecular charge:                      -1.000000
    Number of electrons:                   18.000000
      Center of electronic charge [Ang]: [  0.000000,  -0.000000,  -0.233968]
    Total nuclear charge:                  17.000000
      Center of nuclear charge [Ang]:    [ -0.000000,  -0.000000,  -0.000000]
    Dipole moment [D]:                     20.228264
      Cartesian components [D]:          [ -0.000000,   0.000001,  20.228264]
    RMS size of the density [Ang]:         1.678680
      Cartesian components [Ang]:        [  1.101380,   0.923775,   0.866931]
  
  Exciton analysis of the difference density matrix
    <r_h> [Ang]:                  [ -0.000000,  -0.000000,   3.546836]
    <r_e> [Ang]:                  [  0.000000,   0.000000,  -0.514371]
    |<r_e - r_h>| [Ang]:            4.061208
    Hole size [Ang]:                1.739943
      Cartesian components [Ang]: [  0.722709,   0.706106,   1.416513]
    Electron size [Ang]:            3.513016
      Cartesian components [Ang]: [  2.090334,   2.179961,   1.794311]

  Transition density matrix analysis:
  -----------------------------------
  
  CT numbers (Mulliken)
    omega =     0.1217
    <Phe> =    -0.0093
  
  Exciton analysis of the transition density matrix
    Trans. dipole moment [D]:             0.059543
      Cartesian components [D]:         [ -0.000001,   0.059543,   0.000000]
    <r_h> [Ang]:                        [  0.000000,  -0.000000,  -0.009719]
    <r_e> [Ang]:                        [  0.000000,   0.000000,  -0.254816]
    |<r_e - r_h>| [Ang]:                  0.245098
    Hole size [Ang]:                      1.642133
      Cartesian components [Ang]:       [  0.752083,   0.523392,   1.362730]
    Electron size [Ang]:                  2.629799
      Cartesian components [Ang]:       [  1.473295,   1.842190,   1.162574]
    RMS electron-hole separation [Ang]:   3.099726
      Cartesian components [Ang]:       [  1.637649,   1.913522,   1.806887]
    Covariance(r_h, r_e) [Ang^2]:         0.032106
    Correlation coefficient:              0.007435
    Center-of-mass size [Ang]:            1.555366
      Cartesian components [Ang]:       [  0.835249,   0.958337,   0.896166]

  Decomposition into state-averaged NTOs
    H- 2 -> L+ 1:  0.2357 ( 11.1%)
                   omega =  12.2%
  ----------------------------------------------------------------------------


--------------------------------------------------------------------------------
  Time of ADC calculation:  CPU 461.55 s  wall 104.20 s
================================================================================
 
 --------------------------------------------------------------
             Orbital Energies (a.u.) and Symmetries
 --------------------------------------------------------------
 
 Alpha MOs, Restricted
 -- Occupied --                  
-11.111 -11.109  -0.914  -0.656  -0.535  -0.442  -0.391  -0.247
  1 A1    1 B1    2 A1    2 B1    1 B2    3 A1    1 A2    4 A1                 
 -0.000
  5 A1                                                                         
 -- Virtual --                   
  0.182   0.191   0.205   0.229   0.232   0.234   0.306   0.320
  3 B1    6 A1    2 B2    4 B1    7 A1    2 A2    8 A1    5 B1                 
  0.339   0.405   0.445   0.463   0.477   0.500   0.507   0.536
  6 B1    9 A1    3 B2    7 B1    8 B1   10 A1    4 B2    3 A2                 
  0.542   0.618   0.672   0.745   0.965   0.970   1.051   1.083
 11 A1    9 B1    4 A2   10 B1   12 A1    5 B2   11 B1   13 A1                 
  1.116   1.153   1.222   1.240   1.249   1.274   1.322   1.366
 14 A1    5 A2   15 A1    6 B2    7 B2   12 B1   16 A1   13 B1                 
  1.411   1.430   1.466   1.609   1.753   1.864   1.877   1.928
  6 A2   17 A1   14 B1    7 A2   18 A1    8 B2    8 A2    9 B2                 
  1.935   1.945   2.007   2.071   2.095   2.143   2.216   2.228
 15 B1   19 A1   16 B1   20 A1   17 B1   10 B2   21 A1   11 B2                 
  2.312   2.461   2.539   2.606   2.680   2.706   2.991   2.993
 18 B1   19 B1    9 A2   22 A1   10 A2   20 B1   23 A1   12 B2                 
  3.411   3.476
 21 B1   11 A2                                                                 
 
 Beta MOs, Restricted
 -- Occupied --                  
-11.111 -11.109  -0.914  -0.656  -0.535  -0.442  -0.391  -0.247
  1 A1    1 B1    2 A1    2 B1    1 B2    3 A1    1 A2    4 A1                 
 -0.000
  5 A1                                                                         
 -- Virtual --                   
  0.182   0.191   0.205   0.229   0.232   0.234   0.306   0.320
  3 B1    6 A1    2 B2    4 B1    7 A1    2 A2    8 A1    5 B1                 
  0.339   0.405   0.445   0.463   0.477   0.500   0.507   0.536
  6 B1    9 A1    3 B2    7 B1    8 B1   10 A1    4 B2    3 A2                 
  0.542   0.618   0.672   0.745   0.965   0.970   1.051   1.083
 11 A1    9 B1    4 A2   10 B1   12 A1    5 B2   11 B1   13 A1                 
  1.116   1.153   1.222   1.240   1.249   1.274   1.322   1.366
 14 A1    5 A2   15 A1    6 B2    7 B2   12 B1   16 A1   13 B1                 
  1.411   1.430   1.466   1.609   1.753   1.864   1.877   1.928
  6 A2   17 A1   14 B1    7 A2   18 A1    8 B2    8 A2    9 B2                 
  1.935   1.945   2.007   2.071   2.095   2.143   2.216   2.228
 15 B1   19 A1   16 B1   20 A1   17 B1   10 B2   21 A1   11 B2                 
  2.312   2.461   2.539   2.606   2.680   2.706   2.991   2.993
 18 B1   19 B1    9 A2   22 A1   10 A2   20 B1   23 A1   12 B2                 
  3.411   3.476
 21 B1   11 A2                                                                 
 --------------------------------------------------------------
 
          Ground-State Mulliken Net Atomic Charges

     Atom                 Charge (a.u.)
  ----------------------------------------
      1 C                    -0.271279
      2 C                    -0.271279
      3 H                     0.087902
      4 H                     0.087930
      5 H                     0.087921
      6 H                     0.087892
      7 H                    -0.809087
  ----------------------------------------
  Sum of atomic charges =    -1.000000

 -----------------------------------------------------------------
                    Cartesian Multipole Moments
 -----------------------------------------------------------------
    Charge (ESU x 10^10)
                -4.8032
    Dipole Moment (Debye)
         X       0.0000      Y       0.0000      Z     -17.0011
       Tot      17.0011
    Quadrupole Moments (Debye-Ang)
        XX     -18.2427     XY       0.0000     YY     -17.0595
        XZ      -0.0000     YZ      -0.0000     ZZ     -89.1173
    Octopole Moments (Debye-Ang^2)
       XXX      -0.0000    XXY       0.0000    XYY      -0.0000
       YYY       0.0000    XXZ     -13.1113    XYZ      -0.0000
       YYZ     -13.2932    XZZ      -0.0000    YZZ       0.0000
       ZZZ    -296.4897
    Hexadecapole Moments (Debye-Ang^3)
      XXXX     -83.8075   XXXY       0.0000   XXYY     -18.0348
      XYYY       0.0000   YYYY     -39.9902   XXXZ       0.0000
      XXYZ      -0.0000   XYYZ       0.0000   YYYZ      -0.0000
      XXZZ     -84.8031   XYZZ       0.0000   YYZZ     -77.2640
      XZZZ       0.0000   YZZZ      -0.0000   ZZZZ   -1441.6483
 -----------------------------------------------------------------
 Total job time:  186.72s(wall), 505.81s(cpu) 
 Fri Mar 25 23:36:41 2022

        *************************************************************
        *                                                           *
        *  Thank you very much for using Q-Chem.  Have a nice day.  *
        *                                                           *
        *************************************************************


