/src/tsommerfeld/qchem/exe/qcprog.exe .input1.194444.9848.qcin.1 /src/jdavis/qchem.scratch/qchem9848/

                  Welcome to Q-Chem
     A Quantum Leap Into The Future Of Chemistry


 Q-Chem 5.4 (devel), Q-Chem, Inc., Pleasanton, CA (2021)

 E. Epifanovsky,  A. T. B. Gilbert,  Xintian Feng,  Joonho Lee,  Yuezhi Mao,  
 N. Mardirossian,  P. Pokhilko,  A. White,  M. Wormit,  M. P. Coons,  
 A. L. Dempwolff,  Zhengting Gan,  D. Hait,  P. R. Horn,  L. D. Jacobson,  
 I. Kaliman,  J. Kussmann,  A. W. Lange,  Ka Un Lao,  D. S. Levine,  Jie Liu,  
 S. C. McKenzie,  A. F. Morrison,  K. Nanda,  F. Plasser,  D. R. Rehn,  
 M. L. Vidal,  Zhi-Qiang You,  Ying Zhu,  B. Alam,  B. Albrecht,  
 A. Aldossary,  E. Alguire,  J. H. Andersen,  D. Barton,  K. Begam,  A. Behn,  
 Y. A. Bernard,  E. J. Berquist,  H. Burton,  A. Carreras,  K. Carter-Fenk,  
 R. Chakraborty,  A. D. Chien,  K. D. Closser,  V. Cofer-Shabica,  
 S. Dasgupta,  Jia Deng,  M. de Wergifosse,  M. Diedenhofen,  Hainam Do,  
 S. Ehlert,  Po-Tung Fang,  S. Fatehi,  Qingguo Feng,  T. Friedhoff,  
 J. Gayvert,  Qinghui Ge,  G. Gidofalvi,  M. Goldey,  J. Gomes,  
 C. Gonzalez-Espinoza,  S. Gulania,  A. Gunina,  M. W. D. Hanson-Heine,  
 P. H. P. Harbach,  A. W. Hauser,  M. F. Herbst,  M. Hernandez Vera,  
 M. Hodecker,  Z. C. Holden,  S. Houck,  Xunkun Huang,  Kerwin Hui,  
 B. C. Huynh,  M. Ivanov,  Hyunjun Ji,  Hanjie Jiang,  B. Kaduk,  S. Kaehler,  
 K. Khistyaev,  Jaehoon Kim,  P. Klunzinger,  Z. Koczor-Benda,  
 Joong Hoon Koh,  D. Kosenkov,  L. Koulias,  T. Kowalczyk,  C. M. Krauter,  
 K. Kue,  A. Kunitsa,  T. Kus,  A. Landau,  K. V. Lawler,  D. Lefrancois,  
 S. Lehtola,  Rain Li,  Yi-Pei Li,  Jiashu Liang,  M. Liebenthal,  
 Hung-Hsuan Lin,  You-Sheng Lin,  Fenglai Liu,  Kuan-Yu Liu,  
 M. Loipersberger,  A. Luenser,  A. Manjanath,  P. Manohar,  E. Mansoor,  
 S. F. Manzer,  Shan-Ping Mao,  A. V. Marenich,  T. Markovich,  S. Mason,  
 S. A. Maurer,  P. F. McLaughlin,  M. F. S. J. Menger,  J.-M. Mewes,  
 S. A. Mewes,  P. Morgante,  J. W. Mullinax,  K. J. Oosterbaan,  G. Paran,  
 Alexander C. Paul,  Suranjan K. Paul,  F. Pavosevic,  Zheng Pei,  S. Prager,  
 E. I. Proynov,  E. Ramos,  B. Rana,  A. E. Rask,  A. Rettig,  R. M. Richard,  
 F. Rob,  E. Rossomme,  T. Scheele,  M. Scheurer,  M. Schneider,  
 N. Sergueev,  S. M. Sharada,  W. Skomorowski,  D. W. Small,  C. J. Stein,  
 Yu-Chuan Su,  E. J. Sundstrom,  Zhen Tao,  J. Thirman,  T. Tsuchimochi,  
 N. M. Tubman,  S. P. Veccham,  O. Vydrov,  J. Wenzel,  J. Witte,  A. Yamada,  
 Kun Yao,  S. Yeganeh,  S. R. Yost,  A. Zech,  Igor Ying Zhang,  Xing Zhang,  
 Yu Zhang,  D. Zuev,  A. Aspuru-Guzik,  A. T. Bell,  N. A. Besley,  
 K. B. Bravaya,  B. R. Brooks,  D. Casanova,  Jeng-Da Chai,  S. Coriani,  
 C. J. Cramer,  A. E. DePrince, III,  R. A. DiStasio Jr.,  A. Dreuw,  
 B. D. Dunietz,  T. R. Furlani,  W. A. Goddard III,  S. Grimme,  
 S. Hammes-Schiffer,  T. Head-Gordon,  W. J. Hehre,  Chao-Ping Hsu,  
 T.-C. Jagau,  Yousung Jung,  A. Klamt,  Jing Kong,  D. S. Lambrecht,  
 WanZhen Liang,  N. J. Mayhall,  C. W. McCurdy,  J. B. Neaton,  
 C. Ochsenfeld,  J. A. Parkhill,  R. Peverati,  V. A. Rassolov,  Yihan Shao,  
 L. V. Slipchenko,  T. Stauch,  R. P. Steele,  J. E. Subotnik,  
 A. J. W. Thom,  A. Tkatchenko,  D. G. Truhlar,  T. Van Voorhis,  
 T. A. Wesolowski,  K. B. Whaley,  H. L. Woodcock III,  P. M. Zimmerman,  
 S. Faraji,  P. M. W. Gill,  M. Head-Gordon,  J. M. Herbert,  A. I. Krylov

 Additional authors for Version 5.4.1: 
 S. Kotaru,  Shaozhi Li,  Xiangyuan Li,  F. Matz,  A. Molle,  Haisheng Ren,  
 Yingli Su,  Hung-Yi Tsai,  C. Utku,  Fang Wang

 Contributors to earlier versions of Q-Chem not listed above: 
 R. D. Adamson,  B. Austin,  R. Baer,  J. Baker,  G. J. O. Beran,  
 K. Brandhorst,  S. T. Brown,  E. F. C. Byrd,  A. K. Chakraborty,  
 G. K. L. Chan,  Chun-Min Chang,  Yunqing Chen,  C.-L. Cheng,  
 Siu Hung Chien,  D. M. Chipman,  D. L. Crittenden,  H. Dachsel,  
 R. J. Doerksen,  A. D. Dutoi,  R. G. Edgar,  J. Fosso-Tande,  
 L. Fusti-Molnar,  D. Ghosh,  A. Ghysels,  A. Golubeva-Zadorozhnaya,  
 J. Gonthier,  M. S. Gordon,  S. R. Gwaltney,  G. Hawkins,  J. E. Herr,  
 A. Heyden,  S. Hirata,  E. G. Hohenstein,  G. Kedziora,  F. J. Keil,  
 C. Kelley,  Jihan Kim,  R. A. King,  R. Z. Khaliullin,  P. P. Korambath,  
 W. Kurlancheek,  A. Laurent,  A. M. Lee,  M. S. Lee,  S. V. Levchenko,  
 Ching Yeh Lin,  D. Liotard,  E. Livshits,  R. C. Lochan,  I. Lotan,  
 L. A. Martinez-Martinez,  P. E. Maslen,  N. Nair,  D. P. O'Neill,  
 D. Neuhauser,  E. Neuscamman,  C. M. Oana,  R. Olivares-Amaya,  R. Olson,  
 T. M. Perrine,  B. Peters,  P. A. Pieniazek,  A. Prociuk,  Y. M. Rhee,  
 J. Ritchie,  M. A. Rohrdanz,  E. Rosta,  N. J. Russ,  H. F. Schaefer III,  
 M. W. Schmidt,  N. E. Schultz,  S. Sharma,  N. Shenvi,  C. D. Sherrill,  
 A. C. Simmonett,  A. Sodt,  T. Stein,  D. Stuck,  K. S. Thanthiriwatte,  
 V. Vanovschi,  L. Vogt,  Tao Wang,  A. Warshel,  M. A. Watson,  
 C. F. Williams,  Q. Wu,  X. Xu,  Jun Yang,  W. Zhang,  Yan Zhao

 Please cite Q-Chem as follows:
 Y. Shao et al., Mol. Phys. 113, 184-215 (2015)
 DOI: 10.1080/00268976.2014.952696

 Q-Chem 5.4.1 for Intel X86 EM64T Linux

 Parts of Q-Chem use Armadillo 9.900.5 (Nocturnal Misbehaviour).
 http://arma.sourceforge.net/

 Q-Chem begins on Fri Mar 25 23:00:20 2022  

 Host: node01
0

     Scratch files written to /src/jdavis/qchem.scratch/qchem9848//
 Processing $rem in /src/tsommerfeld/qchem/config/preferences:
 Processing $rem in /home/jdavis/.qchemrc:

 Checking the input file for inconsistencies... 	...done.

--------------------------------------------------------------
User input:
--------------------------------------------------------------
$molecule
-1 1
C         0.0000003663    0.4438502432    0.6645000000
C         0.0000003663    0.4438502432   -0.6645000000
H        -0.9623486337    0.4438522630    1.1590800000
H        -0.9623486337    0.4438522630   -1.1590800000
H         0.9623483663    0.4438482235    1.1590800000
H         0.9623483663    0.4438482235   -1.1590800000
H        -0.0000038605   -3.8477690721    0.0000000000
$end

$rem
   METHOD adc(2)
   BASIS gen
   PURECART 11
   EE_STATES [0,0,0,10]
   scf_convergence 8
   ADC_DAVIDSON_MAXITER 120
   ADC_DAVIDSON_MAXSUBSPACE 200
   adc_nguess_singles 100
   THRESH 14
   S2THRESH 14
   adc_davidson_conv 5
   adc_davidson_thresh 14
   THREADS 10
   MEM_TOTAL 95000
   STATE_ANALYSIS TRUE
$end
$basis
C 1
S   9   1.00
      6.665000D+03           6.920000D-04
      1.000000D+03           5.329000D-03
      2.280000D+02           2.707700D-02
      6.471000D+01           1.017180D-01
      2.106000D+01           2.747400D-01
      7.495000D+00           4.485640D-01
      2.797000D+00           2.850740D-01
      5.215000D-01           1.520400D-02
      1.596000D-01          -3.191000D-03
S   9   1.00
      6.665000D+03          -1.460000D-04
      1.000000D+03          -1.154000D-03
      2.280000D+02          -5.725000D-03
      6.471000D+01          -2.331200D-02
      2.106000D+01          -6.395500D-02
      7.495000D+00          -1.499810D-01
      2.797000D+00          -1.272620D-01
      5.215000D-01           5.445290D-01
      1.596000D-01           5.804960D-01
S   1   1.00
      1.596000D-01           1.000000D+00
S   1   1.00
      0.0469000              1.0000000
P   4   1.00
      9.439000D+00           3.810900D-02
      2.002000D+00           2.094800D-01
      5.456000D-01           5.085570D-01
      1.517000D-01           4.688420D-01
P   1   1.00
      1.517000D-01           1.000000D+00
P   1   1.00
      0.0724789      1.0000000
P   1   1.00
      0.0362394      1.0000000
D   1   1.00
      5.500000D-01           1.0000000
****
C 2
S   9   1.00
      6.665000D+03           6.920000D-04
      1.000000D+03           5.329000D-03
      2.280000D+02           2.707700D-02
      6.471000D+01           1.017180D-01
      2.106000D+01           2.747400D-01
      7.495000D+00           4.485640D-01
      2.797000D+00           2.850740D-01
      5.215000D-01           1.520400D-02
      1.596000D-01          -3.191000D-03
S   9   1.00
      6.665000D+03          -1.460000D-04
      1.000000D+03          -1.154000D-03
      2.280000D+02          -5.725000D-03
      6.471000D+01          -2.331200D-02
      2.106000D+01          -6.395500D-02
      7.495000D+00          -1.499810D-01
      2.797000D+00          -1.272620D-01
      5.215000D-01           5.445290D-01
      1.596000D-01           5.804960D-01
S   1   1.00
      1.596000D-01           1.000000D+00
S   1   1.00
      0.0469000              1.0000000
P   4   1.00
      9.439000D+00           3.810900D-02
      2.002000D+00           2.094800D-01
      5.456000D-01           5.085570D-01
      1.517000D-01           4.688420D-01
P   1   1.00
      1.517000D-01           1.000000D+00
P   1   1.00
      0.0724789      1.0000000
P   1   1.00
      0.0362394      1.0000000
D   1   1.00
      5.500000D-01           1.0000000
****
H 3
cc-pVDZ
****
H 4
cc-pVDZ
****
H 5
cc-pVDZ
****
H 6
cc-pVDZ
****
H 7
aug-cc-pVDZ
****
$end
--------------------------------------------------------------
 Atom   2: (  0.6645000000,  0.0000002034, -0.2524481950)
         ->(  0.6645000000, -0.0000002034, -0.2524481950)
 Atom   1: ( -0.6645000000,  0.0000002034, -0.2524481950)
         ->( -0.6645000000,  0.0000000000, -0.2524481950)
 Atom   6: (  1.1590800000,  0.9623482034, -0.2524467961)
         ->(  1.1590800000,  0.9623487966, -0.2524495940)
 Atom   5: ( -1.1590800000,  0.9623482034, -0.2524467961)
         ->( -1.1590800000,  0.9623487966, -0.2524495940)
 Atom   7: ( -0.0000000000, -0.0000012548,  4.0391711203)
         ->(  0.0000000000,  0.0000000000,  4.0391711203)
 ----------------------------------------------------------------
             Standard Nuclear Orientation (Angstroms)
    I     Atom           X                Y                Z
 ----------------------------------------------------------------
    1      C      -0.6645000000     0.0000000000    -0.2524481950
    2      C       0.6645000000    -0.0000002034    -0.2524481950
    3      H      -1.1590800000    -0.9623487966    -0.2524495940
    4      H       1.1590800000    -0.9623487966    -0.2524495940
    5      H      -1.1590800000     0.9623487966    -0.2524495940
    6      H       1.1590800000     0.9623487966    -0.2524495940
    7      H       0.0000000000     0.0000000000     4.0391711203
 ----------------------------------------------------------------
 Molecular Point Group                 C2v   NOp =  4
 Largest Abelian Subgroup              C2v   NOp =  4
 Nuclear Repulsion Energy =          35.51682835 hartrees
 There are        9 alpha and        9 beta electrons
 Requested basis set is non-standard
 There are 33 shells and 67 basis functions
 Total memory of 95000 MB is distributed as follows: 
   MEM_STATIC is set to 192 MB
   QALLOC/CCMAN JOB total memory use is  94808 MB
 Warning: actual memory use might exceed 95000 MB

 Total QAlloc Memory Limit  95000 MB
 Mega-Array Size       188 MB
 MEM_STATIC part       192 MB

                       Distance Matrix (Angstroms)
             C (  1)   C (  2)   H (  3)   H (  4)   H (  5)   H (  6)
   C (  2)  1.329000
   H (  3)  1.082000  2.061931
   H (  4)  2.061931  1.082000  2.318160
   H (  5)  1.082000  2.061931  1.924698  3.013026
   H (  6)  2.061931  1.082000  3.013026  1.924698  2.318160
   H (  7)  4.342759  4.342759  4.548361  4.548361  4.548361  4.548361

 
 A cutoff of  1.0D-14 yielded    561 shell pairs
 There are      2337 function pairs (      2484 Cartesian)
 Smallest overlap matrix eigenvalue = 2.56E-04

 Scale SEOQF with 1.000000e-01/1.000000e-01/1.000000e-01

 Standard Electronic Orientation quadrupole field applied
 Nucleus-field energy     =    -0.0000000012 hartrees
 ================ Generating on-the-fly SAD Guess ================
Attempting to make child job directory: /src/jdavis/qchem.scratch/qchem9848//Frg1/
Attempting to make child job directory: /src/jdavis/qchem.scratch/qchem9848//Frg2/
Creating input file /src/jdavis/qchem.scratch/qchem9848/Frg1.input
using default PutDataFrgm: nothing
calling putenv with: QCSCRATCH=/src/jdavis/qchem.scratch/qchem9848/ 
Spawning Job For Fragment 0
Done Job For Fragment 0
calling putenv with: QCSCRATCH=/src/jdavis/qchem.scratch 
calling putenv with: QCTHREADS=1 
Creating input file /src/jdavis/qchem.scratch/qchem9848/Frg2.input
using default PutDataFrgm: nothing
calling putenv with: QCSCRATCH=/src/jdavis/qchem.scratch/qchem9848/ 
Spawning Job For Fragment 1
Done Job For Fragment 1
calling putenv with: QCSCRATCH=/src/jdavis/qchem.scratch 
calling putenv with: QCTHREADS=1 
 Time for running child jobs:  CPU 1.76 s  wall 54.30 s
 ============= Method Specific SAD Guess Constructed =============
 Guess from on-the-fly superposition of atomic densities
 Warning: Energy on first SCF cycle will be non-variational
 A restricted Hartree-Fock SCF calculation will be
 performed using Pulay DIIS extrapolation
 SCF converges when DIIS error is below 1.0E-08
 using 10 threads for integral computing
 -------------------------------------------------------
 OpenMP Integral computing Module                
 Release: version 1.0, May 2013, Q-Chem Inc. Pittsburgh 
 -------------------------------------------------------
 ---------------------------------------
  Cycle       Energy         DIIS Error
 ---------------------------------------
    1     -78.8009127992      7.36E-02
    2     -78.4469590548      6.67E-03
    3     -78.4939093247      1.55E-03
    4     -78.4966156721      5.12E-04
    5     -78.4968855159      1.08E-04
    6     -78.4969121123      2.12E-05
    7     -78.4969139596      7.16E-06
    8     -78.4969142933      9.86E-07
    9     -78.4969143094      2.77E-07
   10     -78.4969143113      4.05E-08
   11     -78.4969143110      9.02E-09 Convergence criterion met
 ---------------------------------------
 SCF time:  CPU 10.04 s  wall 1.01 s
 SCF   energy in the final basis set = -78.49691431
 Total energy in the final basis set = -78.49691431
================================================================================
|                                                                              |
|                                 A D C  M A N                                 |
|                                                                              |
 ------------------------------------------------------------------------------ 
|                                                                              |
| Components:                                                                  |
|                                                                              |
| - libvmm - 1.3-trunk                                                         |
|   Authors:                                                                   |
|   Evgeny Epifanovsky, Ilya Kaliman                                           |
|                                                                              |
| - libtensor - 2.5-trunk                                                      |
|   Authors:                                                                   |
|   Evgeny Epifanovsky, Michael Wormit, Dmitry Zuev, Sam Manzer,               |
|   Ilya Kaliman                                                               |
|                                                                              |
| - libwfa - 1.1-trunk                                                         |
|   Authors:                                                                   |
|   Felix Plasser, Stefanie Mewes (Baeppler), Benjamin Thomitzni,              |
|   Michael Wormit, Feng Chen, Anna I. Krylov, Pavel Pokhilko                  |
|                                                                              |
| - libadc - 1.1-trunk                                                         |
|   Authors:                                                                   |
|   Michael Wormit, Adrian L. Dempwolff, Philipp H. P. Harbach,                |
|   Caroline Krauter, Dirk Rehn, Matthias Schneider, Jan Wenzel                |
|                                                                              |
| - adcman - 2.6-trunk                                                         |
|   Authors:                                                                   |
|   Michael Wormit, Adrian L. Dempwolff, Philipp H. P. Harbach,                |
|   Caroline Krauter, Daniel Lefrancois, Jan-Michael Mewes, Dirk Rehn,         |
|   Matthias Schneider, Jan Wenzel, Andreas Dreuw                              |
|                                                                              |
| Authors of earlier versions of ADCMAN:                                       |
| Andreas Dreuw, Jan Hendrik Starcke, Dirk Rehn, Michael Wormit                |
|                                                                              |
================================================================================

 
 Alpha MOs, Restricted
 -- Occupied --                  
-11.111 -11.110  -0.915  -0.657  -0.535  -0.442  -0.391  -0.247
  1 A1    1 B1    2 A1    2 B1    1 B2    3 A1    1 A2    4 A1                 
 -0.006
  5 A1                                                                         
 -- Virtual --                   
  0.155   0.177   0.180   0.199   0.203   0.212   0.286   0.295
  3 B1    6 A1    2 B2    2 A2    7 A1    4 B1    8 A1    5 B1                 
  0.321   0.399   0.411   0.420   0.432   0.438   0.465   0.465
  6 B1    9 A1    3 B2    7 B1   10 A1    3 A2    4 B2   11 A1                 
  0.492   0.537   0.675   0.734   0.953   0.977   1.037   1.056
  8 B1    9 B1    4 A2   10 B1   12 A1    5 B2   13 A1   11 B1                 
  1.082   1.121   1.157   1.170   1.207   1.239   1.241   1.245
 14 A1    6 B2    5 A2   15 A1   16 A1   12 B1    7 B2   13 B1                 
  1.399   1.410   1.416   1.542   1.745   1.770   1.849   1.918
 14 B1    6 A2   17 A1    7 A2   18 A1    8 A2    8 B2    9 B2                 
  1.924   1.933   1.997   2.069   2.078   2.143   2.185   2.214
 15 B1   19 A1   16 B1   20 A1   17 B1   10 B2   21 A1   11 B2                 
  2.307   2.453   2.538   2.593   2.702   2.703   2.946   2.954
 18 B1   19 B1    9 A2   22 A1   20 B1   10 A2   12 B2   23 A1                 
  3.379   3.464
 21 B1   11 A2                                                                 
 
 Beta MOs, Restricted
 -- Occupied --                  
-11.111 -11.110  -0.915  -0.657  -0.535  -0.442  -0.391  -0.247
  1 A1    1 B1    2 A1    2 B1    1 B2    3 A1    1 A2    4 A1                 
 -0.006
  5 A1                                                                         
 -- Virtual --                   
  0.155   0.177   0.180   0.199   0.203   0.212   0.286   0.295
  3 B1    6 A1    2 B2    2 A2    7 A1    4 B1    8 A1    5 B1                 
  0.321   0.399   0.411   0.420   0.432   0.438   0.465   0.465
  6 B1    9 A1    3 B2    7 B1   10 A1    3 A2    4 B2   11 A1                 
  0.492   0.537   0.675   0.734   0.953   0.977   1.037   1.056
  8 B1    9 B1    4 A2   10 B1   12 A1    5 B2   13 A1   11 B1                 
  1.082   1.121   1.157   1.170   1.207   1.239   1.241   1.245
 14 A1    6 B2    5 A2   15 A1   16 A1   12 B1    7 B2   13 B1                 
  1.399   1.410   1.416   1.542   1.745   1.770   1.849   1.918
 14 B1    6 A2   17 A1    7 A2   18 A1    8 A2    8 B2    9 B2                 
  1.924   1.933   1.997   2.069   2.078   2.143   2.185   2.214
 15 B1   19 A1   16 B1   20 A1   17 B1   10 B2   21 A1   11 B2                 
  2.307   2.453   2.538   2.593   2.702   2.703   2.946   2.954
 18 B1   19 B1    9 A2   22 A1   20 B1   10 A2   12 B2   23 A1                 
  3.379   3.464
 21 B1   11 A2                                                                 

--------------------------------------------------------------------------------
                                   HF Summary                                   
--------------------------------------------------------------------------------
  Energy:                                                  -78.4969143110 a.u.
  Dip. moment [a.u.]:                  [   0.000000,    0.000001,   -6.548760]
  Total dipole [Debye]:                                              16.645292
  <r^2> [a.u.]:                        [  52.045402,   26.326046,  127.877385]
  Total <r^2> [a.u.]:                                               206.248832
--------------------------------------------------------------------------------

--------------------------------------------------------------------------------
                                 MP(2) Summary                                  
--------------------------------------------------------------------------------
  MP energy contribution:                                   -0.3021383025 a.u.
  Total energy:                                            -78.7990526135 a.u.
  Dip. moment [a.u.]:                  [   0.000000,   -0.000001,   -6.429142]
  Total dipole [Debye]:                                              16.341251
  <r^2> [a.u.]:                        [  52.338786,   26.511964,  126.719935]
  Total <r^2> [a.u.]:                                               205.570686

  Density matrix analysis:
  ------------------------
  NOs
    Occupation of frontier NOs:
       0.0455   1.9360
    Number of electrons: 18.000000
    Number of unpaired electrons: n_u =  0.45329, n_u,nl =  0.04959
    NO participation ratio (PR_NO): 15.903310
  
  
  Mulliken Population Analysis
  Atom      Charge (e)              h+              e-           Del q
  --------------------------------------------------------------------
   1 C       -0.295315        0.087778       -0.118215       -0.030437
   2 C       -0.295315        0.087778       -0.118215       -0.030437
   3 H        0.078930        0.018196       -0.010069        0.008127
   4 H        0.078953        0.018195       -0.010068        0.008127
   5 H        0.078945        0.018195       -0.010068        0.008127
   6 H        0.078922        0.018195       -0.010068        0.008127
   7 H       -0.725120        0.047308       -0.018942        0.028366
  --------------------------------------------------------------------
  Sum:       -1.000000        0.295644       -0.295644       -0.000000
  
  Multipole moment analysis of the density matrix
    Molecular charge:                      -1.000000
    Number of electrons:                   18.000000
      Center of electronic charge [Ang]: [ -0.000000,  -0.000000,   0.189008]
    Total nuclear charge:                  17.000000
      Center of nuclear charge [Ang]:    [ -0.000000,  -0.000000,  -0.000000]
    Dipole moment [D]:                     16.341247
      Cartesian components [D]:          [  0.000000,  -0.000003, -16.341247]
    RMS size of the density [Ang]:         1.778305
      Cartesian components [Ang]:        [  0.902353,   0.642223,   1.391286]
  
  Exciton analysis of the difference density matrix
    <r_h> [Ang]:                  [  0.000000,  -0.000002,   0.344766]
    <r_e> [Ang]:                  [ -0.000000,   0.000001,   0.130659]
    |<r_e - r_h>| [Ang]:            0.214107
    Hole size [Ang]:                2.136629
      Cartesian components [Ang]: [  0.961441,   0.756821,   1.751581]
    Electron size [Ang]:            2.006152
      Cartesian components [Ang]: [  1.096475,   0.865377,   1.439970]
--------------------------------------------------------------------------------
  Starting Davidson for singlet states of irrep B2 ... 
--------------------------------------------------------------------------------
   It NVec Conv  Avg. Norm  Max. Norm  Conv. states           Remark
--------------------------------------------------------------------------------
       100    0  1.097e-01  4.375e-01  0.1036 n n n n n n n n Guess.
    1  110    0  7.077e-03  3.456e-02  0.0604 n n n n n n n n 
    2  120    0  1.265e-02  1.250e-01  0.0603 n n n n n n n n 
    3  130    1  6.333e-03  4.638e-02  0.0603 y n n n n n n n 
    4  140    4  4.872e-03  4.844e-02  0.0603 y y y y n n n n 
    5  150    7  2.543e-03  2.543e-02  0.0603 y y y y y n y n 
    6  160    9  1.164e-03  1.164e-02  0.0603 y y y y y n y y 
    7  170    9  7.149e-04  7.149e-03  0.0603 y y y y y n y y 
    8  180    9  3.096e-05  3.096e-04  0.0603 y y y y y n y y 
    9  190    7  3.069e-06  2.414e-05  0.0603 y y y y y n y n 
   10  200    2  9.781e-05  8.479e-04  0.0603 n n n n y n y n 
   11   20    7  7.562e-06  6.564e-05  0.0603 y y y n y y y n Subspace collapsed.
   12   30    9  1.370e-06  1.202e-05  0.0603 y y y y y y y y 
   13   40   10  2.368e-07  2.110e-06  0.0603 y y y y y y y y Converged.
--------------------------------------------------------------------------------
  Davidson Summary: 
 ------------------------------------------------------------
  State  0: excitation energy =   0.0603 a.u.   (converged)
  State  1: excitation energy =   0.2585 a.u.   (converged)
  State  2: excitation energy =   0.2719 a.u.   (converged)
  State  3: excitation energy =   0.3130 a.u.   (converged)
  State  4: excitation energy =   0.3349 a.u.   (converged)
  State  5: excitation energy =   0.3661 a.u.   (converged)
  State  6: excitation energy =   0.3665 a.u.   (converged)
  State  7: excitation energy =   0.3698 a.u.   (converged)
  State  8: excitation energy =   0.4010 a.u.   (converged)
  State  9: excitation energy =   0.4141 a.u.   (converged)
 ------------------------------------------------------------


--------------------------------------------------------------------------------
                   State-averaged natural transition orbitals
--------------------------------------------------------------------------------
--------------------------------------------------------------------------------

--------------------------------------------------------------------------------
                             Excited State Summary
--------------------------------------------------------------------------------
--------------------------------------------------------------------------------

  Excited state 1 (singlet, B2)                                    [converged]
  ----------------------------------------------------------------------------
  Term symbol:  1 (1) B2                                    R^2 =  2.78370e-08

  Total energy:                                            -78.7387736860 a.u.
  Excitation energy:                                               1.640273 eV

  Osc. strength:                                                      0.013707
  Trans. dip. moment [a.u.]:           [  -0.000001,   -0.584025,    0.000000]
  <i|r^2|0> [a.u.]:                    [  -0.000004,   -0.000001,    0.000006]

  Dip. moment [a.u.]:                  [   0.000000,    0.000001,    0.646626]
  Total dipole [Debye]:                                               1.643560
  <r^2> [a.u.]:                        [  60.709939,   54.165596,   84.899883]
  Total <r^2> [a.u.]:                                               199.775418

  V1^2 = 0.9285, V2^2 = 0.0715

  Important amplitudes:
      occ i      occ j       vir a       vir b          v   
    ---------------------------------------------------------
     5 (A1) A               2 (B2) A                  0.6794
     5 (A1) A   5 (A1) B    8 (A1) A    2 (B2) B      0.0631
    ---------------------------------------------------------

  Density matrix analysis:
  ------------------------
  NOs
    Occupation of frontier NOs:
       0.9927   0.9959
    Number of electrons: 18.000000
    Number of unpaired electrons: n_u =  2.41918, n_u,nl =  2.04914
    NO participation ratio (PR_NO):  2.940896
  
  
  Mulliken Population Analysis
  Atom      Charge (e)              h+              e-           Del q
  --------------------------------------------------------------------
   1 C       -0.638891        0.201326       -0.544902       -0.343576
   2 C       -0.638891        0.201326       -0.544902       -0.343576
   3 H        0.067290        0.005668       -0.017308       -0.011640
   4 H        0.067312        0.005668       -0.017308       -0.011640
   5 H        0.067307        0.005666       -0.017304       -0.011638
   6 H        0.067284        0.005666       -0.017304       -0.011638
   7 H        0.008588        0.776260       -0.042552        0.733709
  --------------------------------------------------------------------
  Sum:       -1.000000        1.201581       -1.201581       -0.000000
  
  Multipole moment analysis of the density matrix
    Molecular charge:                      -1.000000
    Number of electrons:                   18.000000
      Center of electronic charge [Ang]: [ -0.000000,  -0.000000,  -0.019010]
    Total nuclear charge:                  17.000000
      Center of nuclear charge [Ang]:    [ -0.000000,  -0.000000,  -0.000000]
    Dipole moment [D]:                     1.643559
      Cartesian components [D]:          [  0.000000,   0.000002,   1.643559]
    RMS size of the density [Ang]:         1.762831
      Cartesian components [Ang]:        [  0.971840,   0.917966,   1.149103]
  
  Exciton analysis of the difference density matrix
    <r_h> [Ang]:                  [ -0.000000,   0.000004,   3.091021]
    <r_e> [Ang]:                  [ -0.000000,   0.000003,  -0.025153]
    |<r_e - r_h>| [Ang]:            3.116174
    Hole size [Ang]:                2.358828
      Cartesian components [Ang]: [  0.999384,   0.977661,   1.899864]
    Electron size [Ang]:            3.710427
      Cartesian components [Ang]: [  1.717459,   2.720387,   1.848539]

  Transition density matrix analysis:
  -----------------------------------
  
  CT numbers (Mulliken)
    omega =     0.9189
    <Phe> =     0.0009
  
  Exciton analysis of the transition density matrix
    Trans. dipole moment [D]:             0.742222
      Cartesian components [D]:         [ -0.000002,  -0.742222,   0.000000]
    <r_h> [Ang]:                        [ -0.000000,   0.000000,   3.769185]
    <r_e> [Ang]:                        [ -0.000000,   0.000001,  -0.252497]
    |<r_e - r_h>| [Ang]:                  4.021682
    Hole size [Ang]:                      1.571224
      Cartesian components [Ang]:       [  0.788326,   0.780933,   1.112399]
    Electron size [Ang]:                  3.819661
      Cartesian components [Ang]:       [  1.782203,   2.934152,   1.674609]
    RMS electron-hole separation [Ang]:   5.764512
      Cartesian components [Ang]:       [  1.948079,   3.036181,   4.496242]
    Covariance(r_h, r_e) [Ang^2]:         0.001444
    Correlation coefficient:              0.000241
    Center-of-mass size [Ang]:            2.065275
      Cartesian components [Ang]:       [  0.974731,   1.518208,   1.005140]

  Decomposition into state-averaged NTOs
    H- 0 -> L+ 0:  0.6682 ( 89.3%)
    H- 0 -> L+ 4: -0.0993 (  2.0%)
                   omega =  91.9%
  ----------------------------------------------------------------------------


  Excited state 2 (singlet, B2)                                    [converged]
  ----------------------------------------------------------------------------
  Term symbol:  2 (1) B2                                    R^2 =  1.01849e-07

  Total energy:                                            -78.5405288458 a.u.
  Excitation energy:                                               7.034789 eV

  Osc. strength:                                                      0.002059
  Trans. dip. moment [a.u.]:           [  -0.000000,   -0.109303,   -0.000009]
  <i|r^2|0> [a.u.]:                    [   0.000056,    0.000046,    0.000400]

  Dip. moment [a.u.]:                  [   0.000000,    0.000019,    0.596219]
  Total dipole [Debye]:                                               1.515438
  <r^2> [a.u.]:                        [  58.015324,   41.643501,   81.190863]
  Total <r^2> [a.u.]:                                               180.849688

  V1^2 = 0.9183, V2^2 = 0.0817

  Important amplitudes:
      occ i      occ j       vir a       vir b          v   
    ---------------------------------------------------------
     5 (A1) A               3 (B2) A                 -0.6571
     5 (A1) A               4 (B2) A                  0.1313
    ---------------------------------------------------------

  Density matrix analysis:
  ------------------------
  NOs
    Occupation of frontier NOs:
       0.9724   1.0005
    Number of electrons: 18.000000
    Number of unpaired electrons: n_u =  2.46300, n_u,nl =  2.06303
    NO participation ratio (PR_NO):  3.092633
  
  
  Mulliken Population Analysis
  Atom      Charge (e)              h+              e-           Del q
  --------------------------------------------------------------------
   1 C       -0.348824        0.232414       -0.285923       -0.053509
   2 C       -0.348824        0.232414       -0.285923       -0.053509
   3 H       -0.077911        0.004295       -0.161136       -0.156841
   4 H       -0.077891        0.004295       -0.161139       -0.156844
   5 H       -0.077894        0.004293       -0.161132       -0.156839
   6 H       -0.077914        0.004293       -0.161129       -0.156836
   7 H        0.009258        0.768983       -0.034604        0.734379
  --------------------------------------------------------------------
  Sum:       -1.000000        1.250986       -1.250986        0.000000
  
  Multipole moment analysis of the density matrix
    Molecular charge:                      -1.000000
    Number of electrons:                   18.000000
      Center of electronic charge [Ang]: [ -0.000000,  -0.000001,  -0.017528]
    Total nuclear charge:                  17.000000
      Center of nuclear charge [Ang]:    [ -0.000000,  -0.000000,  -0.000000]
    Dipole moment [D]:                     1.515437
      Cartesian components [D]:          [  0.000000,   0.000049,   1.515437]
    RMS size of the density [Ang]:         1.677259
      Cartesian components [Ang]:        [  0.950028,   0.804894,   1.123739]
  
  Exciton analysis of the difference density matrix
    <r_h> [Ang]:                  [ -0.000000,   0.000004,   2.914697]
    <r_e> [Ang]:                  [ -0.000000,  -0.000005,  -0.057087]
    |<r_e - r_h>| [Ang]:            2.971784
    Hole size [Ang]:                2.383508
      Cartesian components [Ang]: [  0.976026,   0.933418,   1.963979]
    Electron size [Ang]:            2.939322
      Cartesian components [Ang]: [  1.491073,   2.063591,   1.468981]

  Transition density matrix analysis:
  -----------------------------------
  
  CT numbers (Mulliken)
    omega =     0.9057
    <Phe> =    -0.0002
  
  Exciton analysis of the transition density matrix
    Trans. dipole moment [D]:             0.138910
      Cartesian components [D]:         [ -0.000000,  -0.138910,  -0.000012]
    <r_h> [Ang]:                        [ -0.000000,   0.000000,   3.712130]
    <r_e> [Ang]:                        [ -0.000000,  -0.000010,  -0.251822]
    |<r_e - r_h>| [Ang]:                  3.963952
    Hole size [Ang]:                      1.637882
      Cartesian components [Ang]:       [  0.784947,   0.775161,   1.210636]
    Electron size [Ang]:                  2.963168
      Cartesian components [Ang]:       [  1.497104,   2.234294,   1.243774]
    RMS electron-hole separation [Ang]:   5.212767
      Cartesian components [Ang]:       [  1.689120,   2.364749,   4.327560]
    Covariance(r_h, r_e) [Ang^2]:         0.001500
    Correlation coefficient:              0.000309
    Center-of-mass size [Ang]:            1.693076
      Cartesian components [Ang]:       [  0.845843,   1.182566,   0.867521]

  Decomposition into state-averaged NTOs
    H- 0 -> L+ 4: -0.5647 ( 63.8%)
    H- 0 -> L+ 1:  0.3420 ( 23.4%)
    H- 0 -> L+ 0: -0.1081 (  2.3%)
    H- 2 -> L+ 0:  0.0721 (  1.0%)
                   omega =  90.6%
  ----------------------------------------------------------------------------


  Excited state 3 (singlet, B2)                                    [converged]
  ----------------------------------------------------------------------------
  Term symbol:  3 (1) B2                                    R^2 =  1.91314e-08

  Total energy:                                            -78.5271225642 a.u.
  Excitation energy:                                               7.399593 eV

  Osc. strength:                                                      0.002073
  Trans. dip. moment [a.u.]:           [   0.000003,   -0.106925,    0.000002]
  <i|r^2|0> [a.u.]:                    [   0.000004,   -0.000002,    0.000027]

  Dip. moment [a.u.]:                  [   0.000000,   -0.000004,   -6.359224]
  Total dipole [Debye]:                                              16.163537
  <r^2> [a.u.]:                        [  58.815930,   50.126550,  129.969741]
  Total <r^2> [a.u.]:                                               238.912221

  V1^2 = 0.9506, V2^2 = 0.0494

  Important amplitudes:
      occ i      occ j       vir a       vir b          v   
    ---------------------------------------------------------
     4 (A1) A               2 (B2) A                 -0.6631
     4 (A1) A               3 (B2) A                 -0.1677
    ---------------------------------------------------------

  Density matrix analysis:
  ------------------------
  NOs
    Occupation of frontier NOs:
       0.9822   0.9950
    Number of electrons: 18.000000
    Number of unpaired electrons: n_u =  2.36085, n_u,nl =  2.03129
    NO participation ratio (PR_NO):  2.839301
  
  
  Mulliken Population Analysis
  Atom      Charge (e)              h+              e-           Del q
  --------------------------------------------------------------------
   1 C       -0.390528        0.511465       -0.606679       -0.095213
   2 C       -0.390528        0.511465       -0.606679       -0.095213
   3 H        0.119994        0.091326       -0.050262        0.041064
   4 H        0.120014        0.091324       -0.050264        0.041061
   5 H        0.120010        0.091326       -0.050261        0.041065
   6 H        0.119990        0.091328       -0.050260        0.041068
   7 H       -0.698950        0.031154       -0.004984        0.026170
  --------------------------------------------------------------------
  Sum:       -1.000000        1.419388       -1.419388       -0.000000
  
  Multipole moment analysis of the density matrix
    Molecular charge:                      -1.000000
    Number of electrons:                   18.000000
      Center of electronic charge [Ang]: [ -0.000000,   0.000000,   0.186953]
    Total nuclear charge:                  17.000000
      Center of nuclear charge [Ang]:    [ -0.000000,  -0.000000,  -0.000000]
    Dipole moment [D]:                     16.163532
      Cartesian components [D]:          [  0.000000,  -0.000011, -16.163532]
    RMS size of the density [Ang]:         1.918812
      Cartesian components [Ang]:        [  0.956560,   0.883077,   1.409612]
  
  Exciton analysis of the difference density matrix
    <r_h> [Ang]:                  [ -0.000000,   0.000003,  -0.193215]
    <r_e> [Ang]:                  [ -0.000000,   0.000004,  -0.219282]
    |<r_e - r_h>| [Ang]:            0.026067
    Hole size [Ang]:                1.704768
      Cartesian components [Ang]: [  1.021177,   0.807942,   1.100300]
    Electron size [Ang]:            3.077884
      Cartesian components [Ang]: [  1.523374,   2.304702,   1.356855]

  Transition density matrix analysis:
  -----------------------------------
  
  CT numbers (Mulliken)
    omega =     0.9194
    <Phe> =    -0.0022
  
  Exciton analysis of the transition density matrix
    Trans. dipole moment [D]:             0.135888
      Cartesian components [D]:         [  0.000004,  -0.135888,   0.000002]
    <r_h> [Ang]:                        [  0.000000,  -0.000000,  -0.238332]
    <r_e> [Ang]:                        [ -0.000000,   0.000002,  -0.252677]
    |<r_e - r_h>| [Ang]:                  0.014344
    Hole size [Ang]:                      1.346090
      Cartesian components [Ang]:       [  0.759454,   0.518139,   0.983219]
    Electron size [Ang]:                  3.531609
      Cartesian components [Ang]:       [  1.699813,   2.697382,   1.518890]
    RMS electron-hole separation [Ang]:   3.776866
      Cartesian components [Ang]:       [  1.857566,   2.746028,   1.809282]
    Covariance(r_h, r_e) [Ang^2]:         0.009855
    Correlation coefficient:              0.002073
    Center-of-mass size [Ang]:            1.891027
      Cartesian components [Ang]:       [  0.932969,   1.373682,   0.904738]

  Decomposition into state-averaged NTOs
    H- 2 -> L+ 0: -0.6737 ( 90.8%)
                   omega =  91.9%
  ----------------------------------------------------------------------------


  Excited state 4 (singlet, B2)                                    [converged]
  ----------------------------------------------------------------------------
  Term symbol:  4 (1) B2                                    R^2 =  2.62779e-07

  Total energy:                                            -78.4860414442 a.u.
  Excitation energy:                                               8.517467 eV

  Osc. strength:                                                      0.005951
  Trans. dip. moment [a.u.]:           [   0.000002,   -0.168878,   -0.000041]
  <i|r^2|0> [a.u.]:                    [   0.000272,    0.000275,    0.002042]

  Dip. moment [a.u.]:                  [  -0.000000,    0.000209,    0.658031]
  Total dipole [Debye]:                                               1.672549
  <r^2> [a.u.]:                        [  55.728273,   34.438201,   80.630562]
  Total <r^2> [a.u.]:                                               170.797036

  V1^2 = 0.9262, V2^2 = 0.0738

  Important amplitudes:
      occ i      occ j       vir a       vir b          v   
    ---------------------------------------------------------
     5 (A1) A               4 (B2) A                  0.6659
     5 (A1) A               3 (B2) A                  0.1369
    ---------------------------------------------------------

  Density matrix analysis:
  ------------------------
  NOs
    Occupation of frontier NOs:
       0.9907   0.9920
    Number of electrons: 18.000000
    Number of unpaired electrons: n_u =  2.42842, n_u,nl =  2.05123
    NO participation ratio (PR_NO):  2.979888
  
  
  Mulliken Population Analysis
  Atom      Charge (e)              h+              e-           Del q
  --------------------------------------------------------------------
   1 C       -0.808535        0.229872       -0.743092       -0.513220
   2 C       -0.808535        0.229872       -0.743092       -0.513220
   3 H        0.150612        0.001096        0.070586        0.071682
   4 H        0.150631        0.001096        0.070582        0.071678
   5 H        0.150620        0.001093        0.070582        0.071676
   6 H        0.150602        0.001093        0.070587        0.071680
   7 H        0.014605        0.777283       -0.037557        0.739725
  --------------------------------------------------------------------
  Sum:       -1.000000        1.241404       -1.241404        0.000000
  
  Multipole moment analysis of the density matrix
    Molecular charge:                      -1.000000
    Number of electrons:                   18.000000
      Center of electronic charge [Ang]: [  0.000000,  -0.000006,  -0.019346]
    Total nuclear charge:                  17.000000
      Center of nuclear charge [Ang]:    [ -0.000000,  -0.000000,  -0.000000]
    Dipole moment [D]:                     1.672549
      Cartesian components [D]:          [ -0.000000,   0.000532,   1.672549]
    RMS size of the density [Ang]:         1.629951
      Cartesian components [Ang]:        [  0.931114,   0.731956,   1.119824]
  
  Exciton analysis of the difference density matrix
    <r_h> [Ang]:                  [ -0.000000,   0.000004,   2.984626]
    <r_e> [Ang]:                  [  0.000000,  -0.000085,  -0.036446]
    |<r_e - r_h>| [Ang]:            3.021072
    Hole size [Ang]:                2.363352
      Cartesian components [Ang]: [  0.990777,   0.954132,   1.921828]
    Electron size [Ang]:            2.578384
      Cartesian components [Ang]: [  1.321446,   1.642657,   1.484426]

  Transition density matrix analysis:
  -----------------------------------
  
  CT numbers (Mulliken)
    omega =     0.9153
    <Phe> =     0.0003
  
  Exciton analysis of the transition density matrix
    Trans. dipole moment [D]:             0.214623
      Cartesian components [D]:         [  0.000003,  -0.214623,  -0.000052]
    <r_h> [Ang]:                        [ -0.000000,   0.000000,   3.763705]
    <r_e> [Ang]:                        [  0.000000,  -0.000112,  -0.252227]
    |<r_e - r_h>| [Ang]:                  4.015932
    Hole size [Ang]:                      1.577083
      Cartesian components [Ang]:       [  0.786594,   0.779086,   1.123160]
    Electron size [Ang]:                  2.472920
      Cartesian components [Ang]:       [  1.270337,   1.722478,   1.238808]
    RMS electron-hole separation [Ang]:   4.972486
      Cartesian components [Ang]:       [  1.492754,   1.890255,   4.350199]
    Covariance(r_h, r_e) [Ang^2]:         0.002310
    Correlation coefficient:              0.000592
    Center-of-mass size [Ang]:            1.466897
      Cartesian components [Ang]:       [  0.747772,   0.945350,   0.836024]

  Decomposition into state-averaged NTOs
    H- 0 -> L+ 1: -0.5812 ( 67.5%)
    H- 0 -> L+ 4: -0.3461 ( 24.0%)
                   omega =  91.5%
  ----------------------------------------------------------------------------


  Excited state 5 (singlet, B2)                                    [converged]
  ----------------------------------------------------------------------------
  Term symbol:  5 (1) B2                                    R^2 =  4.66982e-09

  Total energy:                                            -78.4641177394 a.u.
  Excitation energy:                                               9.114041 eV

  Osc. strength:                                                      0.002116
  Trans. dip. moment [a.u.]:           [   0.000001,    0.097358,   -0.000003]
  <i|r^2|0> [a.u.]:                    [   0.000010,    0.000013,    0.000033]

  Dip. moment [a.u.]:                  [   0.000000,   -0.000001,   -5.918833]
  Total dipole [Debye]:                                              15.044176
  <r^2> [a.u.]:                        [  54.920204,   25.537511,  131.313372]
  Total <r^2> [a.u.]:                                               211.771087

  V1^2 = 0.9506, V2^2 = 0.0494

  Important amplitudes:
      occ i      occ j       vir a       vir b          v   
    ---------------------------------------------------------
     1 (A2) A               5 (B1) A                  0.4852
     1 (A2) A               4 (B1) A                 -0.3841
    ---------------------------------------------------------

  Density matrix analysis:
  ------------------------
  NOs
    Occupation of frontier NOs:
       0.9959   1.0144
    Number of electrons: 18.000000
    Number of unpaired electrons: n_u =  2.42353, n_u,nl =  2.04830
    NO participation ratio (PR_NO):  2.972687
  
  
  Mulliken Population Analysis
  Atom      Charge (e)              h+              e-           Del q
  --------------------------------------------------------------------
   1 C       -0.557239        0.257715       -0.519639       -0.261924
   2 C       -0.557239        0.257715       -0.519639       -0.261924
   3 H        0.209478        0.137393       -0.006846        0.130548
   4 H        0.209501        0.137394       -0.006846        0.130549
   5 H        0.209494        0.137394       -0.006845        0.130549
   6 H        0.209470        0.137393       -0.006845        0.130548
   7 H       -0.723465        0.002653       -0.000998        0.001655
  --------------------------------------------------------------------
  Sum:       -1.000000        1.067658       -1.067658       -0.000000
  
  Multipole moment analysis of the density matrix
    Molecular charge:                      -1.000000
    Number of electrons:                   18.000000
      Center of electronic charge [Ang]: [ -0.000000,  -0.000000,   0.174006]
    Total nuclear charge:                  17.000000
      Center of nuclear charge [Ang]:    [ -0.000000,  -0.000000,  -0.000000]
    Dipole moment [D]:                     15.044172
      Cartesian components [D]:          [  0.000000,  -0.000003, -15.044172]
    RMS size of the density [Ang]:         1.806730
      Cartesian components [Ang]:        [  0.924338,   0.630310,   1.418655]
  
  Exciton analysis of the difference density matrix
    <r_h> [Ang]:                  [  0.000000,  -0.000001,  -0.255795]
    <r_e> [Ang]:                  [  0.000000,  -0.000001,  -0.508726]
    |<r_e - r_h>| [Ang]:            0.252931
    Hole size [Ang]:                1.547958
      Cartesian components [Ang]: [  1.121354,   0.926274,   0.529863]
    Electron size [Ang]:            1.956799
      Cartesian components [Ang]: [  1.390862,   0.776145,   1.136734]

  Transition density matrix analysis:
  -----------------------------------
  
  CT numbers (Mulliken)
    omega =     0.9212
    <Phe> =    -0.0119
  
  Exciton analysis of the transition density matrix
    Trans. dipole moment [D]:             0.123730
      Cartesian components [D]:         [  0.000001,   0.123730,  -0.000004]
    <r_h> [Ang]:                        [  0.000000,  -0.000001,  -0.255119]
    <r_e> [Ang]:                        [ -0.000000,  -0.000000,  -0.534454]
    |<r_e - r_h>| [Ang]:                  0.279335
    Hole size [Ang]:                      1.515151
      Cartesian components [Ang]:       [  1.118777,   0.933432,   0.415603]
    Electron size [Ang]:                  1.977366
      Cartesian components [Ang]:       [  1.412630,   0.769452,   1.149955]
    RMS electron-hole separation [Ang]:   2.479762
      Cartesian components [Ang]:       [  1.768055,   1.204608,   1.253841]
    Covariance(r_h, r_e) [Ang^2]:         0.067235
    Correlation coefficient:              0.022442
    Center-of-mass size [Ang]:            1.258981
      Cartesian components [Ang]:       [  0.917654,   0.607376,   0.611587]

  Decomposition into state-averaged NTOs
    H- 1 -> L+ 2: -0.6605 ( 87.2%)
    H- 1 -> L+ 3:  0.1449 (  4.2%)
                   omega =  92.1%
  ----------------------------------------------------------------------------


  Excited state 6 (singlet, B2)                                    [converged]
  ----------------------------------------------------------------------------
  Term symbol:  6 (1) B2                                    R^2 =  3.65526e-08

  Total energy:                                            -78.4329866798 a.u.
  Excitation energy:                                               9.961161 eV

  Osc. strength:                                                      0.000004
  Trans. dip. moment [a.u.]:           [   0.000000,    0.003954,   -0.000000]
  <i|r^2|0> [a.u.]:                    [   0.000002,    0.000002,    0.000017]

  Dip. moment [a.u.]:                  [   0.000000,   -0.000001,   10.851734]
  Total dipole [Debye]:                                              27.582361
  <r^2> [a.u.]:                        [ 123.168009,   63.562598,   39.032982]
  Total <r^2> [a.u.]:                                               225.763589

  V1^2 = 0.0004, V2^2 = 0.9996

  Important amplitudes:
      occ i      occ j       vir a       vir b          v   
    ---------------------------------------------------------
     5 (A1) A   5 (A1) B    2 (A2) A    3 (B1) B     -0.3535
     1 (A2) A               3 (B1) A                  0.0116
    ---------------------------------------------------------

  Density matrix analysis:
  ------------------------
  NOs
    Occupation of frontier NOs:
       1.0003   1.0006
    Number of electrons: 18.000000
    Number of unpaired electrons: n_u =  2.41122, n_u,nl =  2.06075
    NO participation ratio (PR_NO):  2.886894
  
  
  Mulliken Population Analysis
  Atom      Charge (e)              h+              e-           Del q
  --------------------------------------------------------------------
   1 C       -0.992816        0.133346       -0.830847       -0.697501
   2 C       -0.992816        0.133346       -0.830847       -0.697501
   3 H       -0.010355       -0.004795       -0.084490       -0.089285
   4 H       -0.010332       -0.004795       -0.084490       -0.089285
   5 H       -0.010340       -0.004795       -0.084489       -0.089285
   6 H       -0.010363       -0.004795       -0.084490       -0.089285
   7 H        1.027022        1.752143       -0.000001        1.752142
  --------------------------------------------------------------------
  Sum:       -1.000000        1.999654       -1.999654       -0.000000
  
  Multipole moment analysis of the density matrix
    Molecular charge:                      -1.000000
    Number of electrons:                   18.000000
      Center of electronic charge [Ang]: [ -0.000000,  -0.000000,  -0.319028]
    Total nuclear charge:                  17.000000
      Center of nuclear charge [Ang]:    [ -0.000000,  -0.000000,  -0.000000]
    Dipole moment [D]:                     27.582353
      Cartesian components [D]:          [  0.000000,  -0.000003,  27.582353]
    RMS size of the density [Ang]:         1.846742
      Cartesian components [Ang]:        [  1.384248,   0.994410,   0.710959]
  
  Exciton analysis of the difference density matrix
    <r_h> [Ang]:                  [  0.000000,  -0.000000,   3.823249]
    <r_e> [Ang]:                  [ -0.000000,  -0.000000,  -0.749864]
    |<r_e - r_h>| [Ang]:            4.573113
    Hole size [Ang]:                1.480665
      Cartesian components [Ang]: [  0.757939,   0.752616,   1.025410]
    Electron size [Ang]:            4.367504
      Cartesian components [Ang]: [  3.239334,   2.398947,   1.681326]

  Transition density matrix analysis:
  -----------------------------------
  
  CT numbers (Mulliken)
    omega =     0.0004
    <Phe> =    -0.0018
  
  Exciton analysis of the transition density matrix
    Trans. dipole moment [D]:             0.005025
      Cartesian components [D]:         [  0.000000,   0.005025,  -0.000000]
    <r_h> [Ang]:                        [ -0.000000,  -0.000000,   0.409043]
    <r_e> [Ang]:                        [  0.000000,  -0.000014,  -0.596394]
    |<r_e - r_h>| [Ang]:                  1.005437
    Hole size [Ang]:                      2.135889
      Cartesian components [Ang]:       [  1.078391,   0.912379,   1.602079]
    Electron size [Ang]:                  3.686098
      Cartesian components [Ang]:       [  2.950017,   1.642470,   1.478855]
    RMS electron-hole separation [Ang]:   4.231709
      Cartesian components [Ang]:       [  3.024659,   1.857379,   2.304115]
    Covariance(r_h, r_e) [Ang^2]:         0.626442
    Correlation coefficient:              0.079567
    Center-of-mass size [Ang]:            2.202398
      Cartesian components [Ang]:       [  1.626538,   0.950057,   1.141194]

  Decomposition into state-averaged NTOs
                   omega =   0.0%
  ----------------------------------------------------------------------------


  Excited state 7 (singlet, B2)                                    [converged]
  ----------------------------------------------------------------------------
  Term symbol:  7 (1) B2                                    R^2 =  1.75216e-08

  Total energy:                                            -78.4325856307 a.u.
  Excitation energy:                                               9.972074 eV

  Osc. strength:                                                      0.064633
  Trans. dip. moment [a.u.]:           [   0.000000,   -0.514346,   -0.000003]
  <i|r^2|0> [a.u.]:                    [   0.000008,    0.000004,    0.000018]

  Dip. moment [a.u.]:                  [   0.000000,   -0.000002,   -5.646851]
  Total dipole [Debye]:                                              14.352866
  <r^2> [a.u.]:                        [  82.707543,   31.992321,  134.227687]
  Total <r^2> [a.u.]:                                               248.927552

  V1^2 = 0.9376, V2^2 = 0.0624

  Important amplitudes:
      occ i      occ j       vir a       vir b          v   
    ---------------------------------------------------------
     1 (A2) A               3 (B1) A                 -0.6133
     1 (A2) A               4 (B1) A                 -0.1748
    ---------------------------------------------------------

  Density matrix analysis:
  ------------------------
  NOs
    Occupation of frontier NOs:
       0.9796   1.0305
    Number of electrons: 18.000000
    Number of unpaired electrons: n_u =  2.47654, n_u,nl =  2.07631
    NO participation ratio (PR_NO):  3.193681
  
  
  Mulliken Population Analysis
  Atom      Charge (e)              h+              e-           Del q
  --------------------------------------------------------------------
   1 C       -0.613536        0.258493       -0.576714       -0.318221
   2 C       -0.613536        0.258493       -0.576714       -0.318221
   3 H        0.234440        0.191643       -0.036133        0.155510
   4 H        0.234463        0.191643       -0.036133        0.155510
   5 H        0.234459        0.191646       -0.036132        0.155514
   6 H        0.234436        0.191646       -0.036132        0.155514
   7 H       -0.710726        0.021289       -0.006895        0.014395
  --------------------------------------------------------------------
  Sum:       -1.000000        1.304853       -1.304853        0.000000
  
  Multipole moment analysis of the density matrix
    Molecular charge:                      -1.000000
    Number of electrons:                   18.000000
      Center of electronic charge [Ang]: [ -0.000000,  -0.000000,   0.166010]
    Total nuclear charge:                  17.000000
      Center of nuclear charge [Ang]:    [ -0.000000,  -0.000000,  -0.000000]
    Dipole moment [D]:                     14.352862
      Cartesian components [D]:          [  0.000000,  -0.000004, -14.352862]
    RMS size of the density [Ang]:         1.960878
      Cartesian components [Ang]:        [  1.134325,   0.705485,   1.435493]
  
  Exciton analysis of the difference density matrix
    <r_h> [Ang]:                  [ -0.000000,   0.000001,  -0.234675]
    <r_e> [Ang]:                  [ -0.000000,   0.000001,  -0.551929]
    |<r_e - r_h>| [Ang]:            0.317255
    Hole size [Ang]:                1.807169
      Cartesian components [Ang]: [  1.214646,   1.002237,   0.886575]
    Electron size [Ang]:            3.510118
      Cartesian components [Ang]: [  2.827130,   1.476683,   1.465492]

  Transition density matrix analysis:
  -----------------------------------
  
  CT numbers (Mulliken)
    omega =     0.9213
    <Phe> =    -0.0049
  
  Exciton analysis of the transition density matrix
    Trans. dipole moment [D]:             0.653668
      Cartesian components [D]:         [  0.000000,  -0.653668,  -0.000003]
    <r_h> [Ang]:                        [  0.000000,  -0.000000,  -0.255307]
    <r_e> [Ang]:                        [ -0.000000,  -0.000000,  -0.674789]
    |<r_e - r_h>| [Ang]:                  0.419483
    Hole size [Ang]:                      1.521776
      Cartesian components [Ang]:       [  1.123910,   0.938634,   0.414240]
    Electron size [Ang]:                  3.880347
      Cartesian components [Ang]:       [  3.170640,   1.626030,   1.536280]
    RMS electron-hole separation [Ang]:   4.064054
      Cartesian components [Ang]:       [  3.226230,   1.844202,   1.645265]
    Covariance(r_h, r_e) [Ang^2]:         0.516161
    Correlation coefficient:              0.087411
    Center-of-mass size [Ang]:            2.145065
      Cartesian components [Ang]:       [  1.748121,   0.955109,   0.795702]

  Decomposition into state-averaged NTOs
    H- 1 -> L+ 3:  0.6576 ( 86.5%)
    H- 1 -> L+ 2:  0.1444 (  4.2%)
                   omega =  92.1%
  ----------------------------------------------------------------------------


  Excited state 8 (singlet, B2)                                    [converged]
  ----------------------------------------------------------------------------
  Term symbol:  8 (1) B2                                    R^2 =  1.03524e-06

  Total energy:                                            -78.4292705833 a.u.
  Excitation energy:                                              10.062281 eV

  Osc. strength:                                                      0.000077
  Trans. dip. moment [a.u.]:           [  -0.000000,    0.017727,    0.000000]
  <i|r^2|0> [a.u.]:                    [  -0.000002,   -0.000002,   -0.000015]

  Dip. moment [a.u.]:                  [   0.000000,   -0.000001,   10.658664]
  Total dipole [Debye]:                                              27.091626
  <r^2> [a.u.]:                        [  97.187391,   63.207445,   40.049063]
  Total <r^2> [a.u.]:                                               200.443899

  V1^2 = 0.0007, V2^2 = 0.9993

  Important amplitudes:
      occ i      occ j       vir a       vir b          v   
    ---------------------------------------------------------
     5 (A1) A   5 (A1) B    6 (A1) A    2 (B2) B     -0.3531
     5 (A1) A               2 (B2) A                 -0.0156
    ---------------------------------------------------------

  Density matrix analysis:
  ------------------------
  NOs
    Occupation of frontier NOs:
       1.0010   1.0015
    Number of electrons: 18.000000
    Number of unpaired electrons: n_u =  2.40720, n_u,nl =  2.06067
    NO participation ratio (PR_NO):  2.882018
  
  
  Mulliken Population Analysis
  Atom      Charge (e)              h+              e-           Del q
  --------------------------------------------------------------------
   1 C       -1.177118        0.132860       -1.014663       -0.881803
   2 C       -1.177118        0.132860       -1.014663       -0.881803
   3 H        0.081106       -0.005117        0.007293        0.002176
   4 H        0.081128       -0.005117        0.007293        0.002175
   5 H        0.081121       -0.005117        0.007293        0.002176
   6 H        0.081098       -0.005117        0.007293        0.002176
   7 H        1.029783        1.754399        0.000504        1.754903
  --------------------------------------------------------------------
  Sum:       -1.000000        1.999651       -1.999651       -0.000000
  
  Multipole moment analysis of the density matrix
    Molecular charge:                      -1.000000
    Number of electrons:                   18.000000
      Center of electronic charge [Ang]: [ -0.000000,  -0.000000,  -0.313352]
    Total nuclear charge:                  17.000000
      Center of nuclear charge [Ang]:    [ -0.000000,  -0.000000,  -0.000000]
    Dipole moment [D]:                     27.091618
      Cartesian components [D]:          [  0.000000,  -0.000001,  27.091618]
    RMS size of the density [Ang]:         1.737856
      Cartesian components [Ang]:        [  1.229617,   0.991628,   0.724472]
  
  Exciton analysis of the difference density matrix
    <r_h> [Ang]:                  [  0.000000,  -0.000000,   3.825853]
    <r_e> [Ang]:                  [  0.000000,  -0.000000,  -0.696175]
    |<r_e - r_h>| [Ang]:            4.522028
    Hole size [Ang]:                1.473490
      Cartesian components [Ang]: [  0.759631,   0.750937,   1.015001]
    Electron size [Ang]:            3.950407
      Cartesian components [Ang]: [  2.618698,   2.388031,   1.745119]

  Transition density matrix analysis:
  -----------------------------------
  
  CT numbers (Mulliken)
    omega =     0.0007
    <Phe> =     0.0110
  
  Exciton analysis of the transition density matrix
    Trans. dipole moment [D]:             0.022528
      Cartesian components [D]:         [ -0.000000,   0.022528,   0.000000]
    <r_h> [Ang]:                        [  0.000000,  -0.000000,   3.687085]
    <r_e> [Ang]:                        [ -0.000000,  -0.000023,  -0.292617]
    |<r_e - r_h>| [Ang]:                  3.979702
    Hole size [Ang]:                      1.688688
      Cartesian components [Ang]:       [  0.709926,   0.760027,   1.330426]
    Electron size [Ang]:                  3.972061
      Cartesian components [Ang]:       [  1.897507,   2.989123,   1.800522]
    RMS electron-hole separation [Ang]:   5.835376
      Cartesian components [Ang]:       [  2.021737,   3.065903,   4.534802]
    Covariance(r_h, r_e) [Ang^2]:         0.207675
    Correlation coefficient:              0.030961
    Center-of-mass size [Ang]:            2.181988
      Cartesian components [Ang]:       [  1.015091,   1.551228,   1.150806]

  Decomposition into state-averaged NTOs
                   omega =   0.1%
  ----------------------------------------------------------------------------


  Excited state 9 (singlet, B2)                                    [converged]
  ----------------------------------------------------------------------------
  Term symbol:  9 (1) B2                                    R^2 =  2.11027e-06

  Total energy:                                            -78.3980960130 a.u.
  Excitation energy:                                              10.910584 eV

  Osc. strength:                                                      0.000183
  Trans. dip. moment [a.u.]:           [   0.000000,   -0.026186,    0.000000]
  <i|r^2|0> [a.u.]:                    [   0.000000,   -0.000003,   -0.000028]

  Dip. moment [a.u.]:                  [   0.000000,   -0.000006,   10.638900]
  Total dipole [Debye]:                                              27.041392
  <r^2> [a.u.]:                        [  83.239344,   65.800699,   48.980528]
  Total <r^2> [a.u.]:                                               198.020571

  V1^2 = 0.0143, V2^2 = 0.9857

  Important amplitudes:
      occ i      occ j       vir a       vir b          v   
    ---------------------------------------------------------
     5 (A1) A   5 (A1) B    7 (A1) A    2 (B2) B     -0.3481
     5 (A1) A               2 (B2) A                  0.0816
    ---------------------------------------------------------

  Density matrix analysis:
  ------------------------
  NOs
    Occupation of frontier NOs:
       0.9997   1.0046
    Number of electrons: 18.000000
    Number of unpaired electrons: n_u =  2.40404, n_u,nl =  2.05847
    NO participation ratio (PR_NO):  2.882092
  
  
  Mulliken Population Analysis
  Atom      Charge (e)              h+              e-           Del q
  --------------------------------------------------------------------
   1 C       -1.145393        0.126248       -0.976327       -0.850078
   2 C       -1.145393        0.126248       -0.976327       -0.850078
   3 H        0.065217       -0.005414       -0.008299       -0.013713
   4 H        0.065240       -0.005414       -0.008299       -0.013713
   5 H        0.065233       -0.005414       -0.008299       -0.013712
   6 H        0.065210       -0.005414       -0.008298       -0.013712
   7 H        1.029887        1.761848       -0.006841        1.755007
  --------------------------------------------------------------------
  Sum:       -1.000000        1.992689       -1.992689       -0.000000
  
  Multipole moment analysis of the density matrix
    Molecular charge:                      -1.000000
    Number of electrons:                   18.000000
      Center of electronic charge [Ang]: [ -0.000000,   0.000000,  -0.312771]
    Total nuclear charge:                  17.000000
      Center of nuclear charge [Ang]:    [ -0.000000,  -0.000000,  -0.000000]
    Dipole moment [D]:                     27.041384
      Cartesian components [D]:          [  0.000000,  -0.000014,  27.041384]
    RMS size of the density [Ang]:         1.727081
      Cartesian components [Ang]:        [  1.137966,   1.011766,   0.814967]
  
  Exciton analysis of the difference density matrix
    <r_h> [Ang]:                  [ -0.000000,   0.000000,   3.838106]
    <r_e> [Ang]:                  [ -0.000000,   0.000001,  -0.694472]
    |<r_e - r_h>| [Ang]:            4.532578
    Hole size [Ang]:                1.430538
      Cartesian components [Ang]: [  0.734677,   0.742067,   0.977765]
    Electron size [Ang]:            3.903102
      Cartesian components [Ang]: [  2.209557,   2.464108,   2.068872]

  Transition density matrix analysis:
  -----------------------------------
  
  CT numbers (Mulliken)
    omega =     0.0147
    <Phe> =     0.0052
  
  Exciton analysis of the transition density matrix
    Trans. dipole moment [D]:             0.033280
      Cartesian components [D]:         [  0.000000,  -0.033280,   0.000001]
    <r_h> [Ang]:                        [  0.000000,  -0.000001,   3.885078]
    <r_e> [Ang]:                        [ -0.000000,   0.000005,  -0.252973]
    |<r_e - r_h>| [Ang]:                  4.138050
    Hole size [Ang]:                      1.287582
      Cartesian components [Ang]:       [  0.615728,   0.605097,   0.955303]
    Electron size [Ang]:                  4.097949
      Cartesian components [Ang]:       [  1.913516,   3.148682,   1.793724]
    RMS electron-hole separation [Ang]:   5.961093
      Cartesian components [Ang]:       [  2.007063,   3.204189,   4.608633]
    Covariance(r_h, r_e) [Ang^2]:         0.019943
    Correlation coefficient:              0.003780
    Center-of-mass size [Ang]:            2.150055
      Cartesian components [Ang]:       [  1.006607,   1.604202,   1.017848]

  Decomposition into state-averaged NTOs
    H- 0 -> L+ 0:  0.0753 (  1.1%)
                   omega =   1.5%
  ----------------------------------------------------------------------------


  Excited state 10 (singlet, B2)                                    [converged]
  ----------------------------------------------------------------------------
  Term symbol:  10 (1) B2                                   R^2 =  4.52245e-08

  Total energy:                                            -78.3849753353 a.u.
  Excitation energy:                                              11.267616 eV

  Osc. strength:                                                      0.084872
  Trans. dip. moment [a.u.]:           [   0.000001,    0.554480,    0.000003]
  <i|r^2|0> [a.u.]:                    [   0.000001,    0.000002,    0.000002]

  Dip. moment [a.u.]:                  [   0.000000,   -0.000007,   -6.409342]
  Total dipole [Debye]:                                              16.290926
  <r^2> [a.u.]:                        [  57.288136,   49.942738,  132.582672]
  Total <r^2> [a.u.]:                                               239.813546

  V1^2 = 0.9278, V2^2 = 0.0722

  Important amplitudes:
      occ i      occ j       vir a       vir b          v   
    ---------------------------------------------------------
     3 (A1) A               2 (B2) A                  0.6569
     3 (A1) A               3 (B2) A                  0.1602
    ---------------------------------------------------------

  Density matrix analysis:
  ------------------------
  NOs
    Occupation of frontier NOs:
       0.9846   1.0133
    Number of electrons: 18.000000
    Number of unpaired electrons: n_u =  2.45785, n_u,nl =  2.06213
    NO participation ratio (PR_NO):  3.082845
  
  
  Mulliken Population Analysis
  Atom      Charge (e)              h+              e-           Del q
  --------------------------------------------------------------------
   1 C       -0.477995        0.433168       -0.615848       -0.182681
   2 C       -0.477995        0.433168       -0.615848       -0.182681
   3 H        0.166307        0.142733       -0.055356        0.087377
   4 H        0.166327        0.142731       -0.055357        0.087374
   5 H        0.166323        0.142734       -0.055356        0.087378
   6 H        0.166303        0.142736       -0.055355        0.087381
   7 H       -0.709270        0.021490       -0.005640        0.015850
  --------------------------------------------------------------------
  Sum:       -1.000000        1.458759       -1.458759       -0.000000
  
  Multipole moment analysis of the density matrix
    Molecular charge:                      -1.000000
    Number of electrons:                   18.000000
      Center of electronic charge [Ang]: [ -0.000000,   0.000000,   0.188426]
    Total nuclear charge:                  17.000000
      Center of nuclear charge [Ang]:    [ -0.000000,  -0.000000,  -0.000000]
    Dipole moment [D]:                     16.290921
      Cartesian components [D]:          [  0.000000,  -0.000017, -16.290921]
    RMS size of the density [Ang]:         1.922319
      Cartesian components [Ang]:        [  0.944055,   0.881457,   1.423764]
  
  Exciton analysis of the difference density matrix
    <r_h> [Ang]:                  [ -0.000000,  -0.000001,  -0.230278]
    <r_e> [Ang]:                  [ -0.000000,   0.000001,  -0.237460]
    |<r_e - r_h>| [Ang]:            0.007182
    Hole size [Ang]:                1.700686
      Cartesian components [Ang]: [  1.178781,   0.861520,   0.872120]
    Electron size [Ang]:            3.076094
      Cartesian components [Ang]: [  1.529581,   2.289120,   1.372102]

  Transition density matrix analysis:
  -----------------------------------
  
  CT numbers (Mulliken)
    omega =     0.9099
    <Phe> =    -0.0033
  
  Exciton analysis of the transition density matrix
    Trans. dipole moment [D]:             0.704674
      Cartesian components [D]:         [  0.000001,   0.704674,   0.000004]
    <r_h> [Ang]:                        [ -0.000000,   0.000000,  -0.256817]
    <r_e> [Ang]:                        [ -0.000000,   0.000002,  -0.261045]
    |<r_e - r_h>| [Ang]:                  0.004228
    Hole size [Ang]:                      1.328178
      Cartesian components [Ang]:       [  1.103948,   0.615349,   0.408290]
    Electron size [Ang]:                  3.562311
      Cartesian components [Ang]:       [  1.736842,   2.707572,   1.530520]
    RMS electron-hole separation [Ang]:   3.761773
      Cartesian components [Ang]:       [  1.998779,   2.765250,   1.584048]
    Covariance(r_h, r_e) [Ang^2]:         0.151598
    Correlation coefficient:              0.032041
    Center-of-mass size [Ang]:            1.920762
      Cartesian components [Ang]:       [  1.057772,   1.393969,   0.792021]

  Decomposition into state-averaged NTOs
    H- 3 -> L+ 0:  0.6706 ( 89.9%)
                   omega =  91.0%
  ----------------------------------------------------------------------------


--------------------------------------------------------------------------------
  Time of ADC calculation:  CPU 425.69 s  wall 98.78 s
================================================================================
 
 --------------------------------------------------------------
             Orbital Energies (a.u.) and Symmetries
 --------------------------------------------------------------
 
 Alpha MOs, Restricted
 -- Occupied --                  
-11.111 -11.110  -0.915  -0.657  -0.535  -0.442  -0.391  -0.247
  1 A1    1 B1    2 A1    2 B1    1 B2    3 A1    1 A2    4 A1                 
 -0.006
  5 A1                                                                         
 -- Virtual --                   
  0.155   0.177   0.180   0.199   0.203   0.212   0.286   0.295
  3 B1    6 A1    2 B2    2 A2    7 A1    4 B1    8 A1    5 B1                 
  0.321   0.399   0.411   0.420   0.432   0.438   0.465   0.465
  6 B1    9 A1    3 B2    7 B1   10 A1    3 A2    4 B2   11 A1                 
  0.492   0.537   0.675   0.734   0.953   0.977   1.037   1.056
  8 B1    9 B1    4 A2   10 B1   12 A1    5 B2   13 A1   11 B1                 
  1.082   1.121   1.157   1.170   1.207   1.239   1.241   1.245
 14 A1    6 B2    5 A2   15 A1   16 A1   12 B1    7 B2   13 B1                 
  1.399   1.410   1.416   1.542   1.745   1.770   1.849   1.918
 14 B1    6 A2   17 A1    7 A2   18 A1    8 A2    8 B2    9 B2                 
  1.924   1.933   1.997   2.069   2.078   2.143   2.185   2.214
 15 B1   19 A1   16 B1   20 A1   17 B1   10 B2   21 A1   11 B2                 
  2.307   2.453   2.538   2.593   2.702   2.703   2.946   2.954
 18 B1   19 B1    9 A2   22 A1   20 B1   10 A2   12 B2   23 A1                 
  3.379   3.464
 21 B1   11 A2                                                                 
 
 Beta MOs, Restricted
 -- Occupied --                  
-11.111 -11.110  -0.915  -0.657  -0.535  -0.442  -0.391  -0.247
  1 A1    1 B1    2 A1    2 B1    1 B2    3 A1    1 A2    4 A1                 
 -0.006
  5 A1                                                                         
 -- Virtual --                   
  0.155   0.177   0.180   0.199   0.203   0.212   0.286   0.295
  3 B1    6 A1    2 B2    2 A2    7 A1    4 B1    8 A1    5 B1                 
  0.321   0.399   0.411   0.420   0.432   0.438   0.465   0.465
  6 B1    9 A1    3 B2    7 B1   10 A1    3 A2    4 B2   11 A1                 
  0.492   0.537   0.675   0.734   0.953   0.977   1.037   1.056
  8 B1    9 B1    4 A2   10 B1   12 A1    5 B2   13 A1   11 B1                 
  1.082   1.121   1.157   1.170   1.207   1.239   1.241   1.245
 14 A1    6 B2    5 A2   15 A1   16 A1   12 B1    7 B2   13 B1                 
  1.399   1.410   1.416   1.542   1.745   1.770   1.849   1.918
 14 B1    6 A2   17 A1    7 A2   18 A1    8 A2    8 B2    9 B2                 
  1.924   1.933   1.997   2.069   2.078   2.143   2.185   2.214
 15 B1   19 A1   16 B1   20 A1   17 B1   10 B2   21 A1   11 B2                 
  2.307   2.453   2.538   2.593   2.702   2.703   2.946   2.954
 18 B1   19 B1    9 A2   22 A1   20 B1   10 A2   12 B2   23 A1                 
  3.379   3.464
 21 B1   11 A2                                                                 
 --------------------------------------------------------------
 
          Ground-State Mulliken Net Atomic Charges

     Atom                 Charge (a.u.)
  ----------------------------------------
      1 C                    -0.264878
      2 C                    -0.264878
      3 H                     0.070803
      4 H                     0.070826
      5 H                     0.070818
      6 H                     0.070795
      7 H                    -0.753486
  ----------------------------------------
  Sum of atomic charges =    -1.000000

 -----------------------------------------------------------------
                    Cartesian Multipole Moments
 -----------------------------------------------------------------
    Charge (ESU x 10^10)
                -4.8032
    Dipole Moment (Debye)
         X       0.0000      Y       0.0000      Z     -16.6453
       Tot      16.6453
    Quadrupole Moments (Debye-Ang)
        XX     -18.7402     XY       0.0000     YY     -17.6161
        XZ      -0.0000     YZ      -0.0000     ZZ     -88.7379
    Octopole Moments (Debye-Ang^2)
       XXX      -0.0000    XXY       0.0000    XYY      -0.0000
       YYY       0.0000    XXZ     -13.4919    XYZ      -0.0000
       YYZ     -13.8528    XZZ      -0.0000    YZZ       0.0000
       ZZZ    -289.1487
    Hexadecapole Moments (Debye-Ang^3)
      XXXX     -88.4400   XXXY       0.0000   XXYY     -19.7334
      XYYY       0.0000   YYYY     -45.1212   XXXZ       0.0000
      XXYZ      -0.0000   XYYZ       0.0000   YYYZ      -0.0000
      XXZZ     -90.3258   XYZZ       0.0000   YYZZ     -82.7177
      XZZZ       0.0000   YZZZ      -0.0000   ZZZZ   -1431.2533
 -----------------------------------------------------------------
 Total job time:  181.43s(wall), 470.00s(cpu) 
 Fri Mar 25 23:03:21 2022

        *************************************************************
        *                                                           *
        *  Thank you very much for using Q-Chem.  Have a nice day.  *
        *                                                           *
        *************************************************************


