/src/tsommerfeld/qchem/exe/qcprog.exe .input0.555556.8081.qcin.1 /src/jdavis/qchem.scratch/qchem8081/

                  Welcome to Q-Chem
     A Quantum Leap Into The Future Of Chemistry


 Q-Chem 5.4 (devel), Q-Chem, Inc., Pleasanton, CA (2021)

 E. Epifanovsky,  A. T. B. Gilbert,  Xintian Feng,  Joonho Lee,  Yuezhi Mao,  
 N. Mardirossian,  P. Pokhilko,  A. White,  M. Wormit,  M. P. Coons,  
 A. L. Dempwolff,  Zhengting Gan,  D. Hait,  P. R. Horn,  L. D. Jacobson,  
 I. Kaliman,  J. Kussmann,  A. W. Lange,  Ka Un Lao,  D. S. Levine,  Jie Liu,  
 S. C. McKenzie,  A. F. Morrison,  K. Nanda,  F. Plasser,  D. R. Rehn,  
 M. L. Vidal,  Zhi-Qiang You,  Ying Zhu,  B. Alam,  B. Albrecht,  
 A. Aldossary,  E. Alguire,  J. H. Andersen,  D. Barton,  K. Begam,  A. Behn,  
 Y. A. Bernard,  E. J. Berquist,  H. Burton,  A. Carreras,  K. Carter-Fenk,  
 R. Chakraborty,  A. D. Chien,  K. D. Closser,  V. Cofer-Shabica,  
 S. Dasgupta,  Jia Deng,  M. de Wergifosse,  M. Diedenhofen,  Hainam Do,  
 S. Ehlert,  Po-Tung Fang,  S. Fatehi,  Qingguo Feng,  T. Friedhoff,  
 J. Gayvert,  Qinghui Ge,  G. Gidofalvi,  M. Goldey,  J. Gomes,  
 C. Gonzalez-Espinoza,  S. Gulania,  A. Gunina,  M. W. D. Hanson-Heine,  
 P. H. P. Harbach,  A. W. Hauser,  M. F. Herbst,  M. Hernandez Vera,  
 M. Hodecker,  Z. C. Holden,  S. Houck,  Xunkun Huang,  Kerwin Hui,  
 B. C. Huynh,  M. Ivanov,  Hyunjun Ji,  Hanjie Jiang,  B. Kaduk,  S. Kaehler,  
 K. Khistyaev,  Jaehoon Kim,  P. Klunzinger,  Z. Koczor-Benda,  
 Joong Hoon Koh,  D. Kosenkov,  L. Koulias,  T. Kowalczyk,  C. M. Krauter,  
 K. Kue,  A. Kunitsa,  T. Kus,  A. Landau,  K. V. Lawler,  D. Lefrancois,  
 S. Lehtola,  Rain Li,  Yi-Pei Li,  Jiashu Liang,  M. Liebenthal,  
 Hung-Hsuan Lin,  You-Sheng Lin,  Fenglai Liu,  Kuan-Yu Liu,  
 M. Loipersberger,  A. Luenser,  A. Manjanath,  P. Manohar,  E. Mansoor,  
 S. F. Manzer,  Shan-Ping Mao,  A. V. Marenich,  T. Markovich,  S. Mason,  
 S. A. Maurer,  P. F. McLaughlin,  M. F. S. J. Menger,  J.-M. Mewes,  
 S. A. Mewes,  P. Morgante,  J. W. Mullinax,  K. J. Oosterbaan,  G. Paran,  
 Alexander C. Paul,  Suranjan K. Paul,  F. Pavosevic,  Zheng Pei,  S. Prager,  
 E. I. Proynov,  E. Ramos,  B. Rana,  A. E. Rask,  A. Rettig,  R. M. Richard,  
 F. Rob,  E. Rossomme,  T. Scheele,  M. Scheurer,  M. Schneider,  
 N. Sergueev,  S. M. Sharada,  W. Skomorowski,  D. W. Small,  C. J. Stein,  
 Yu-Chuan Su,  E. J. Sundstrom,  Zhen Tao,  J. Thirman,  T. Tsuchimochi,  
 N. M. Tubman,  S. P. Veccham,  O. Vydrov,  J. Wenzel,  J. Witte,  A. Yamada,  
 Kun Yao,  S. Yeganeh,  S. R. Yost,  A. Zech,  Igor Ying Zhang,  Xing Zhang,  
 Yu Zhang,  D. Zuev,  A. Aspuru-Guzik,  A. T. Bell,  N. A. Besley,  
 K. B. Bravaya,  B. R. Brooks,  D. Casanova,  Jeng-Da Chai,  S. Coriani,  
 C. J. Cramer,  A. E. DePrince, III,  R. A. DiStasio Jr.,  A. Dreuw,  
 B. D. Dunietz,  T. R. Furlani,  W. A. Goddard III,  S. Grimme,  
 S. Hammes-Schiffer,  T. Head-Gordon,  W. J. Hehre,  Chao-Ping Hsu,  
 T.-C. Jagau,  Yousung Jung,  A. Klamt,  Jing Kong,  D. S. Lambrecht,  
 WanZhen Liang,  N. J. Mayhall,  C. W. McCurdy,  J. B. Neaton,  
 C. Ochsenfeld,  J. A. Parkhill,  R. Peverati,  V. A. Rassolov,  Yihan Shao,  
 L. V. Slipchenko,  T. Stauch,  R. P. Steele,  J. E. Subotnik,  
 A. J. W. Thom,  A. Tkatchenko,  D. G. Truhlar,  T. Van Voorhis,  
 T. A. Wesolowski,  K. B. Whaley,  H. L. Woodcock III,  P. M. Zimmerman,  
 S. Faraji,  P. M. W. Gill,  M. Head-Gordon,  J. M. Herbert,  A. I. Krylov

 Additional authors for Version 5.4.1: 
 S. Kotaru,  Shaozhi Li,  Xiangyuan Li,  F. Matz,  A. Molle,  Haisheng Ren,  
 Yingli Su,  Hung-Yi Tsai,  C. Utku,  Fang Wang

 Contributors to earlier versions of Q-Chem not listed above: 
 R. D. Adamson,  B. Austin,  R. Baer,  J. Baker,  G. J. O. Beran,  
 K. Brandhorst,  S. T. Brown,  E. F. C. Byrd,  A. K. Chakraborty,  
 G. K. L. Chan,  Chun-Min Chang,  Yunqing Chen,  C.-L. Cheng,  
 Siu Hung Chien,  D. M. Chipman,  D. L. Crittenden,  H. Dachsel,  
 R. J. Doerksen,  A. D. Dutoi,  R. G. Edgar,  J. Fosso-Tande,  
 L. Fusti-Molnar,  D. Ghosh,  A. Ghysels,  A. Golubeva-Zadorozhnaya,  
 J. Gonthier,  M. S. Gordon,  S. R. Gwaltney,  G. Hawkins,  J. E. Herr,  
 A. Heyden,  S. Hirata,  E. G. Hohenstein,  G. Kedziora,  F. J. Keil,  
 C. Kelley,  Jihan Kim,  R. A. King,  R. Z. Khaliullin,  P. P. Korambath,  
 W. Kurlancheek,  A. Laurent,  A. M. Lee,  M. S. Lee,  S. V. Levchenko,  
 Ching Yeh Lin,  D. Liotard,  E. Livshits,  R. C. Lochan,  I. Lotan,  
 L. A. Martinez-Martinez,  P. E. Maslen,  N. Nair,  D. P. O'Neill,  
 D. Neuhauser,  E. Neuscamman,  C. M. Oana,  R. Olivares-Amaya,  R. Olson,  
 T. M. Perrine,  B. Peters,  P. A. Pieniazek,  A. Prociuk,  Y. M. Rhee,  
 J. Ritchie,  M. A. Rohrdanz,  E. Rosta,  N. J. Russ,  H. F. Schaefer III,  
 M. W. Schmidt,  N. E. Schultz,  S. Sharma,  N. Shenvi,  C. D. Sherrill,  
 A. C. Simmonett,  A. Sodt,  T. Stein,  D. Stuck,  K. S. Thanthiriwatte,  
 V. Vanovschi,  L. Vogt,  Tao Wang,  A. Warshel,  M. A. Watson,  
 C. F. Williams,  Q. Wu,  X. Xu,  Jun Yang,  W. Zhang,  Yan Zhao

 Please cite Q-Chem as follows:
 Y. Shao et al., Mol. Phys. 113, 184-215 (2015)
 DOI: 10.1080/00268976.2014.952696

 Q-Chem 5.4.1 for Intel X86 EM64T Linux

 Parts of Q-Chem use Armadillo 9.900.5 (Nocturnal Misbehaviour).
 http://arma.sourceforge.net/

 Q-Chem begins on Fri Mar 25 21:35:10 2022  

 Host: node01
0

     Scratch files written to /src/jdavis/qchem.scratch/qchem8081//
 Processing $rem in /src/tsommerfeld/qchem/config/preferences:
 Processing $rem in /home/jdavis/.qchemrc:

 Checking the input file for inconsistencies... 	...done.

--------------------------------------------------------------
User input:
--------------------------------------------------------------
$molecule
-1 1
C         0.0000003663    0.4438502432    0.6645000000
C         0.0000003663    0.4438502432   -0.6645000000
H        -0.9623486337    0.4438522630    1.1590800000
H        -0.9623486337    0.4438522630   -1.1590800000
H         0.9623483663    0.4438482235    1.1590800000
H         0.9623483663    0.4438482235   -1.1590800000
H        -0.0000038605   -3.8477690721    0.0000000000
$end

$rem
   METHOD adc(2)
   BASIS gen
   PURECART 11
   EE_STATES [0,0,0,10]
   scf_convergence 8
   ADC_DAVIDSON_MAXITER 120
   ADC_DAVIDSON_MAXSUBSPACE 200
   adc_nguess_singles 100
   THRESH 14
   S2THRESH 14
   adc_davidson_conv 5
   adc_davidson_thresh 14
   THREADS 10
   MEM_TOTAL 95000
   STATE_ANALYSIS TRUE
$end
$basis
C 1
S   9   1.00
      6.665000D+03           6.920000D-04
      1.000000D+03           5.329000D-03
      2.280000D+02           2.707700D-02
      6.471000D+01           1.017180D-01
      2.106000D+01           2.747400D-01
      7.495000D+00           4.485640D-01
      2.797000D+00           2.850740D-01
      5.215000D-01           1.520400D-02
      1.596000D-01          -3.191000D-03
S   9   1.00
      6.665000D+03          -1.460000D-04
      1.000000D+03          -1.154000D-03
      2.280000D+02          -5.725000D-03
      6.471000D+01          -2.331200D-02
      2.106000D+01          -6.395500D-02
      7.495000D+00          -1.499810D-01
      2.797000D+00          -1.272620D-01
      5.215000D-01           5.445290D-01
      1.596000D-01           5.804960D-01
S   1   1.00
      1.596000D-01           1.000000D+00
S   1   1.00
      0.0469000              1.0000000
P   4   1.00
      9.439000D+00           3.810900D-02
      2.002000D+00           2.094800D-01
      5.456000D-01           5.085570D-01
      1.517000D-01           4.688420D-01
P   1   1.00
      1.517000D-01           1.000000D+00
P   1   1.00
      0.0337111      1.0000000
P   1   1.00
      0.0168556      1.0000000
D   1   1.00
      5.500000D-01           1.0000000
****
C 2
S   9   1.00
      6.665000D+03           6.920000D-04
      1.000000D+03           5.329000D-03
      2.280000D+02           2.707700D-02
      6.471000D+01           1.017180D-01
      2.106000D+01           2.747400D-01
      7.495000D+00           4.485640D-01
      2.797000D+00           2.850740D-01
      5.215000D-01           1.520400D-02
      1.596000D-01          -3.191000D-03
S   9   1.00
      6.665000D+03          -1.460000D-04
      1.000000D+03          -1.154000D-03
      2.280000D+02          -5.725000D-03
      6.471000D+01          -2.331200D-02
      2.106000D+01          -6.395500D-02
      7.495000D+00          -1.499810D-01
      2.797000D+00          -1.272620D-01
      5.215000D-01           5.445290D-01
      1.596000D-01           5.804960D-01
S   1   1.00
      1.596000D-01           1.000000D+00
S   1   1.00
      0.0469000              1.0000000
P   4   1.00
      9.439000D+00           3.810900D-02
      2.002000D+00           2.094800D-01
      5.456000D-01           5.085570D-01
      1.517000D-01           4.688420D-01
P   1   1.00
      1.517000D-01           1.000000D+00
P   1   1.00
      0.0337111      1.0000000
P   1   1.00
      0.0168556      1.0000000
D   1   1.00
      5.500000D-01           1.0000000
****
H 3
cc-pVDZ
****
H 4
cc-pVDZ
****
H 5
cc-pVDZ
****
H 6
cc-pVDZ
****
H 7
aug-cc-pVDZ
****
$end
--------------------------------------------------------------
 Atom   2: (  0.6645000000,  0.0000002034, -0.2524481950)
         ->(  0.6645000000, -0.0000002034, -0.2524481950)
 Atom   1: ( -0.6645000000,  0.0000002034, -0.2524481950)
         ->( -0.6645000000,  0.0000000000, -0.2524481950)
 Atom   6: (  1.1590800000,  0.9623482034, -0.2524467961)
         ->(  1.1590800000,  0.9623487966, -0.2524495940)
 Atom   5: ( -1.1590800000,  0.9623482034, -0.2524467961)
         ->( -1.1590800000,  0.9623487966, -0.2524495940)
 Atom   7: ( -0.0000000000, -0.0000012548,  4.0391711203)
         ->(  0.0000000000,  0.0000000000,  4.0391711203)
 ----------------------------------------------------------------
             Standard Nuclear Orientation (Angstroms)
    I     Atom           X                Y                Z
 ----------------------------------------------------------------
    1      C      -0.6645000000     0.0000000000    -0.2524481950
    2      C       0.6645000000    -0.0000002034    -0.2524481950
    3      H      -1.1590800000    -0.9623487966    -0.2524495940
    4      H       1.1590800000    -0.9623487966    -0.2524495940
    5      H      -1.1590800000     0.9623487966    -0.2524495940
    6      H       1.1590800000     0.9623487966    -0.2524495940
    7      H       0.0000000000     0.0000000000     4.0391711203
 ----------------------------------------------------------------
 Molecular Point Group                 C2v   NOp =  4
 Largest Abelian Subgroup              C2v   NOp =  4
 Nuclear Repulsion Energy =          35.51682835 hartrees
 There are        9 alpha and        9 beta electrons
 Requested basis set is non-standard
 There are 33 shells and 67 basis functions
 Total memory of 95000 MB is distributed as follows: 
   MEM_STATIC is set to 192 MB
   QALLOC/CCMAN JOB total memory use is  94808 MB
 Warning: actual memory use might exceed 95000 MB

 Total QAlloc Memory Limit  95000 MB
 Mega-Array Size       188 MB
 MEM_STATIC part       192 MB

                       Distance Matrix (Angstroms)
             C (  1)   C (  2)   H (  3)   H (  4)   H (  5)   H (  6)
   C (  2)  1.329000
   H (  3)  1.082000  2.061931
   H (  4)  2.061931  1.082000  2.318160
   H (  5)  1.082000  2.061931  1.924698  3.013026
   H (  6)  2.061931  1.082000  3.013026  1.924698  2.318160
   H (  7)  4.342759  4.342759  4.548361  4.548361  4.548361  4.548361

 
 A cutoff of  1.0D-14 yielded    561 shell pairs
 There are      2337 function pairs (      2484 Cartesian)
 Smallest overlap matrix eigenvalue = 6.74E-04

 Scale SEOQF with 1.000000e-01/1.000000e-01/1.000000e-01

 Standard Electronic Orientation quadrupole field applied
 Nucleus-field energy     =    -0.0000000012 hartrees
 ================ Generating on-the-fly SAD Guess ================
Attempting to make child job directory: /src/jdavis/qchem.scratch/qchem8081//Frg1/
Attempting to make child job directory: /src/jdavis/qchem.scratch/qchem8081//Frg2/
Creating input file /src/jdavis/qchem.scratch/qchem8081/Frg1.input
using default PutDataFrgm: nothing
calling putenv with: QCSCRATCH=/src/jdavis/qchem.scratch/qchem8081/ 
Spawning Job For Fragment 0
Done Job For Fragment 0
calling putenv with: QCSCRATCH=/src/jdavis/qchem.scratch 
calling putenv with: QCTHREADS=1 
Creating input file /src/jdavis/qchem.scratch/qchem8081/Frg2.input
using default PutDataFrgm: nothing
calling putenv with: QCSCRATCH=/src/jdavis/qchem.scratch/qchem8081/ 
Spawning Job For Fragment 1
Done Job For Fragment 1
calling putenv with: QCSCRATCH=/src/jdavis/qchem.scratch 
calling putenv with: QCTHREADS=1 
 Time for running child jobs:  CPU 1.81 s  wall 54.34 s
 ============= Method Specific SAD Guess Constructed =============
 Guess from on-the-fly superposition of atomic densities
 Warning: Energy on first SCF cycle will be non-variational
 A restricted Hartree-Fock SCF calculation will be
 performed using Pulay DIIS extrapolation
 SCF converges when DIIS error is below 1.0E-08
 using 10 threads for integral computing
 -------------------------------------------------------
 OpenMP Integral computing Module                
 Release: version 1.0, May 2013, Q-Chem Inc. Pittsburgh 
 -------------------------------------------------------
 ---------------------------------------
  Cycle       Energy         DIIS Error
 ---------------------------------------
    1     -78.8001343196      7.36E-02
    2     -78.4496725098      6.69E-03
    3     -78.5035614978      1.52E-03
    4     -78.5056760251      4.93E-04
    5     -78.5058902791      9.68E-05
    6     -78.5059066373      1.99E-05
    7     -78.5059081232      7.55E-06
    8     -78.5059084051      9.61E-07
    9     -78.5059084143      2.13E-07
   10     -78.5059084152      4.65E-08
   11     -78.5059084151      6.55E-09 Convergence criterion met
 ---------------------------------------
 SCF time:  CPU 10.19 s  wall 1.03 s
 SCF   energy in the final basis set = -78.50590842
 Total energy in the final basis set = -78.50590842
================================================================================
|                                                                              |
|                                 A D C  M A N                                 |
|                                                                              |
 ------------------------------------------------------------------------------ 
|                                                                              |
| Components:                                                                  |
|                                                                              |
| - libvmm - 1.3-trunk                                                         |
|   Authors:                                                                   |
|   Evgeny Epifanovsky, Ilya Kaliman                                           |
|                                                                              |
| - libtensor - 2.5-trunk                                                      |
|   Authors:                                                                   |
|   Evgeny Epifanovsky, Michael Wormit, Dmitry Zuev, Sam Manzer,               |
|   Ilya Kaliman                                                               |
|                                                                              |
| - libwfa - 1.1-trunk                                                         |
|   Authors:                                                                   |
|   Felix Plasser, Stefanie Mewes (Baeppler), Benjamin Thomitzni,              |
|   Michael Wormit, Feng Chen, Anna I. Krylov, Pavel Pokhilko                  |
|                                                                              |
| - libadc - 1.1-trunk                                                         |
|   Authors:                                                                   |
|   Michael Wormit, Adrian L. Dempwolff, Philipp H. P. Harbach,                |
|   Caroline Krauter, Dirk Rehn, Matthias Schneider, Jan Wenzel                |
|                                                                              |
| - adcman - 2.6-trunk                                                         |
|   Authors:                                                                   |
|   Michael Wormit, Adrian L. Dempwolff, Philipp H. P. Harbach,                |
|   Caroline Krauter, Daniel Lefrancois, Jan-Michael Mewes, Dirk Rehn,         |
|   Matthias Schneider, Jan Wenzel, Andreas Dreuw                              |
|                                                                              |
| Authors of earlier versions of ADCMAN:                                       |
| Andreas Dreuw, Jan Hendrik Starcke, Dirk Rehn, Michael Wormit                |
|                                                                              |
================================================================================

 
 Alpha MOs, Restricted
 -- Occupied --                  
-11.117 -11.116  -0.921  -0.663  -0.541  -0.448  -0.397  -0.254
  1 A1    1 B1    2 A1    2 B1    1 B2    3 A1    1 A2    4 A1                 
 -0.028
  5 A1                                                                         
 -- Virtual --                   
  0.105   0.120   0.126   0.130   0.150   0.154   0.200   0.207
  3 B1    2 B2    2 A2    6 A1    4 B1    7 A1    5 B1    8 A1                 
  0.238   0.242   0.253   0.269   0.317   0.355   0.399   0.400
  6 B1    3 B2    3 A2    9 A1   10 A1    7 B1    8 B1   11 A1                 
  0.444   0.463   0.540   0.631   0.770   0.855   0.950   0.972
  4 B2    9 B1    4 A2   10 B1   12 A1    5 B2   13 A1   14 A1                 
  1.015   1.018   1.045   1.058   1.119   1.140   1.142   1.235
 11 B1    6 B2   12 B1   15 A1   13 B1    5 A2   16 A1    7 B2                 
  1.404   1.405   1.418   1.467   1.724   1.733   1.812   1.876
  6 A2   17 A1   14 B1    7 A2   18 A1    8 A2    8 B2    9 B2                 
  1.879   1.893   1.964   2.038   2.056   2.086   2.136   2.146
 15 B1   19 A1   16 B1   17 B1   20 A1   21 A1   10 B2   11 B2                 
  2.290   2.386   2.532   2.557   2.650   2.692   2.917   2.919
 18 B1   19 B1    9 A2   22 A1   10 A2   20 B1   23 A1   12 B2                 
  3.374   3.458
 21 B1   11 A2                                                                 
 
 Beta MOs, Restricted
 -- Occupied --                  
-11.117 -11.116  -0.921  -0.663  -0.541  -0.448  -0.397  -0.254
  1 A1    1 B1    2 A1    2 B1    1 B2    3 A1    1 A2    4 A1                 
 -0.028
  5 A1                                                                         
 -- Virtual --                   
  0.105   0.120   0.126   0.130   0.150   0.154   0.200   0.207
  3 B1    2 B2    2 A2    6 A1    4 B1    7 A1    5 B1    8 A1                 
  0.238   0.242   0.253   0.269   0.317   0.355   0.399   0.400
  6 B1    3 B2    3 A2    9 A1   10 A1    7 B1    8 B1   11 A1                 
  0.444   0.463   0.540   0.631   0.770   0.855   0.950   0.972
  4 B2    9 B1    4 A2   10 B1   12 A1    5 B2   13 A1   14 A1                 
  1.015   1.018   1.045   1.058   1.119   1.140   1.142   1.235
 11 B1    6 B2   12 B1   15 A1   13 B1    5 A2   16 A1    7 B2                 
  1.404   1.405   1.418   1.467   1.724   1.733   1.812   1.876
  6 A2   17 A1   14 B1    7 A2   18 A1    8 A2    8 B2    9 B2                 
  1.879   1.893   1.964   2.038   2.056   2.086   2.136   2.146
 15 B1   19 A1   16 B1   17 B1   20 A1   21 A1   10 B2   11 B2                 
  2.290   2.386   2.532   2.557   2.650   2.692   2.917   2.919
 18 B1   19 B1    9 A2   22 A1   10 A2   20 B1   23 A1   12 B2                 
  3.374   3.458
 21 B1   11 A2                                                                 

--------------------------------------------------------------------------------
                                   HF Summary                                   
--------------------------------------------------------------------------------
  Energy:                                                  -78.5059084151 a.u.
  Dip. moment [a.u.]:                  [  -0.000000,    0.000001,   -6.075224]
  Total dipole [Debye]:                                              15.441682
  <r^2> [a.u.]:                        [  55.513917,   29.117139,  131.680653]
  Total <r^2> [a.u.]:                                               216.311709
--------------------------------------------------------------------------------

--------------------------------------------------------------------------------
                                 MP(2) Summary                                  
--------------------------------------------------------------------------------
  MP energy contribution:                                   -0.3030880796 a.u.
  Total energy:                                            -78.8089964947 a.u.
  Dip. moment [a.u.]:                  [   0.000000,    0.000001,   -5.632391]
  Total dipole [Debye]:                                              14.316113
  <r^2> [a.u.]:                        [  57.108382,   30.395509,  131.144351]
  Total <r^2> [a.u.]:                                               218.648242

  Density matrix analysis:
  ------------------------
  NOs
    Occupation of frontier NOs:
       0.0453   1.9362
    Number of electrons: 18.000000
    Number of unpaired electrons: n_u =  0.47949, n_u,nl =  0.05452
    NO participation ratio (PR_NO): 16.192693
  
  
  Mulliken Population Analysis
  Atom      Charge (e)              h+              e-           Del q
  --------------------------------------------------------------------
   1 C       -0.371435        0.088968       -0.142013       -0.053045
   2 C       -0.371435        0.088968       -0.142013       -0.053045
   3 H        0.067767        0.017581       -0.010503        0.007079
   4 H        0.067772        0.017580       -0.010501        0.007079
   5 H        0.067769        0.017581       -0.010501        0.007079
   6 H        0.067765        0.017581       -0.010502        0.007079
   7 H       -0.528204        0.093791       -0.016016        0.077774
  --------------------------------------------------------------------
  Sum:       -1.000000        0.342050       -0.342050        0.000000
  
  Multipole moment analysis of the density matrix
    Molecular charge:                      -1.000000
    Number of electrons:                   18.000000
      Center of electronic charge [Ang]: [ -0.000000,  -0.000000,   0.165585]
    Total nuclear charge:                  17.000000
      Center of nuclear charge [Ang]:    [ -0.000000,  -0.000000,  -0.000000]
    Dipole moment [D]:                     14.316109
      Cartesian components [D]:          [  0.000000,   0.000002, -14.316109]
    RMS size of the density [Ang]:         1.836879
      Cartesian components [Ang]:        [  0.942573,   0.687653,   1.418736]
  
  Exciton analysis of the difference density matrix
    <r_h> [Ang]:                  [ -0.000000,  -0.000000,   0.727663]
    <r_e> [Ang]:                  [ -0.000000,   0.000000,   0.042566]
    |<r_e - r_h>| [Ang]:            0.685097
    Hole size [Ang]:                2.504840
      Cartesian components [Ang]: [  1.012378,   0.839876,   2.131648]
    Electron size [Ang]:            2.952079
      Cartesian components [Ang]: [  1.526520,   1.323618,   2.152335]
--------------------------------------------------------------------------------
  Starting Davidson for singlet states of irrep B2 ... 
--------------------------------------------------------------------------------
   It NVec Conv  Avg. Norm  Max. Norm  Conv. states           Remark
--------------------------------------------------------------------------------
       100    0  1.069e-01  4.279e-01  0.0851 n n n n n n n n Guess.
    1  110    0  9.095e-03  4.970e-02  0.0309 n n n n n n n n 
    2  120    0  1.419e-02  1.230e-01  0.0308 n n n n n n n n 
    3  130    1  2.509e-02  1.801e-01  0.0308 y n n n n n n n 
    4  140    4  3.099e-03  2.952e-02  0.0308 y y y n y n n n 
    5  150    7  1.425e-03  1.403e-02  0.0308 y y y n y n y n 
    6  160    8  4.203e-04  4.202e-03  0.0308 y y y n y y y n 
    7  170    9  4.176e-05  4.176e-04  0.0308 y y y n y y y y 
    8  180    9  1.712e-06  1.711e-05  0.0308 y y y n y y y y 
    9  190   10  4.453e-08  4.376e-07  0.0308 y y y y y y y y Converged.
--------------------------------------------------------------------------------
  Davidson Summary: 
 ------------------------------------------------------------
  State  0: excitation energy =   0.0308 a.u.   (converged)
  State  1: excitation energy =   0.1313 a.u.   (converged)
  State  2: excitation energy =   0.2597 a.u.   (converged)
  State  3: excitation energy =   0.2875 a.u.   (converged)
  State  4: excitation energy =   0.3011 a.u.   (converged)
  State  5: excitation energy =   0.3091 a.u.   (converged)
  State  6: excitation energy =   0.3298 a.u.   (converged)
  State  7: excitation energy =   0.3323 a.u.   (converged)
  State  8: excitation energy =   0.3356 a.u.   (converged)
  State  9: excitation energy =   0.3473 a.u.   (converged)
 ------------------------------------------------------------


--------------------------------------------------------------------------------
                   State-averaged natural transition orbitals
--------------------------------------------------------------------------------
--------------------------------------------------------------------------------

--------------------------------------------------------------------------------
                             Excited State Summary
--------------------------------------------------------------------------------
--------------------------------------------------------------------------------

  Excited state 1 (singlet, B2)                                    [converged]
  ----------------------------------------------------------------------------
  Term symbol:  1 (1) B2                                    R^2 =  7.01935e-11

  Total energy:                                            -78.7781944684 a.u.
  Excitation energy:                                               0.838166 eV

  Osc. strength:                                                      0.006907
  Trans. dip. moment [a.u.]:           [  -0.000002,    0.579943,    0.000000]
  <i|r^2|0> [a.u.]:                    [  -0.000000,    0.000001,   -0.000000]

  Dip. moment [a.u.]:                  [   0.000000,    0.000001,    0.829394]
  Total dipole [Debye]:                                               2.108108
  <r^2> [a.u.]:                        [  71.419619,   85.872220,   95.300740]
  Total <r^2> [a.u.]:                                               252.592579

  V1^2 = 0.8771, V2^2 = 0.1229

  Important amplitudes:
      occ i      occ j       vir a       vir b          v   
    ---------------------------------------------------------
     5 (A1) A               2 (B2) A                 -0.6585
     5 (A1) A   5 (A1) B    7 (A1) A    2 (B2) B     -0.0877
    ---------------------------------------------------------

  Density matrix analysis:
  ------------------------
  NOs
    Occupation of frontier NOs:
       0.9727   0.9985
    Number of electrons: 18.000000
    Number of unpaired electrons: n_u =  2.41362, n_u,nl =  2.04898
    NO participation ratio (PR_NO):  2.977979
  
  
  Mulliken Population Analysis
  Atom      Charge (e)              h+              e-           Del q
  --------------------------------------------------------------------
   1 C       -0.650461        0.299892       -0.578919       -0.279027
   2 C       -0.650461        0.299892       -0.578919       -0.279027
   3 H        0.067118        0.004925       -0.005574       -0.000650
   4 H        0.067122        0.004924       -0.005574       -0.000649
   5 H        0.067120        0.004924       -0.005574       -0.000649
   6 H        0.067115        0.004925       -0.005574       -0.000650
   7 H        0.032448        0.651037       -0.090386        0.560652
  --------------------------------------------------------------------
  Sum:       -1.000000        1.270519       -1.270519        0.000000
  
  Multipole moment analysis of the density matrix
    Molecular charge:                      -1.000000
    Number of electrons:                   18.000000
      Center of electronic charge [Ang]: [ -0.000000,  -0.000000,  -0.024383]
    Total nuclear charge:                  17.000000
      Center of nuclear charge [Ang]:    [ -0.000000,  -0.000000,  -0.000000]
    Dipole moment [D]:                     2.108108
      Cartesian components [D]:          [  0.000000,   0.000003,   2.108108]
    RMS size of the density [Ang]:         1.982176
      Cartesian components [Ang]:        [  1.054080,   1.155823,   1.217379]
  
  Exciton analysis of the difference density matrix
    <r_h> [Ang]:                  [  0.000000,  -0.000000,   2.719226]
    <r_e> [Ang]:                  [ -0.000000,  -0.000000,   0.027862]
    |<r_e - r_h>| [Ang]:            2.691364
    Hole size [Ang]:                3.475590
      Cartesian components [Ang]: [  1.561295,   1.445202,   2.748359]
    Electron size [Ang]:            5.191785
      Cartesian components [Ang]: [  2.364721,   3.783642,   2.654578]

  Transition density matrix analysis:
  -----------------------------------
  
  CT numbers (Mulliken)
    omega =     0.8659
    <Phe> =     0.0020
  
  Exciton analysis of the transition density matrix
    Trans. dipole moment [D]:             0.737034
      Cartesian components [D]:         [ -0.000002,   0.737034,   0.000000]
    <r_h> [Ang]:                        [  0.000000,  -0.000000,   3.497965]
    <r_e> [Ang]:                        [ -0.000000,  -0.000000,  -0.252583]
    |<r_e - r_h>| [Ang]:                  3.750549
    Hole size [Ang]:                      2.561205
      Cartesian components [Ang]:       [  1.190830,   1.123819,   1.969447]
    Electron size [Ang]:                  5.389702
      Cartesian components [Ang]:       [  2.451577,   4.159464,   2.395312]
    RMS electron-hole separation [Ang]:   7.047803
      Cartesian components [Ang]:       [  2.724916,   4.308523,   4.866517]
    Covariance(r_h, r_e) [Ang^2]:         0.001876
    Correlation coefficient:              0.000136
    Center-of-mass size [Ang]:            2.983807
      Cartesian components [Ang]:       [  1.363034,   2.154348,   1.550492]

  Decomposition into state-averaged NTOs
    H- 0 -> L+ 0: -0.6555 ( 85.9%)
                   omega =  86.6%
  ----------------------------------------------------------------------------


  Excited state 2 (singlet, B2)                                    [converged]
  ----------------------------------------------------------------------------
  Term symbol:  2 (1) B2                                    R^2 =  3.08340e-10

  Total energy:                                            -78.6777206974 a.u.
  Excitation energy:                                               3.572196 eV

  Osc. strength:                                                      0.013399
  Trans. dip. moment [a.u.]:           [   0.000006,   -0.391286,   -0.000000]
  <i|r^2|0> [a.u.]:                    [  -0.000001,   -0.000000,   -0.000000]

  Dip. moment [a.u.]:                  [   0.000000,    0.000001,    0.802633]
  Total dipole [Debye]:                                               2.040090
  <r^2> [a.u.]:                        [  62.308638,   61.853507,   88.072770]
  Total <r^2> [a.u.]:                                               212.234915

  V1^2 = 0.8869, V2^2 = 0.1131

  Important amplitudes:
      occ i      occ j       vir a       vir b          v   
    ---------------------------------------------------------
     5 (A1) A               3 (B2) A                  0.6608
     5 (A1) A   5 (A1) B    7 (A1) A    3 (B2) B      0.0779
    ---------------------------------------------------------

  Density matrix analysis:
  ------------------------
  NOs
    Occupation of frontier NOs:
       0.9739   0.9936
    Number of electrons: 18.000000
    Number of unpaired electrons: n_u =  2.42084, n_u,nl =  2.05101
    NO participation ratio (PR_NO):  3.006171
  
  
  Mulliken Population Analysis
  Atom      Charge (e)              h+              e-           Del q
  --------------------------------------------------------------------
   1 C       -0.752465        0.299029       -0.680060       -0.381031
   2 C       -0.752465        0.299029       -0.680060       -0.381031
   3 H        0.116576        0.002843        0.045965        0.048808
   4 H        0.116580        0.002843        0.045965        0.048808
   5 H        0.116577        0.002843        0.045965        0.048808
   6 H        0.116573        0.002843        0.045965        0.048808
   7 H        0.038624        0.645372       -0.078544        0.566828
  --------------------------------------------------------------------
  Sum:       -1.000000        1.254803       -1.254803       -0.000000
  
  Multipole moment analysis of the density matrix
    Molecular charge:                      -1.000000
    Number of electrons:                   18.000000
      Center of electronic charge [Ang]: [ -0.000000,  -0.000000,  -0.023597]
    Total nuclear charge:                  17.000000
      Center of nuclear charge [Ang]:    [ -0.000000,  -0.000000,  -0.000000]
    Dipole moment [D]:                     2.040090
      Cartesian components [D]:          [  0.000000,   0.000002,   2.040090]
    RMS size of the density [Ang]:         1.816924
      Cartesian components [Ang]:        [  0.984553,   0.980950,   1.170301]
  
  Exciton analysis of the difference density matrix
    <r_h> [Ang]:                  [  0.000000,  -0.000000,   2.735802]
    <r_e> [Ang]:                  [ -0.000000,   0.000000,   0.022015]
    |<r_e - r_h>| [Ang]:            2.713786
    Hole size [Ang]:                3.397250
      Cartesian components [Ang]: [  1.526231,   1.415526,   2.684811]
    Electron size [Ang]:            4.194544
      Cartesian components [Ang]: [  1.868127,   3.004005,   2.253942]

  Transition density matrix analysis:
  -----------------------------------
  
  CT numbers (Mulliken)
    omega =     0.8741
    <Phe> =     0.0006
  
  Exciton analysis of the transition density matrix
    Trans. dipole moment [D]:             0.497275
      Cartesian components [D]:         [  0.000007,  -0.497275,  -0.000000]
    <r_h> [Ang]:                        [  0.000000,  -0.000000,   3.502376]
    <r_e> [Ang]:                        [ -0.000000,   0.000000,  -0.252305]
    |<r_e - r_h>| [Ang]:                  3.754681
    Hole size [Ang]:                      2.547606
      Cartesian components [Ang]:       [  1.183862,   1.117635,   1.959506]
    Electron size [Ang]:                  4.185518
      Cartesian components [Ang]:       [  1.838276,   3.245116,   1.899612]
    RMS electron-hole separation [Ang]:   6.172786
      Cartesian components [Ang]:       [  2.185794,   3.432063,   4.641825]
    Covariance(r_h, r_e) [Ang^2]:         0.001603
    Correlation coefficient:              0.000150
    Center-of-mass size [Ang]:            2.450105
      Cartesian components [Ang]:       [  1.093604,   1.716153,   1.364503]

  Decomposition into state-averaged NTOs
    H- 0 -> L+ 1:  0.6465 ( 83.6%)
    H- 0 -> L+ 3:  0.1256 (  3.2%)
                   omega =  87.4%
  ----------------------------------------------------------------------------


  Excited state 3 (singlet, B2)                                    [converged]
  ----------------------------------------------------------------------------
  Term symbol:  3 (1) B2                                    R^2 =  2.51282e-10

  Total energy:                                            -78.5492570118 a.u.
  Excitation energy:                                               7.067871 eV

  Osc. strength:                                                      0.000511
  Trans. dip. moment [a.u.]:           [   0.000006,    0.054348,    0.000000]
  <i|r^2|0> [a.u.]:                    [   0.000000,    0.000000,    0.000000]

  Dip. moment [a.u.]:                  [   0.000000,    0.000001,   -5.717917]
  Total dipole [Debye]:                                              14.533499
  <r^2> [a.u.]:                        [  69.337153,   74.151766,  141.433947]
  Total <r^2> [a.u.]:                                               284.922866

  V1^2 = 0.9469, V2^2 = 0.0531

  Important amplitudes:
      occ i      occ j       vir a       vir b          v   
    ---------------------------------------------------------
     4 (A1) A               2 (B2) A                  0.6336
     4 (A1) A               3 (B2) A                  0.2568
    ---------------------------------------------------------

  Density matrix analysis:
  ------------------------
  NOs
    Occupation of frontier NOs:
       0.9849   0.9958
    Number of electrons: 18.000000
    Number of unpaired electrons: n_u =  2.36823, n_u,nl =  2.03333
    NO participation ratio (PR_NO):  2.846288
  
  
  Mulliken Population Analysis
  Atom      Charge (e)              h+              e-           Del q
  --------------------------------------------------------------------
   1 C       -0.520041        0.538769       -0.687375       -0.148606
   2 C       -0.520041        0.538769       -0.687375       -0.148606
   3 H        0.141796        0.099504       -0.025475        0.074029
   4 H        0.141791        0.099496       -0.025476        0.074020
   5 H        0.141788        0.099496       -0.025476        0.074019
   6 H        0.141793        0.099503       -0.025475        0.074029
   7 H       -0.527087        0.023934       -0.022817        0.001117
  --------------------------------------------------------------------
  Sum:       -1.000000        1.499470       -1.499470        0.000000
  
  Multipole moment analysis of the density matrix
    Molecular charge:                      -1.000000
    Number of electrons:                   18.000000
      Center of electronic charge [Ang]: [ -0.000000,  -0.000000,   0.168099]
    Total nuclear charge:                  17.000000
      Center of nuclear charge [Ang]:    [ -0.000000,  -0.000000,  -0.000000]
    Dipole moment [D]:                     14.533495
      Cartesian components [D]:          [  0.000000,   0.000002, -14.533495]
    RMS size of the density [Ang]:         2.098649
      Cartesian components [Ang]:        [  1.038599,   1.074053,   1.473788]
  
  Exciton analysis of the difference density matrix
    <r_h> [Ang]:                  [  0.000000,  -0.000000,  -0.195990]
    <r_e> [Ang]:                  [ -0.000000,  -0.000000,  -0.165807]
    |<r_e - r_h>| [Ang]:            0.030183
    Hole size [Ang]:                1.875561
      Cartesian components [Ang]: [  1.116411,   0.903718,   1.206089]
    Electron size [Ang]:            3.988176
      Cartesian components [Ang]: [  1.878861,   2.998043,   1.840427]

  Transition density matrix analysis:
  -----------------------------------
  
  CT numbers (Mulliken)
    omega =     0.9163
    <Phe> =    -0.0013
  
  Exciton analysis of the transition density matrix
    Trans. dipole moment [D]:             0.069070
      Cartesian components [D]:         [  0.000007,   0.069070,   0.000000]
    <r_h> [Ang]:                        [  0.000000,  -0.000000,  -0.287166]
    <r_e> [Ang]:                        [ -0.000000,  -0.000000,  -0.252494]
    |<r_e - r_h>| [Ang]:                  0.034672
    Hole size [Ang]:                      1.259100
      Cartesian components [Ang]:       [  0.757513,   0.511068,   0.866208]
    Electron size [Ang]:                  4.691197
      Cartesian components [Ang]:       [  2.166029,   3.609732,   2.070140]
    RMS electron-hole separation [Ang]:   4.855846
      Cartesian components [Ang]:       [  2.292022,   3.645413,   2.244291]
    Covariance(r_h, r_e) [Ang^2]:         0.007309
    Correlation coefficient:              0.001237
    Center-of-mass size [Ang]:            2.429366
      Cartesian components [Ang]:       [  1.148657,   1.823025,   1.122046]

  Decomposition into state-averaged NTOs
    H- 1 -> L+ 0: -0.6609 ( 87.4%)
    H- 1 -> L+ 1: -0.1437 (  4.1%)
                   omega =  91.6%
  ----------------------------------------------------------------------------


  Excited state 4 (singlet, B2)                                    [converged]
  ----------------------------------------------------------------------------
  Term symbol:  4 (1) B2                                    R^2 =  4.37603e-07

  Total energy:                                            -78.5215089325 a.u.
  Excitation energy:                                               7.822934 eV

  Osc. strength:                                                      0.000147
  Trans. dip. moment [a.u.]:           [   0.000000,   -0.027648,    0.000000]
  <i|r^2|0> [a.u.]:                    [   0.000000,   -0.000000,   -0.000000]

  Dip. moment [a.u.]:                  [   0.000000,    0.000001,   13.401251]
  Total dipole [Debye]:                                              34.062589
  <r^2> [a.u.]:                        [ 184.598688,  109.231153,   72.927320]
  Total <r^2> [a.u.]:                                               366.757161

  V1^2 = 0.0001, V2^2 = 0.9999

  Important amplitudes:
      occ i      occ j       vir a       vir b          v   
    ---------------------------------------------------------
     5 (A1) A   5 (A1) B    2 (A2) A    3 (B1) B      0.3535
     5 (A1) A               4 (B2) A                 -0.0069
    ---------------------------------------------------------

  Density matrix analysis:
  ------------------------
  NOs
    Occupation of frontier NOs:
       0.9998   0.9998
    Number of electrons: 18.000000
    Number of unpaired electrons: n_u =  2.41103, n_u,nl =  2.10787
    NO participation ratio (PR_NO):  2.868948
  
  
  Mulliken Population Analysis
  Atom      Charge (e)              h+              e-           Del q
  --------------------------------------------------------------------
   1 C       -1.159837        0.203692       -0.992095       -0.788402
   2 C       -1.159837        0.203692       -0.992095       -0.788402
   3 H        0.060707       -0.003141       -0.003919       -0.007060
   4 H        0.060712       -0.003141       -0.003919       -0.007060
   5 H        0.060709       -0.003141       -0.003919       -0.007060
   6 H        0.060705       -0.003141       -0.003919       -0.007060
   7 H        1.076842        1.605067       -0.000021        1.605045
  --------------------------------------------------------------------
  Sum:       -1.000000        1.999886       -1.999886       -0.000000
  
  Multipole moment analysis of the density matrix
    Molecular charge:                      -1.000000
    Number of electrons:                   18.000000
      Center of electronic charge [Ang]: [ -0.000000,  -0.000000,  -0.393980]
    Total nuclear charge:                  17.000000
      Center of nuclear charge [Ang]:    [ -0.000000,  -0.000000,  -0.000000]
    Dipole moment [D]:                     34.062578
      Cartesian components [D]:          [  0.000000,   0.000003,  34.062578]
    RMS size of the density [Ang]:         2.355944
      Cartesian components [Ang]:        [  1.694647,   1.303581,   0.989606]
  
  Exciton analysis of the difference density matrix
    <r_h> [Ang]:                  [ -0.000000,  -0.000000,   3.688557]
    <r_e> [Ang]:                  [  0.000000,  -0.000000,  -1.347815]
    |<r_e - r_h>| [Ang]:            5.036372
    Hole size [Ang]:                2.152530
      Cartesian components [Ang]: [  1.031443,   0.980737,   1.614827]
    Electron size [Ang]:            6.095964
      Cartesian components [Ang]: [  4.349178,   3.464186,   2.498967]

  Transition density matrix analysis:
  -----------------------------------
  
  CT numbers (Mulliken)
    omega =     0.0001
    <Phe> =     0.0359
  
  Exciton analysis of the transition density matrix
    Trans. dipole moment [D]:             0.035137
      Cartesian components [D]:         [  0.000000,  -0.035137,   0.000000]
    <r_h> [Ang]:                        [  0.000000,  -0.000000,   2.815174]
    <r_e> [Ang]:                        [ -0.000000,   0.000001,  -0.262665]
    |<r_e - r_h>| [Ang]:                  3.077840
    Hole size [Ang]:                      3.573147
      Cartesian components [Ang]:       [  1.773181,   1.378705,   2.778918]
    Electron size [Ang]:                  3.733271
      Cartesian components [Ang]:       [  2.075187,   2.685124,   1.555962]
    RMS electron-hole separation [Ang]:   6.099781
      Cartesian components [Ang]:       [  2.980402,   2.961741,   4.421835]
    Covariance(r_h, r_e) [Ang^2]:        -0.514773
    Correlation coefficient:             -0.038590
    Center-of-mass size [Ang]:            2.533532
      Cartesian components [Ang]:       [  1.226615,   1.537004,   1.597441]

  Decomposition into state-averaged NTOs
                   omega =   0.0%
  ----------------------------------------------------------------------------


  Excited state 5 (singlet, B2)                                    [converged]
  ----------------------------------------------------------------------------
  Term symbol:  5 (1) B2                                    R^2 =  4.48424e-09

  Total energy:                                            -78.5078758439 a.u.
  Excitation energy:                                               8.193910 eV

  Osc. strength:                                                      0.015763
  Trans. dip. moment [a.u.]:           [   0.000001,   -0.280217,    0.000000]
  <i|r^2|0> [a.u.]:                    [   0.000001,    0.000000,   -0.000002]

  Dip. moment [a.u.]:                  [   0.000000,   -0.000000,    0.823704]
  Total dipole [Debye]:                                               2.093647
  <r^2> [a.u.]:                        [  59.540972,   38.381136,   80.550866]
  Total <r^2> [a.u.]:                                               178.472974

  V1^2 = 0.8850, V2^2 = 0.1150

  Important amplitudes:
      occ i      occ j       vir a       vir b          v   
    ---------------------------------------------------------
     5 (A1) A               4 (B2) A                 -0.6615
     5 (A1) A   5 (A1) B    7 (A1) A    4 (B2) B     -0.0695
    ---------------------------------------------------------

  Density matrix analysis:
  ------------------------
  NOs
    Occupation of frontier NOs:
       0.9745   0.9814
    Number of electrons: 18.000000
    Number of unpaired electrons: n_u =  2.44467, n_u,nl =  2.05901
    NO participation ratio (PR_NO):  3.098747
  
  
  Mulliken Population Analysis
  Atom      Charge (e)              h+              e-           Del q
  --------------------------------------------------------------------
   1 C       -0.148038        0.332051       -0.108655        0.223396
   2 C       -0.148038        0.332051       -0.108655        0.223396
   3 H       -0.188847        0.007837       -0.264451       -0.256614
   4 H       -0.188840        0.007838       -0.264450       -0.256612
   5 H       -0.188843        0.007838       -0.264449       -0.256612
   6 H       -0.188849        0.007837       -0.264451       -0.256614
   7 H        0.051456        0.642986       -0.063326        0.579659
  --------------------------------------------------------------------
  Sum:       -1.000000        1.338438       -1.338438        0.000000
  
  Multipole moment analysis of the density matrix
    Molecular charge:                      -1.000000
    Number of electrons:                   18.000000
      Center of electronic charge [Ang]: [ -0.000000,  -0.000000,  -0.024216]
    Total nuclear charge:                  17.000000
      Center of nuclear charge [Ang]:    [ -0.000000,  -0.000000,  -0.000000]
    Dipole moment [D]:                     2.093646
      Cartesian components [D]:          [  0.000000,  -0.000000,   2.093646]
    RMS size of the density [Ang]:         1.666116
      Cartesian components [Ang]:        [  0.962438,   0.772723,   1.119176]
  
  Exciton analysis of the difference density matrix
    <r_h> [Ang]:                  [  0.000000,  -0.000000,   2.519705]
    <r_e> [Ang]:                  [ -0.000000,   0.000000,  -0.032836]
    |<r_e - r_h>| [Ang]:            2.552541
    Hole size [Ang]:                3.322871
      Cartesian components [Ang]: [  1.463327,   1.347352,   2.661728]
    Electron size [Ang]:            2.997303
      Cartesian components [Ang]: [  1.627966,   1.867113,   1.687437]

  Transition density matrix analysis:
  -----------------------------------
  
  CT numbers (Mulliken)
    omega =     0.8692
    <Phe> =    -0.0003
  
  Exciton analysis of the transition density matrix
    Trans. dipole moment [D]:             0.356120
      Cartesian components [D]:         [  0.000001,  -0.356120,   0.000000]
    <r_h> [Ang]:                        [ -0.000000,  -0.000000,   3.499428]
    <r_e> [Ang]:                        [ -0.000000,   0.000000,  -0.251740]
    |<r_e - r_h>| [Ang]:                  3.751168
    Hole size [Ang]:                      2.536891
      Cartesian components [Ang]:       [  1.175309,   1.109858,   1.955168]
    Electron size [Ang]:                  2.761871
      Cartesian components [Ang]:       [  1.559236,   1.953738,   1.174572]
    RMS electron-hole separation [Ang]:   5.303503
      Cartesian components [Ang]:       [  1.950536,   2.246682,   4.390327]
    Covariance(r_h, r_e) [Ang^2]:         0.003931
    Correlation coefficient:              0.000561
    Center-of-mass size [Ang]:            1.875607
      Cartesian components [Ang]:       [  0.977311,   1.123630,   1.140273]

  Decomposition into state-averaged NTOs
    H- 0 -> L+ 3:  0.6467 ( 83.7%)
    H- 0 -> L+ 1: -0.1228 (  3.0%)
                   omega =  86.9%
  ----------------------------------------------------------------------------


  Excited state 6 (singlet, B2)                                    [converged]
  ----------------------------------------------------------------------------
  Term symbol:  6 (1) B2                                    R^2 =  5.79835e-08

  Total energy:                                            -78.4998892793 a.u.
  Excitation energy:                                               8.411235 eV

  Osc. strength:                                                      0.000049
  Trans. dip. moment [a.u.]:           [  -0.000000,    0.015481,    0.000000]
  <i|r^2|0> [a.u.]:                    [  -0.000000,    0.000000,   -0.000000]

  Dip. moment [a.u.]:                  [   0.000000,    0.000001,   10.549754]
  Total dipole [Debye]:                                              26.814804
  <r^2> [a.u.]:                        [ 139.999740,  112.430067,   69.655077]
  Total <r^2> [a.u.]:                                               322.084884

  V1^2 = 0.0037, V2^2 = 0.9963

  Important amplitudes:
      occ i      occ j       vir a       vir b          v   
    ---------------------------------------------------------
     5 (A1) A   5 (A1) B    6 (A1) A    2 (B2) B      0.3459
     5 (A1) A   5 (A1) B    7 (A1) A    2 (B2) B     -0.0678
    ---------------------------------------------------------

  Density matrix analysis:
  ------------------------
  NOs
    Occupation of frontier NOs:
       0.9990   1.0017
    Number of electrons: 18.000000
    Number of unpaired electrons: n_u =  2.40792, n_u,nl =  2.10402
    NO participation ratio (PR_NO):  2.869452
  
  
  Mulliken Population Analysis
  Atom      Charge (e)              h+              e-           Del q
  --------------------------------------------------------------------
   1 C       -1.143544        0.203674       -0.975784       -0.772109
   2 C       -1.143544        0.203674       -0.975784       -0.772109
   3 H        0.053002       -0.003149       -0.011616       -0.014765
   4 H        0.053007       -0.003149       -0.011616       -0.014765
   5 H        0.053004       -0.003149       -0.011616       -0.014765
   6 H        0.053000       -0.003149       -0.011616       -0.014765
   7 H        1.075075        1.603097        0.000181        1.603278
  --------------------------------------------------------------------
  Sum:       -1.000000        1.997850       -1.997850        0.000000
  
  Multipole moment analysis of the density matrix
    Molecular charge:                      -1.000000
    Number of electrons:                   18.000000
      Center of electronic charge [Ang]: [ -0.000000,  -0.000000,  -0.310150]
    Total nuclear charge:                  17.000000
      Center of nuclear charge [Ang]:    [ -0.000000,  -0.000000,  -0.000000]
    Dipole moment [D]:                     26.814796
      Cartesian components [D]:          [  0.000000,   0.000003,  26.814796]
    RMS size of the density [Ang]:         2.216873
      Cartesian components [Ang]:        [  1.475803,   1.322532,   0.993701]
  
  Exciton analysis of the difference density matrix
    <r_h> [Ang]:                  [  0.000000,  -0.000000,   3.693722]
    <r_e> [Ang]:                  [ -0.000000,  -0.000000,  -0.592498]
    |<r_e - r_h>| [Ang]:            4.286220
    Hole size [Ang]:                2.141518
      Cartesian components [Ang]: [  1.049736,   0.981158,   1.587917]
    Electron size [Ang]:            5.690063
      Cartesian components [Ang]: [  3.566568,   3.530020,   2.682418]

  Transition density matrix analysis:
  -----------------------------------
  
  CT numbers (Mulliken)
    omega =     0.0038
    <Phe> =     0.0081
  
  Exciton analysis of the transition density matrix
    Trans. dipole moment [D]:             0.019675
      Cartesian components [D]:         [ -0.000000,   0.019675,   0.000000]
    <r_h> [Ang]:                        [ -0.000000,  -0.000000,   3.761288]
    <r_e> [Ang]:                        [ -0.000000,   0.000000,  -0.255412]
    |<r_e - r_h>| [Ang]:                  4.016699
    Hole size [Ang]:                      1.758916
      Cartesian components [Ang]:       [  0.829889,   0.818874,   1.317011]
    Electron size [Ang]:                  5.405597
      Cartesian components [Ang]:       [  2.530795,   4.139533,   2.383238]
    RMS electron-hole separation [Ang]:   6.956591
      Cartesian components [Ang]:       [  2.662046,   4.216920,   4.850284]
    Covariance(r_h, r_e) [Ang^2]:         0.026993
    Correlation coefficient:              0.002839
    Center-of-mass size [Ang]:            2.844655
      Cartesian components [Ang]:       [  1.332365,   2.111289,   1.363571]

  Decomposition into state-averaged NTOs
                   omega =   0.4%
  ----------------------------------------------------------------------------


  Excited state 7 (singlet, B2)                                    [converged]
  ----------------------------------------------------------------------------
  Term symbol:  7 (1) B2                                    R^2 =  3.59894e-09

  Total energy:                                            -78.4792414878 a.u.
  Excitation energy:                                               8.973090 eV

  Osc. strength:                                                      0.001114
  Trans. dip. moment [a.u.]:           [   0.000011,    0.071195,    0.000000]
  <i|r^2|0> [a.u.]:                    [   0.000000,    0.000000,    0.000000]

  Dip. moment [a.u.]:                  [   0.000000,    0.000000,   -5.621509]
  Total dipole [Debye]:                                              14.288454
  <r^2> [a.u.]:                        [  67.679698,   68.251769,  141.121658]
  Total <r^2> [a.u.]:                                               277.053124

  V1^2 = 0.9495, V2^2 = 0.0505

  Important amplitudes:
      occ i      occ j       vir a       vir b          v   
    ---------------------------------------------------------
     4 (A1) A               3 (B2) A                  0.5601
     4 (A1) A               2 (B2) A                 -0.2479
    ---------------------------------------------------------

  Density matrix analysis:
  ------------------------
  NOs
    Occupation of frontier NOs:
       0.8445   1.1264
    Number of electrons: 18.000000
    Number of unpaired electrons: n_u =  2.41597, n_u,nl =  2.14192
    NO participation ratio (PR_NO):  3.787307
  
  
  Mulliken Population Analysis
  Atom      Charge (e)              h+              e-           Del q
  --------------------------------------------------------------------
   1 C       -0.547935        0.452909       -0.629409       -0.176500
   2 C       -0.547935        0.452909       -0.629409       -0.176500
   3 H        0.156033        0.096570       -0.008305        0.088265
   4 H        0.156029        0.096564       -0.008307        0.088257
   5 H        0.156026        0.096564       -0.008307        0.088257
   6 H        0.156030        0.096570       -0.008305        0.088265
   7 H       -0.528247        0.017205       -0.017248       -0.000044
  --------------------------------------------------------------------
  Sum:       -1.000000        1.309291       -1.309291       -0.000000
  
  Multipole moment analysis of the density matrix
    Molecular charge:                      -1.000000
    Number of electrons:                   18.000000
      Center of electronic charge [Ang]: [ -0.000000,  -0.000000,   0.165265]
    Total nuclear charge:                  17.000000
      Center of nuclear charge [Ang]:    [ -0.000000,  -0.000000,  -0.000000]
    Dipole moment [D]:                     14.288449
      Cartesian components [D]:          [  0.000000,   0.000000, -14.288449]
    RMS size of the density [Ang]:         2.069503
      Cartesian components [Ang]:        [  1.026110,   1.030438,   1.472459]
  
  Exciton analysis of the difference density matrix
    <r_h> [Ang]:                  [  0.000000,  -0.000000,  -0.210168]
    <r_e> [Ang]:                  [ -0.000000,   0.000000,  -0.214566]
    |<r_e - r_h>| [Ang]:            0.004398
    Hole size [Ang]:                1.885081
      Cartesian components [Ang]: [  1.130753,   0.951389,   1.170379]
    Electron size [Ang]:            4.005394
      Cartesian components [Ang]: [  1.881376,   3.000294,   1.871322]

  Transition density matrix analysis:
  -----------------------------------
  
  CT numbers (Mulliken)
    omega =     0.9183
    <Phe> =    -0.0083
  
  Exciton analysis of the transition density matrix
    Trans. dipole moment [D]:             0.090480
      Cartesian components [D]:         [  0.000014,   0.090480,   0.000000]
    <r_h> [Ang]:                        [  0.000000,  -0.000000,  -0.276001]
    <r_e> [Ang]:                        [ -0.000000,   0.000000,  -0.293178]
    |<r_e - r_h>| [Ang]:                  0.017177
    Hole size [Ang]:                      1.310537
      Cartesian components [Ang]:       [  0.821987,   0.594239,   0.829894]
    Electron size [Ang]:                  4.404553
      Cartesian components [Ang]:       [  2.036124,   3.364118,   1.984185]
    RMS electron-hole separation [Ang]:   4.592092
      Cartesian components [Ang]:       [  2.189656,   3.415523,   2.151027]
    Covariance(r_h, r_e) [Ang^2]:         0.015289
    Correlation coefficient:              0.002649
    Center-of-mass size [Ang]:            2.299357
      Cartesian components [Ang]:       [  1.100947,   1.708437,   1.075268]

  Decomposition into state-averaged NTOs
    H- 1 -> L+ 1: -0.6099 ( 74.4%)
    H- 2 -> L+ 2: -0.2601 ( 13.5%)
    H- 1 -> L+ 0:  0.1340 (  3.6%)
                   omega =  91.8%
  ----------------------------------------------------------------------------


  Excited state 8 (singlet, B2)                                    [converged]
  ----------------------------------------------------------------------------
  Term symbol:  8 (1) B2                                    R^2 =  5.83419e-09

  Total energy:                                            -78.4766956672 a.u.
  Excitation energy:                                               9.042365 eV

  Osc. strength:                                                      0.000058
  Trans. dip. moment [a.u.]:           [   0.000000,   -0.016118,   -0.000000]
  <i|r^2|0> [a.u.]:                    [  -0.000000,   -0.000000,   -0.000000]

  Dip. moment [a.u.]:                  [   0.000000,    0.000001,    5.123172]
  Total dipole [Debye]:                                              13.021807
  <r^2> [a.u.]:                        [ 173.476470,  105.046786,   83.622273]
  Total <r^2> [a.u.]:                                               362.145528

  V1^2 = 0.0002, V2^2 = 0.9998

  Important amplitudes:
      occ i      occ j       vir a       vir b          v   
    ---------------------------------------------------------
     5 (A1) A   5 (A1) B    2 (A2) A    4 (B1) B      0.3531
     5 (A1) A   5 (A1) B    7 (A1) A    2 (B2) B     -0.0178
    ---------------------------------------------------------

  Density matrix analysis:
  ------------------------
  NOs
    Occupation of frontier NOs:
       0.9973   0.9975
    Number of electrons: 18.000000
    Number of unpaired electrons: n_u =  2.41148, n_u,nl =  2.10813
    NO participation ratio (PR_NO):  2.883560
  
  
  Mulliken Population Analysis
  Atom      Charge (e)              h+              e-           Del q
  --------------------------------------------------------------------
   1 C       -1.155338        0.203687       -0.987590       -0.783903
   2 C       -1.155338        0.203687       -0.987590       -0.783903
   3 H        0.058553       -0.003120       -0.006095       -0.009215
   4 H        0.058557       -0.003120       -0.006095       -0.009215
   5 H        0.058554       -0.003120       -0.006095       -0.009215
   6 H        0.058550       -0.003120       -0.006095       -0.009215
   7 H        1.076462        1.604888       -0.000223        1.604666
  --------------------------------------------------------------------
  Sum:       -1.000000        1.999782       -1.999782       -0.000000
  
  Multipole moment analysis of the density matrix
    Molecular charge:                      -1.000000
    Number of electrons:                   18.000000
      Center of electronic charge [Ang]: [ -0.000000,  -0.000000,  -0.150615]
    Total nuclear charge:                  17.000000
      Center of nuclear charge [Ang]:    [ -0.000000,  -0.000000,  -0.000000]
    Dipole moment [D]:                     13.021803
      Cartesian components [D]:          [  0.000000,   0.000002,  13.021803]
    RMS size of the density [Ang]:         2.368811
      Cartesian components [Ang]:        [  1.642802,   1.278369,   1.130592]
  
  Exciton analysis of the difference density matrix
    <r_h> [Ang]:                  [ -0.000000,  -0.000000,   3.688211]
    <r_e> [Ang]:                  [  0.000000,  -0.000000,   0.842101]
    |<r_e - r_h>| [Ang]:            2.846110
    Hole size [Ang]:                2.152592
      Cartesian components [Ang]: [  1.031333,   0.980620,   1.615051]
    Electron size [Ang]:            6.133619
      Cartesian components [Ang]: [  4.166367,   3.378609,   2.974502]

  Transition density matrix analysis:
  -----------------------------------
  
  CT numbers (Mulliken)
    omega =     0.0003
    <Phe> =     0.0282
  
  Exciton analysis of the transition density matrix
    Trans. dipole moment [D]:             0.020484
      Cartesian components [D]:         [  0.000000,  -0.020484,  -0.000000]
    <r_h> [Ang]:                        [ -0.000000,  -0.000000,   0.460610]
    <r_e> [Ang]:                        [ -0.000000,   0.000000,  -0.327259]
    |<r_e - r_h>| [Ang]:                  0.787870
    Hole size [Ang]:                      2.926697
      Cartesian components [Ang]:       [  1.748092,   1.147256,   2.047812]
    Electron size [Ang]:                  4.729375
      Cartesian components [Ang]:       [  2.643750,   3.354279,   2.031349]
    RMS electron-hole separation [Ang]:   5.718346
      Cartesian components [Ang]:       [  3.373238,   3.534018,   2.971777]
    Covariance(r_h, r_e) [Ang^2]:        -0.573101
    Correlation coefficient:             -0.041405
    Center-of-mass size [Ang]:            2.728843
      Cartesian components [Ang]:       [  1.475784,   1.778024,   1.451646]

  Decomposition into state-averaged NTOs
                   omega =   0.0%
  ----------------------------------------------------------------------------


  Excited state 9 (singlet, B2)                                    [converged]
  ----------------------------------------------------------------------------
  Term symbol:  9 (1) B2                                    R^2 =  1.56377e-09

  Total energy:                                            -78.4733712731 a.u.
  Excitation energy:                                               9.132827 eV

  Osc. strength:                                                      0.001565
  Trans. dip. moment [a.u.]:           [   0.000008,   -0.083624,   -0.000000]
  <i|r^2|0> [a.u.]:                    [  -0.000000,   -0.000000,    0.000000]

  Dip. moment [a.u.]:                  [  -0.000000,    0.000000,   -5.041677]
  Total dipole [Debye]:                                              12.814666
  <r^2> [a.u.]:                        [  63.155527,   36.861449,  137.821047]
  Total <r^2> [a.u.]:                                               237.838023

  V1^2 = 0.9497, V2^2 = 0.0503

  Important amplitudes:
      occ i      occ j       vir a       vir b          v   
    ---------------------------------------------------------
     1 (A2) A               6 (B1) A                  0.4523
     1 (A2) A               7 (B1) A                  0.3042
    ---------------------------------------------------------

  Density matrix analysis:
  ------------------------
  NOs
    Occupation of frontier NOs:
       0.8516   1.1536
    Number of electrons: 18.000000
    Number of unpaired electrons: n_u =  2.45258, n_u,nl =  2.15917
    NO participation ratio (PR_NO):  3.969054
  
  
  Mulliken Population Analysis
  Atom      Charge (e)              h+              e-           Del q
  --------------------------------------------------------------------
   1 C       -0.644179        0.261032       -0.533777       -0.272744
   2 C       -0.644179        0.261032       -0.533777       -0.272744
   3 H        0.204223        0.137110       -0.000654        0.136456
   4 H        0.204226        0.137109       -0.000654        0.136455
   5 H        0.204223        0.137108       -0.000655        0.136454
   6 H        0.204220        0.137110       -0.000654        0.136455
   7 H       -0.528535        0.005499       -0.005830       -0.000331
  --------------------------------------------------------------------
  Sum:       -1.000000        1.076001       -1.076001        0.000000
  
  Multipole moment analysis of the density matrix
    Molecular charge:                      -1.000000
    Number of electrons:                   18.000000
      Center of electronic charge [Ang]: [  0.000000,  -0.000000,   0.148219]
    Total nuclear charge:                  17.000000
      Center of nuclear charge [Ang]:    [ -0.000000,  -0.000000,  -0.000000]
    Dipole moment [D]:                     12.814662
      Cartesian components [D]:          [ -0.000000,   0.000000, -12.814662]
    RMS size of the density [Ang]:         1.917840
      Cartesian components [Ang]:        [  0.991221,   0.757271,   1.456754]
  
  Exciton analysis of the difference density matrix
    <r_h> [Ang]:                  [ -0.000000,  -0.000000,  -0.244885]
    <r_e> [Ang]:                  [  0.000000,  -0.000000,  -0.535398]
    |<r_e - r_h>| [Ang]:            0.290513
    Hole size [Ang]:                1.672126
      Cartesian components [Ang]: [  1.142140,   0.948330,   0.769539]
    Electron size [Ang]:            2.750172
      Cartesian components [Ang]: [  1.696540,   1.606887,   1.450211]

  Transition density matrix analysis:
  -----------------------------------
  
  CT numbers (Mulliken)
    omega =     0.9206
    <Phe> =    -0.0064
  
  Exciton analysis of the transition density matrix
    Trans. dipole moment [D]:             0.106275
      Cartesian components [D]:         [  0.000010,  -0.106275,  -0.000000]
    <r_h> [Ang]:                        [  0.000000,  -0.000000,  -0.259545]
    <r_e> [Ang]:                        [  0.000000,  -0.000000,  -0.586636]
    |<r_e - r_h>| [Ang]:                  0.327091
    Hole size [Ang]:                      1.479414
      Cartesian components [Ang]:       [  1.073522,   0.884186,   0.504411]
    Electron size [Ang]:                  2.768245
      Cartesian components [Ang]:       [  1.722691,   1.632612,   1.424814]
    RMS electron-hole separation [Ang]:   3.135381
      Cartesian components [Ang]:       [  2.000648,   1.853097,   1.547273]
    Covariance(r_h, r_e) [Ang^2]:         0.064107
    Correlation coefficient:              0.015654
    Center-of-mass size [Ang]:            1.579562
      Cartesian components [Ang]:       [  1.029275,   0.930113,   0.755312]

  Decomposition into state-averaged NTOs
    H- 2 -> L+ 2:  0.6248 ( 78.1%)
    H- 1 -> L+ 1: -0.2573 ( 13.2%)
                   omega =  92.1%
  ----------------------------------------------------------------------------


  Excited state 10 (singlet, B2)                                    [converged]
  ----------------------------------------------------------------------------
  Term symbol:  10 (1) B2                                   R^2 =  5.77981e-08

  Total energy:                                            -78.4617145492 a.u.
  Excitation energy:                                               9.450022 eV

  Osc. strength:                                                      0.000548
  Trans. dip. moment [a.u.]:           [  -0.000000,   -0.048672,   -0.000000]
  <i|r^2|0> [a.u.]:                    [   0.000000,   -0.000000,    0.000000]

  Dip. moment [a.u.]:                  [   0.000000,    0.000001,   10.881719]
  Total dipole [Debye]:                                              27.658577
  <r^2> [a.u.]:                        [ 109.713235,  103.357236,   68.241775]
  Total <r^2> [a.u.]:                                               281.312246

  V1^2 = 0.0366, V2^2 = 0.9634

  Important amplitudes:
      occ i      occ j       vir a       vir b          v   
    ---------------------------------------------------------
     5 (A1) A   5 (A1) B    7 (A1) A    2 (B2) B     -0.3198
     5 (A1) A               2 (B2) A                  0.1329
    ---------------------------------------------------------

  Density matrix analysis:
  ------------------------
  NOs
    Occupation of frontier NOs:
       0.9970   1.0207
    Number of electrons: 18.000000
    Number of unpaired electrons: n_u =  2.37197, n_u,nl =  2.08884
    NO participation ratio (PR_NO):  2.847993
  
  
  Mulliken Population Analysis
  Atom      Charge (e)              h+              e-           Del q
  --------------------------------------------------------------------
   1 C       -1.215806        0.186014       -1.030386       -0.844372
   2 C       -1.215806        0.186014       -1.030386       -0.844372
   3 H        0.086828       -0.004401        0.023462        0.019061
   4 H        0.086833       -0.004401        0.023462        0.019061
   5 H        0.086830       -0.004401        0.023462        0.019061
   6 H        0.086826       -0.004401        0.023462        0.019061
   7 H        1.084295        1.628384       -0.015885        1.612499
  --------------------------------------------------------------------
  Sum:       -1.000000        1.982810       -1.982810        0.000000
  
  Multipole moment analysis of the density matrix
    Molecular charge:                      -1.000000
    Number of electrons:                   18.000000
      Center of electronic charge [Ang]: [ -0.000000,  -0.000000,  -0.319909]
    Total nuclear charge:                  17.000000
      Center of nuclear charge [Ang]:    [ -0.000000,  -0.000000,  -0.000000]
    Dipole moment [D]:                     27.658568
      Cartesian components [D]:          [  0.000000,   0.000003,  27.658568]
    RMS size of the density [Ang]:         2.067383
      Cartesian components [Ang]:        [  1.306455,   1.268047,   0.979441]
  
  Exciton analysis of the difference density matrix
    <r_h> [Ang]:                  [  0.000000,  -0.000000,   3.728437]
    <r_e> [Ang]:                  [ -0.000000,  -0.000000,  -0.678890]
    |<r_e - r_h>| [Ang]:            4.407327
    Hole size [Ang]:                1.974544
      Cartesian components [Ang]: [  0.964299,   0.920569,   1.456539]
    Electron size [Ang]:            5.117528
      Cartesian components [Ang]: [  2.891221,   3.339415,   2.584230]

  Transition density matrix analysis:
  -----------------------------------
  
  CT numbers (Mulliken)
    omega =     0.0381
    <Phe> =     0.0065
  
  Exciton analysis of the transition density matrix
    Trans. dipole moment [D]:             0.061855
      Cartesian components [D]:         [ -0.000000,  -0.061855,  -0.000000]
    <r_h> [Ang]:                        [ -0.000000,  -0.000000,   3.905525]
    <r_e> [Ang]:                        [ -0.000000,  -0.000000,  -0.255006]
    |<r_e - r_h>| [Ang]:                  4.160531
    Hole size [Ang]:                      1.284914
      Cartesian components [Ang]:       [  0.645097,   0.638194,   0.909705]
    Electron size [Ang]:                  5.659744
      Cartesian components [Ang]:       [  2.562196,   4.370104,   2.523895]
    RMS electron-hole separation [Ang]:   7.138808
      Cartesian components [Ang]:       [  2.643021,   4.415443,   4.947816]
    Covariance(r_h, r_e) [Ang^2]:         0.015573
    Correlation coefficient:              0.002141
    Center-of-mass size [Ang]:            2.903225
      Cartesian components [Ang]:       [  1.320647,   2.208736,   1.343908]

  Decomposition into state-averaged NTOs
    H- 0 -> L+ 0:  0.1246 (  3.1%)
                   omega =   3.8%
  ----------------------------------------------------------------------------


--------------------------------------------------------------------------------
  Time of ADC calculation:  CPU 330.78 s  wall 78.88 s
================================================================================
 
 --------------------------------------------------------------
             Orbital Energies (a.u.) and Symmetries
 --------------------------------------------------------------
 
 Alpha MOs, Restricted
 -- Occupied --                  
-11.117 -11.116  -0.921  -0.663  -0.541  -0.448  -0.397  -0.254
  1 A1    1 B1    2 A1    2 B1    1 B2    3 A1    1 A2    4 A1                 
 -0.028
  5 A1                                                                         
 -- Virtual --                   
  0.105   0.120   0.126   0.130   0.150   0.154   0.200   0.207
  3 B1    2 B2    2 A2    6 A1    4 B1    7 A1    5 B1    8 A1                 
  0.238   0.242   0.253   0.269   0.317   0.355   0.399   0.400
  6 B1    3 B2    3 A2    9 A1   10 A1    7 B1    8 B1   11 A1                 
  0.444   0.463   0.540   0.631   0.770   0.855   0.950   0.972
  4 B2    9 B1    4 A2   10 B1   12 A1    5 B2   13 A1   14 A1                 
  1.015   1.018   1.045   1.058   1.119   1.140   1.142   1.235
 11 B1    6 B2   12 B1   15 A1   13 B1    5 A2   16 A1    7 B2                 
  1.404   1.405   1.418   1.467   1.724   1.733   1.812   1.876
  6 A2   17 A1   14 B1    7 A2   18 A1    8 A2    8 B2    9 B2                 
  1.879   1.893   1.964   2.038   2.056   2.086   2.136   2.146
 15 B1   19 A1   16 B1   17 B1   20 A1   21 A1   10 B2   11 B2                 
  2.290   2.386   2.532   2.557   2.650   2.692   2.917   2.919
 18 B1   19 B1    9 A2   22 A1   10 A2   20 B1   23 A1   12 B2                 
  3.374   3.458
 21 B1   11 A2                                                                 
 
 Beta MOs, Restricted
 -- Occupied --                  
-11.117 -11.116  -0.921  -0.663  -0.541  -0.448  -0.397  -0.254
  1 A1    1 B1    2 A1    2 B1    1 B2    3 A1    1 A2    4 A1                 
 -0.028
  5 A1                                                                         
 -- Virtual --                   
  0.105   0.120   0.126   0.130   0.150   0.154   0.200   0.207
  3 B1    2 B2    2 A2    6 A1    4 B1    7 A1    5 B1    8 A1                 
  0.238   0.242   0.253   0.269   0.317   0.355   0.399   0.400
  6 B1    3 B2    3 A2    9 A1   10 A1    7 B1    8 B1   11 A1                 
  0.444   0.463   0.540   0.631   0.770   0.855   0.950   0.972
  4 B2    9 B1    4 A2   10 B1   12 A1    5 B2   13 A1   14 A1                 
  1.015   1.018   1.045   1.058   1.119   1.140   1.142   1.235
 11 B1    6 B2   12 B1   15 A1   13 B1    5 A2   16 A1    7 B2                 
  1.404   1.405   1.418   1.467   1.724   1.733   1.812   1.876
  6 A2   17 A1   14 B1    7 A2   18 A1    8 A2    8 B2    9 B2                 
  1.879   1.893   1.964   2.038   2.056   2.086   2.136   2.146
 15 B1   19 A1   16 B1   17 B1   20 A1   21 A1   10 B2   11 B2                 
  2.290   2.386   2.532   2.557   2.650   2.692   2.917   2.919
 18 B1   19 B1    9 A2   22 A1   10 A2   20 B1   23 A1   12 B2                 
  3.374   3.458
 21 B1   11 A2                                                                 
 --------------------------------------------------------------
 
          Ground-State Mulliken Net Atomic Charges

     Atom                 Charge (a.u.)
  ----------------------------------------
      1 C                    -0.318389
      2 C                    -0.318389
      3 H                     0.060689
      4 H                     0.060693
      5 H                     0.060690
      6 H                     0.060686
      7 H                    -0.605978
  ----------------------------------------
  Sum of atomic charges =    -1.000000

 -----------------------------------------------------------------
                    Cartesian Multipole Moments
 -----------------------------------------------------------------
    Charge (ESU x 10^10)
                -4.8032
    Dipole Moment (Debye)
         X      -0.0000      Y       0.0000      Z     -15.4417
       Tot      15.4417
    Quadrupole Moments (Debye-Ang)
        XX     -23.4055     XY       0.0000     YY     -21.3703
        XZ       0.0000     YZ      -0.0000     ZZ     -93.8534
    Octopole Moments (Debye-Ang^2)
       XXX      -0.0000    XXY       0.0000    XYY      -0.0000
       YYY       0.0000    XXZ      -7.4153    XYZ       0.0000
       YYZ     -16.8423    XZZ      -0.0000    YZZ       0.0000
       ZZZ    -278.5975
    Hexadecapole Moments (Debye-Ang^3)
      XXXX    -208.7700   XXXY       0.0000   XXYY     -46.0566
      XYYY       0.0000   YYYY    -109.2111   XXXZ       0.0000
      XXYZ      -0.0000   XYYZ       0.0000   YYYZ       0.0000
      XXZZ    -159.1152   XYZZ      -0.0000   YYZZ    -141.7756
      XZZZ       0.0000   YZZZ       0.0000   ZZZZ   -1676.6092
 -----------------------------------------------------------------
 Total job time:  161.41s(wall), 375.09s(cpu) 
 Fri Mar 25 21:37:52 2022

        *************************************************************
        *                                                           *
        *  Thank you very much for using Q-Chem.  Have a nice day.  *
        *                                                           *
        *************************************************************


