/src/tsommerfeld/qchem/exe/qcprog.exe .input1.361111.10303.qcin.1 /src/jdavis/qchem.scratch/qchem10303/

                  Welcome to Q-Chem
     A Quantum Leap Into The Future Of Chemistry


 Q-Chem 5.4 (devel), Q-Chem, Inc., Pleasanton, CA (2021)

 E. Epifanovsky,  A. T. B. Gilbert,  Xintian Feng,  Joonho Lee,  Yuezhi Mao,  
 N. Mardirossian,  P. Pokhilko,  A. White,  M. Wormit,  M. P. Coons,  
 A. L. Dempwolff,  Zhengting Gan,  D. Hait,  P. R. Horn,  L. D. Jacobson,  
 I. Kaliman,  J. Kussmann,  A. W. Lange,  Ka Un Lao,  D. S. Levine,  Jie Liu,  
 S. C. McKenzie,  A. F. Morrison,  K. Nanda,  F. Plasser,  D. R. Rehn,  
 M. L. Vidal,  Zhi-Qiang You,  Ying Zhu,  B. Alam,  B. Albrecht,  
 A. Aldossary,  E. Alguire,  J. H. Andersen,  D. Barton,  K. Begam,  A. Behn,  
 Y. A. Bernard,  E. J. Berquist,  H. Burton,  A. Carreras,  K. Carter-Fenk,  
 R. Chakraborty,  A. D. Chien,  K. D. Closser,  V. Cofer-Shabica,  
 S. Dasgupta,  Jia Deng,  M. de Wergifosse,  M. Diedenhofen,  Hainam Do,  
 S. Ehlert,  Po-Tung Fang,  S. Fatehi,  Qingguo Feng,  T. Friedhoff,  
 J. Gayvert,  Qinghui Ge,  G. Gidofalvi,  M. Goldey,  J. Gomes,  
 C. Gonzalez-Espinoza,  S. Gulania,  A. Gunina,  M. W. D. Hanson-Heine,  
 P. H. P. Harbach,  A. W. Hauser,  M. F. Herbst,  M. Hernandez Vera,  
 M. Hodecker,  Z. C. Holden,  S. Houck,  Xunkun Huang,  Kerwin Hui,  
 B. C. Huynh,  M. Ivanov,  Hyunjun Ji,  Hanjie Jiang,  B. Kaduk,  S. Kaehler,  
 K. Khistyaev,  Jaehoon Kim,  P. Klunzinger,  Z. Koczor-Benda,  
 Joong Hoon Koh,  D. Kosenkov,  L. Koulias,  T. Kowalczyk,  C. M. Krauter,  
 K. Kue,  A. Kunitsa,  T. Kus,  A. Landau,  K. V. Lawler,  D. Lefrancois,  
 S. Lehtola,  Rain Li,  Yi-Pei Li,  Jiashu Liang,  M. Liebenthal,  
 Hung-Hsuan Lin,  You-Sheng Lin,  Fenglai Liu,  Kuan-Yu Liu,  
 M. Loipersberger,  A. Luenser,  A. Manjanath,  P. Manohar,  E. Mansoor,  
 S. F. Manzer,  Shan-Ping Mao,  A. V. Marenich,  T. Markovich,  S. Mason,  
 S. A. Maurer,  P. F. McLaughlin,  M. F. S. J. Menger,  J.-M. Mewes,  
 S. A. Mewes,  P. Morgante,  J. W. Mullinax,  K. J. Oosterbaan,  G. Paran,  
 Alexander C. Paul,  Suranjan K. Paul,  F. Pavosevic,  Zheng Pei,  S. Prager,  
 E. I. Proynov,  E. Ramos,  B. Rana,  A. E. Rask,  A. Rettig,  R. M. Richard,  
 F. Rob,  E. Rossomme,  T. Scheele,  M. Scheurer,  M. Schneider,  
 N. Sergueev,  S. M. Sharada,  W. Skomorowski,  D. W. Small,  C. J. Stein,  
 Yu-Chuan Su,  E. J. Sundstrom,  Zhen Tao,  J. Thirman,  T. Tsuchimochi,  
 N. M. Tubman,  S. P. Veccham,  O. Vydrov,  J. Wenzel,  J. Witte,  A. Yamada,  
 Kun Yao,  S. Yeganeh,  S. R. Yost,  A. Zech,  Igor Ying Zhang,  Xing Zhang,  
 Yu Zhang,  D. Zuev,  A. Aspuru-Guzik,  A. T. Bell,  N. A. Besley,  
 K. B. Bravaya,  B. R. Brooks,  D. Casanova,  Jeng-Da Chai,  S. Coriani,  
 C. J. Cramer,  A. E. DePrince, III,  R. A. DiStasio Jr.,  A. Dreuw,  
 B. D. Dunietz,  T. R. Furlani,  W. A. Goddard III,  S. Grimme,  
 S. Hammes-Schiffer,  T. Head-Gordon,  W. J. Hehre,  Chao-Ping Hsu,  
 T.-C. Jagau,  Yousung Jung,  A. Klamt,  Jing Kong,  D. S. Lambrecht,  
 WanZhen Liang,  N. J. Mayhall,  C. W. McCurdy,  J. B. Neaton,  
 C. Ochsenfeld,  J. A. Parkhill,  R. Peverati,  V. A. Rassolov,  Yihan Shao,  
 L. V. Slipchenko,  T. Stauch,  R. P. Steele,  J. E. Subotnik,  
 A. J. W. Thom,  A. Tkatchenko,  D. G. Truhlar,  T. Van Voorhis,  
 T. A. Wesolowski,  K. B. Whaley,  H. L. Woodcock III,  P. M. Zimmerman,  
 S. Faraji,  P. M. W. Gill,  M. Head-Gordon,  J. M. Herbert,  A. I. Krylov

 Additional authors for Version 5.4.1: 
 S. Kotaru,  Shaozhi Li,  Xiangyuan Li,  F. Matz,  A. Molle,  Haisheng Ren,  
 Yingli Su,  Hung-Yi Tsai,  C. Utku,  Fang Wang

 Contributors to earlier versions of Q-Chem not listed above: 
 R. D. Adamson,  B. Austin,  R. Baer,  J. Baker,  G. J. O. Beran,  
 K. Brandhorst,  S. T. Brown,  E. F. C. Byrd,  A. K. Chakraborty,  
 G. K. L. Chan,  Chun-Min Chang,  Yunqing Chen,  C.-L. Cheng,  
 Siu Hung Chien,  D. M. Chipman,  D. L. Crittenden,  H. Dachsel,  
 R. J. Doerksen,  A. D. Dutoi,  R. G. Edgar,  J. Fosso-Tande,  
 L. Fusti-Molnar,  D. Ghosh,  A. Ghysels,  A. Golubeva-Zadorozhnaya,  
 J. Gonthier,  M. S. Gordon,  S. R. Gwaltney,  G. Hawkins,  J. E. Herr,  
 A. Heyden,  S. Hirata,  E. G. Hohenstein,  G. Kedziora,  F. J. Keil,  
 C. Kelley,  Jihan Kim,  R. A. King,  R. Z. Khaliullin,  P. P. Korambath,  
 W. Kurlancheek,  A. Laurent,  A. M. Lee,  M. S. Lee,  S. V. Levchenko,  
 Ching Yeh Lin,  D. Liotard,  E. Livshits,  R. C. Lochan,  I. Lotan,  
 L. A. Martinez-Martinez,  P. E. Maslen,  N. Nair,  D. P. O'Neill,  
 D. Neuhauser,  E. Neuscamman,  C. M. Oana,  R. Olivares-Amaya,  R. Olson,  
 T. M. Perrine,  B. Peters,  P. A. Pieniazek,  A. Prociuk,  Y. M. Rhee,  
 J. Ritchie,  M. A. Rohrdanz,  E. Rosta,  N. J. Russ,  H. F. Schaefer III,  
 M. W. Schmidt,  N. E. Schultz,  S. Sharma,  N. Shenvi,  C. D. Sherrill,  
 A. C. Simmonett,  A. Sodt,  T. Stein,  D. Stuck,  K. S. Thanthiriwatte,  
 V. Vanovschi,  L. Vogt,  Tao Wang,  A. Warshel,  M. A. Watson,  
 C. F. Williams,  Q. Wu,  X. Xu,  Jun Yang,  W. Zhang,  Yan Zhao

 Please cite Q-Chem as follows:
 Y. Shao et al., Mol. Phys. 113, 184-215 (2015)
 DOI: 10.1080/00268976.2014.952696

 Q-Chem 5.4.1 for Intel X86 EM64T Linux

 Parts of Q-Chem use Armadillo 9.900.5 (Nocturnal Misbehaviour).
 http://arma.sourceforge.net/

 Q-Chem begins on Fri Mar 25 23:15:48 2022  

 Host: node01
0

     Scratch files written to /src/jdavis/qchem.scratch/qchem10303//
 Processing $rem in /src/tsommerfeld/qchem/config/preferences:
 Processing $rem in /home/jdavis/.qchemrc:

 Checking the input file for inconsistencies... 	...done.

--------------------------------------------------------------
User input:
--------------------------------------------------------------
$molecule
-1 1
C         0.0000003663    0.4438502432    0.6645000000
C         0.0000003663    0.4438502432   -0.6645000000
H        -0.9623486337    0.4438522630    1.1590800000
H        -0.9623486337    0.4438522630   -1.1590800000
H         0.9623483663    0.4438482235    1.1590800000
H         0.9623483663    0.4438482235   -1.1590800000
H        -0.0000038605   -3.8477690721    0.0000000000
$end

$rem
   METHOD adc(2)
   BASIS gen
   PURECART 11
   EE_STATES [0,0,0,10]
   scf_convergence 8
   ADC_DAVIDSON_MAXITER 120
   ADC_DAVIDSON_MAXSUBSPACE 200
   adc_nguess_singles 100
   THRESH 14
   S2THRESH 14
   adc_davidson_conv 5
   adc_davidson_thresh 14
   THREADS 10
   MEM_TOTAL 95000
   STATE_ANALYSIS TRUE
$end
$basis
C 1
S   9   1.00
      6.665000D+03           6.920000D-04
      1.000000D+03           5.329000D-03
      2.280000D+02           2.707700D-02
      6.471000D+01           1.017180D-01
      2.106000D+01           2.747400D-01
      7.495000D+00           4.485640D-01
      2.797000D+00           2.850740D-01
      5.215000D-01           1.520400D-02
      1.596000D-01          -3.191000D-03
S   9   1.00
      6.665000D+03          -1.460000D-04
      1.000000D+03          -1.154000D-03
      2.280000D+02          -5.725000D-03
      6.471000D+01          -2.331200D-02
      2.106000D+01          -6.395500D-02
      7.495000D+00          -1.499810D-01
      2.797000D+00          -1.272620D-01
      5.215000D-01           5.445290D-01
      1.596000D-01           5.804960D-01
S   1   1.00
      1.596000D-01           1.000000D+00
S   1   1.00
      0.0469000              1.0000000
P   4   1.00
      9.439000D+00           3.810900D-02
      2.002000D+00           2.094800D-01
      5.456000D-01           5.085570D-01
      1.517000D-01           4.688420D-01
P   1   1.00
      1.517000D-01           1.000000D+00
P   1   1.00
      0.0825922      1.0000000
P   1   1.00
      0.0412961      1.0000000
D   1   1.00
      5.500000D-01           1.0000000
****
C 2
S   9   1.00
      6.665000D+03           6.920000D-04
      1.000000D+03           5.329000D-03
      2.280000D+02           2.707700D-02
      6.471000D+01           1.017180D-01
      2.106000D+01           2.747400D-01
      7.495000D+00           4.485640D-01
      2.797000D+00           2.850740D-01
      5.215000D-01           1.520400D-02
      1.596000D-01          -3.191000D-03
S   9   1.00
      6.665000D+03          -1.460000D-04
      1.000000D+03          -1.154000D-03
      2.280000D+02          -5.725000D-03
      6.471000D+01          -2.331200D-02
      2.106000D+01          -6.395500D-02
      7.495000D+00          -1.499810D-01
      2.797000D+00          -1.272620D-01
      5.215000D-01           5.445290D-01
      1.596000D-01           5.804960D-01
S   1   1.00
      1.596000D-01           1.000000D+00
S   1   1.00
      0.0469000              1.0000000
P   4   1.00
      9.439000D+00           3.810900D-02
      2.002000D+00           2.094800D-01
      5.456000D-01           5.085570D-01
      1.517000D-01           4.688420D-01
P   1   1.00
      1.517000D-01           1.000000D+00
P   1   1.00
      0.0825922      1.0000000
P   1   1.00
      0.0412961      1.0000000
D   1   1.00
      5.500000D-01           1.0000000
****
H 3
cc-pVDZ
****
H 4
cc-pVDZ
****
H 5
cc-pVDZ
****
H 6
cc-pVDZ
****
H 7
aug-cc-pVDZ
****
$end
--------------------------------------------------------------
 Atom   2: (  0.6645000000,  0.0000002034, -0.2524481950)
         ->(  0.6645000000, -0.0000002034, -0.2524481950)
 Atom   1: ( -0.6645000000,  0.0000002034, -0.2524481950)
         ->( -0.6645000000,  0.0000000000, -0.2524481950)
 Atom   6: (  1.1590800000,  0.9623482034, -0.2524467961)
         ->(  1.1590800000,  0.9623487966, -0.2524495940)
 Atom   5: ( -1.1590800000,  0.9623482034, -0.2524467961)
         ->( -1.1590800000,  0.9623487966, -0.2524495940)
 Atom   7: ( -0.0000000000, -0.0000012548,  4.0391711203)
         ->(  0.0000000000,  0.0000000000,  4.0391711203)
 ----------------------------------------------------------------
             Standard Nuclear Orientation (Angstroms)
    I     Atom           X                Y                Z
 ----------------------------------------------------------------
    1      C      -0.6645000000     0.0000000000    -0.2524481950
    2      C       0.6645000000    -0.0000002034    -0.2524481950
    3      H      -1.1590800000    -0.9623487966    -0.2524495940
    4      H       1.1590800000    -0.9623487966    -0.2524495940
    5      H      -1.1590800000     0.9623487966    -0.2524495940
    6      H       1.1590800000     0.9623487966    -0.2524495940
    7      H       0.0000000000     0.0000000000     4.0391711203
 ----------------------------------------------------------------
 Molecular Point Group                 C2v   NOp =  4
 Largest Abelian Subgroup              C2v   NOp =  4
 Nuclear Repulsion Energy =          35.51682835 hartrees
 There are        9 alpha and        9 beta electrons
 Requested basis set is non-standard
 There are 33 shells and 67 basis functions
 Total memory of 95000 MB is distributed as follows: 
   MEM_STATIC is set to 192 MB
   QALLOC/CCMAN JOB total memory use is  94808 MB
 Warning: actual memory use might exceed 95000 MB

 Total QAlloc Memory Limit  95000 MB
 Mega-Array Size       188 MB
 MEM_STATIC part       192 MB

                       Distance Matrix (Angstroms)
             C (  1)   C (  2)   H (  3)   H (  4)   H (  5)   H (  6)
   C (  2)  1.329000
   H (  3)  1.082000  2.061931
   H (  4)  2.061931  1.082000  2.318160
   H (  5)  1.082000  2.061931  1.924698  3.013026
   H (  6)  2.061931  1.082000  3.013026  1.924698  2.318160
   H (  7)  4.342759  4.342759  4.548361  4.548361  4.548361  4.548361

 
 A cutoff of  1.0D-14 yielded    561 shell pairs
 There are      2337 function pairs (      2484 Cartesian)
 Smallest overlap matrix eigenvalue = 2.28E-04

 Scale SEOQF with 1.000000e-01/1.000000e-01/1.000000e-01

 Standard Electronic Orientation quadrupole field applied
 Nucleus-field energy     =    -0.0000000012 hartrees
 ================ Generating on-the-fly SAD Guess ================
Attempting to make child job directory: /src/jdavis/qchem.scratch/qchem10303//Frg1/
Attempting to make child job directory: /src/jdavis/qchem.scratch/qchem10303//Frg2/
Creating input file /src/jdavis/qchem.scratch/qchem10303/Frg1.input
using default PutDataFrgm: nothing
calling putenv with: QCSCRATCH=/src/jdavis/qchem.scratch/qchem10303/ 
Spawning Job For Fragment 0
Done Job For Fragment 0
calling putenv with: QCSCRATCH=/src/jdavis/qchem.scratch 
calling putenv with: QCTHREADS=1 
Creating input file /src/jdavis/qchem.scratch/qchem10303/Frg2.input
using default PutDataFrgm: nothing
calling putenv with: QCSCRATCH=/src/jdavis/qchem.scratch/qchem10303/ 
Spawning Job For Fragment 1
Done Job For Fragment 1
calling putenv with: QCSCRATCH=/src/jdavis/qchem.scratch 
calling putenv with: QCTHREADS=1 
 Time for running child jobs:  CPU 1.81 s  wall 54.32 s
 ============= Method Specific SAD Guess Constructed =============
 Guess from on-the-fly superposition of atomic densities
 Warning: Energy on first SCF cycle will be non-variational
 A restricted Hartree-Fock SCF calculation will be
 performed using Pulay DIIS extrapolation
 SCF converges when DIIS error is below 1.0E-08
 using 10 threads for integral computing
 -------------------------------------------------------
 OpenMP Integral computing Module                
 Release: version 1.0, May 2013, Q-Chem Inc. Pittsburgh 
 -------------------------------------------------------
 ---------------------------------------
  Cycle       Energy         DIIS Error
 ---------------------------------------
    1     -78.8015968564      7.36E-02
    2     -78.4465462183      6.67E-03
    3     -78.4925848323      1.56E-03
    4     -78.4953226158      5.16E-04
    5     -78.4956038539      1.10E-04
    6     -78.4956332853      2.20E-05
    7     -78.4956352881      7.07E-06
    8     -78.4956356205      9.96E-07
    9     -78.4956356393      2.80E-07
   10     -78.4956356420      3.62E-08
   11     -78.4956356416      6.96E-09 Convergence criterion met
 ---------------------------------------
 SCF time:  CPU 10.10 s  wall 1.02 s
 SCF   energy in the final basis set = -78.49563564
 Total energy in the final basis set = -78.49563564
================================================================================
|                                                                              |
|                                 A D C  M A N                                 |
|                                                                              |
 ------------------------------------------------------------------------------ 
|                                                                              |
| Components:                                                                  |
|                                                                              |
| - libvmm - 1.3-trunk                                                         |
|   Authors:                                                                   |
|   Evgeny Epifanovsky, Ilya Kaliman                                           |
|                                                                              |
| - libtensor - 2.5-trunk                                                      |
|   Authors:                                                                   |
|   Evgeny Epifanovsky, Michael Wormit, Dmitry Zuev, Sam Manzer,               |
|   Ilya Kaliman                                                               |
|                                                                              |
| - libwfa - 1.1-trunk                                                         |
|   Authors:                                                                   |
|   Felix Plasser, Stefanie Mewes (Baeppler), Benjamin Thomitzni,              |
|   Michael Wormit, Feng Chen, Anna I. Krylov, Pavel Pokhilko                  |
|                                                                              |
| - libadc - 1.1-trunk                                                         |
|   Authors:                                                                   |
|   Michael Wormit, Adrian L. Dempwolff, Philipp H. P. Harbach,                |
|   Caroline Krauter, Dirk Rehn, Matthias Schneider, Jan Wenzel                |
|                                                                              |
| - adcman - 2.6-trunk                                                         |
|   Authors:                                                                   |
|   Michael Wormit, Adrian L. Dempwolff, Philipp H. P. Harbach,                |
|   Caroline Krauter, Daniel Lefrancois, Jan-Michael Mewes, Dirk Rehn,         |
|   Matthias Schneider, Jan Wenzel, Andreas Dreuw                              |
|                                                                              |
| Authors of earlier versions of ADCMAN:                                       |
| Andreas Dreuw, Jan Hendrik Starcke, Dirk Rehn, Michael Wormit                |
|                                                                              |
================================================================================

 
 Alpha MOs, Restricted
 -- Occupied --                  
-11.111 -11.109  -0.914  -0.656  -0.535  -0.442  -0.391  -0.247
  1 A1    1 B1    2 A1    2 B1    1 B2    3 A1    1 A2    4 A1                 
 -0.003
  5 A1                                                                         
 -- Virtual --                   
  0.167   0.184   0.193   0.217   0.218   0.221   0.297   0.310
  3 B1    6 A1    2 B2    2 A2    7 A1    4 B1    8 A1    5 B1                 
  0.333   0.403   0.436   0.438   0.466   0.479   0.491   0.492
  6 B1    9 A1    3 B2    7 B1   10 A1    4 B2    3 A2    8 B1                 
  0.503   0.578   0.673   0.742   0.962   0.972   1.058   1.077
 11 A1    9 B1    4 A2   10 B1   12 A1    5 B2   11 B1   13 A1                 
  1.090   1.145   1.186   1.188   1.242   1.265   1.267   1.304
 14 A1    5 A2    6 B2   15 A1    7 B2   12 B1   16 A1   13 B1                 
  1.411   1.421   1.421   1.582   1.749   1.815   1.857   1.924
  6 A2   17 A1   14 B1    7 A2   18 A1    8 A2    8 B2    9 B2                 
  1.931   1.940   2.003   2.070   2.087   2.143   2.202   2.222
 15 B1   19 A1   16 B1   20 A1   17 B1   10 B2   21 A1   11 B2                 
  2.310   2.459   2.539   2.600   2.691   2.704   2.967   2.971
 18 B1   19 B1    9 A2   22 A1   10 A2   20 B1   12 B2   23 A1                 
  3.392   3.468
 21 B1   11 A2                                                                 
 
 Beta MOs, Restricted
 -- Occupied --                  
-11.111 -11.109  -0.914  -0.656  -0.535  -0.442  -0.391  -0.247
  1 A1    1 B1    2 A1    2 B1    1 B2    3 A1    1 A2    4 A1                 
 -0.003
  5 A1                                                                         
 -- Virtual --                   
  0.167   0.184   0.193   0.217   0.218   0.221   0.297   0.310
  3 B1    6 A1    2 B2    2 A2    7 A1    4 B1    8 A1    5 B1                 
  0.333   0.403   0.436   0.438   0.466   0.479   0.491   0.492
  6 B1    9 A1    3 B2    7 B1   10 A1    4 B2    3 A2    8 B1                 
  0.503   0.578   0.673   0.742   0.962   0.972   1.058   1.077
 11 A1    9 B1    4 A2   10 B1   12 A1    5 B2   11 B1   13 A1                 
  1.090   1.145   1.186   1.188   1.242   1.265   1.267   1.304
 14 A1    5 A2    6 B2   15 A1    7 B2   12 B1   16 A1   13 B1                 
  1.411   1.421   1.421   1.582   1.749   1.815   1.857   1.924
  6 A2   17 A1   14 B1    7 A2   18 A1    8 A2    8 B2    9 B2                 
  1.931   1.940   2.003   2.070   2.087   2.143   2.202   2.222
 15 B1   19 A1   16 B1   20 A1   17 B1   10 B2   21 A1   11 B2                 
  2.310   2.459   2.539   2.600   2.691   2.704   2.967   2.971
 18 B1   19 B1    9 A2   22 A1   10 A2   20 B1   12 B2   23 A1                 
  3.392   3.468
 21 B1   11 A2                                                                 

--------------------------------------------------------------------------------
                                   HF Summary                                   
--------------------------------------------------------------------------------
  Energy:                                                  -78.4956356416 a.u.
  Dip. moment [a.u.]:                  [   0.000000,    0.000001,   -6.632118]
  Total dipole [Debye]:                                              16.857166
  <r^2> [a.u.]:                        [  51.824986,   26.074581,  127.956877]
  Total <r^2> [a.u.]:                                               205.856444
--------------------------------------------------------------------------------

--------------------------------------------------------------------------------
                                 MP(2) Summary                                  
--------------------------------------------------------------------------------
  MP energy contribution:                                   -0.3023844681 a.u.
  Total energy:                                            -78.7980201097 a.u.
  Dip. moment [a.u.]:                  [  -0.000000,    0.000000,   -6.540052]
  Total dipole [Debye]:                                              16.623158
  <r^2> [a.u.]:                        [  52.069839,   26.207445,  126.850826]
  Total <r^2> [a.u.]:                                               205.128110

  Density matrix analysis:
  ------------------------
  NOs
    Occupation of frontier NOs:
       0.0455   1.9360
    Number of electrons: 18.000000
    Number of unpaired electrons: n_u =  0.45104, n_u,nl =  0.04930
    NO participation ratio (PR_NO): 15.838225
  
  
  Mulliken Population Analysis
  Atom      Charge (e)              h+              e-           Del q
  --------------------------------------------------------------------
   1 C       -0.295610        0.088021       -0.116542       -0.028521
   2 C       -0.295610        0.088021       -0.116542       -0.028521
   3 H        0.088106        0.018252       -0.009888        0.008363
   4 H        0.088133        0.018252       -0.009888        0.008363
   5 H        0.088123        0.018252       -0.009889        0.008363
   6 H        0.088096        0.018252       -0.009889        0.008363
   7 H       -0.761240        0.043080       -0.019491        0.023590
  --------------------------------------------------------------------
  Sum:       -1.000000        0.292130       -0.292130       -0.000000
  
  Multipole moment analysis of the density matrix
    Molecular charge:                      -1.000000
    Number of electrons:                   18.000000
      Center of electronic charge [Ang]: [  0.000000,  -0.000000,   0.192269]
    Total nuclear charge:                  17.000000
      Center of nuclear charge [Ang]:    [ -0.000000,  -0.000000,  -0.000000]
    Dipole moment [D]:                     16.623153
      Cartesian components [D]:          [ -0.000000,   0.000001, -16.623153]
    RMS size of the density [Ang]:         1.776018
      Cartesian components [Ang]:        [  0.900032,   0.638524,   1.391571]
  
  Exciton analysis of the difference density matrix
    <r_h> [Ang]:                  [ -0.000000,  -0.000000,   0.314198]
    <r_e> [Ang]:                  [  0.000000,   0.000001,   0.147426]
    |<r_e - r_h>| [Ang]:            0.166772
    Hole size [Ang]:                2.095682
      Cartesian components [Ang]: [  0.960785,   0.751027,   1.704328]
    Electron size [Ang]:            1.941831
      Cartesian components [Ang]: [  1.076020,   0.831506,   1.386177]
--------------------------------------------------------------------------------
  Starting Davidson for singlet states of irrep B2 ... 
--------------------------------------------------------------------------------
   It NVec Conv  Avg. Norm  Max. Norm  Conv. states           Remark
--------------------------------------------------------------------------------
       100    0  1.102e-01  4.416e-01  0.1110 n n n n n n n n Guess.
    1  110    0  7.170e-03  3.324e-02  0.0687 n n n n n n n n 
    2  120    0  1.887e-02  1.755e-01  0.0686 n n n n n n n n 
    3  130    1  1.743e-02  1.574e-01  0.0686 y n n n n n n n 
    4  140    4  3.250e-03  3.094e-02  0.0686 y y y y n n n n 
    5  150    6  2.097e-03  1.993e-02  0.0686 y y y y y y n n 
    6  160    8  8.616e-04  8.608e-03  0.0686 y y y y y y n n 
    7  170    8  6.933e-05  6.932e-04  0.0686 y y y y y y n n 
    8  180    9  2.157e-06  2.157e-05  0.0686 y y y y y y y n 
    9  190   10  8.543e-08  7.586e-07  0.0686 y y y y y y y y Converged.
--------------------------------------------------------------------------------
  Davidson Summary: 
 ------------------------------------------------------------
  State  0: excitation energy =   0.0686 a.u.   (converged)
  State  1: excitation energy =   0.2732 a.u.   (converged)
  State  2: excitation energy =   0.2772 a.u.   (converged)
  State  3: excitation energy =   0.3310 a.u.   (converged)
  State  4: excitation energy =   0.3351 a.u.   (converged)
  State  5: excitation energy =   0.3705 a.u.   (converged)
  State  6: excitation energy =   0.3830 a.u.   (converged)
  State  7: excitation energy =   0.3897 a.u.   (converged)
  State  8: excitation energy =   0.4193 a.u.   (converged)
  State  9: excitation energy =   0.4214 a.u.   (converged)
 ------------------------------------------------------------


--------------------------------------------------------------------------------
                   State-averaged natural transition orbitals
--------------------------------------------------------------------------------
--------------------------------------------------------------------------------

--------------------------------------------------------------------------------
                             Excited State Summary
--------------------------------------------------------------------------------
--------------------------------------------------------------------------------

  Excited state 1 (singlet, B2)                                    [converged]
  ----------------------------------------------------------------------------
  Term symbol:  1 (1) B2                                    R^2 =  6.23940e-09

  Total energy:                                            -78.7294081285 a.u.
  Excitation energy:                                               1.867027 eV

  Osc. strength:                                                      0.016804
  Trans. dip. moment [a.u.]:           [  -0.000001,   -0.606108,   -0.000000]
  <i|r^2|0> [a.u.]:                    [   0.000001,   -0.000000,    0.000000]

  Dip. moment [a.u.]:                  [  -0.000000,    0.000000,    0.628736]
  Total dipole [Debye]:                                               1.598087
  <r^2> [a.u.]:                        [  59.616841,   51.016665,   83.962015]
  Total <r^2> [a.u.]:                                               194.595521

  V1^2 = 0.9350, V2^2 = 0.0650

  Important amplitudes:
      occ i      occ j       vir a       vir b          v   
    ---------------------------------------------------------
     5 (A1) A               2 (B2) A                  0.6819
     5 (A1) A   5 (A1) B    8 (A1) A    2 (B2) B      0.0598
    ---------------------------------------------------------

  Density matrix analysis:
  ------------------------
  NOs
    Occupation of frontier NOs:
       0.9941   0.9951
    Number of electrons: 18.000000
    Number of unpaired electrons: n_u =  2.42060, n_u,nl =  2.04950
    NO participation ratio (PR_NO):  2.942042
  
  
  Mulliken Population Analysis
  Atom      Charge (e)              h+              e-           Del q
  --------------------------------------------------------------------
   1 C       -0.660088        0.182602       -0.547081       -0.364478
   2 C       -0.660088        0.182602       -0.547081       -0.364478
   3 H        0.078029        0.004883       -0.014959       -0.010077
   4 H        0.078056        0.004883       -0.014959       -0.010076
   5 H        0.078047        0.004883       -0.014959       -0.010076
   6 H        0.078020        0.004883       -0.014960       -0.010077
   7 H        0.008023        0.806136       -0.036873        0.769263
  --------------------------------------------------------------------
  Sum:       -1.000000        1.190871       -1.190871       -0.000000
  
  Multipole moment analysis of the density matrix
    Molecular charge:                      -1.000000
    Number of electrons:                   18.000000
      Center of electronic charge [Ang]: [  0.000000,  -0.000000,  -0.018484]
    Total nuclear charge:                  17.000000
      Center of nuclear charge [Ang]:    [ -0.000000,  -0.000000,  -0.000000]
    Dipole moment [D]:                     1.598086
      Cartesian components [D]:          [ -0.000000,   0.000000,   1.598086]
    RMS size of the density [Ang]:         1.739830
      Cartesian components [Ang]:        [  0.963051,   0.890883,   1.142745]
  
  Exciton analysis of the difference density matrix
    <r_h> [Ang]:                  [ -0.000000,  -0.000000,   3.166364]
    <r_e> [Ang]:                  [  0.000000,   0.000000,  -0.019168]
    |<r_e - r_h>| [Ang]:            3.185532
    Hole size [Ang]:                2.200547
      Cartesian components [Ang]: [  0.955158,   0.921915,   1.755037]
    Electron size [Ang]:            3.520115
      Cartesian components [Ang]: [  1.639199,   2.585288,   1.737964]

  Transition density matrix analysis:
  -----------------------------------
  
  CT numbers (Mulliken)
    omega =     0.9255
    <Phe> =     0.0010
  
  Exciton analysis of the transition density matrix
    Trans. dipole moment [D]:             0.770286
      Cartesian components [D]:         [ -0.000002,  -0.770286,  -0.000000]
    <r_h> [Ang]:                        [ -0.000000,  -0.000000,   3.803592]
    <r_e> [Ang]:                        [  0.000000,   0.000000,  -0.252428]
    |<r_e - r_h>| [Ang]:                  4.056019
    Hole size [Ang]:                      1.463479
      Cartesian components [Ang]:       [  0.761166,   0.749694,   1.000179]
    Electron size [Ang]:                  3.622080
      Cartesian components [Ang]:       [  1.693208,   2.780928,   1.587121]
    RMS electron-hole separation [Ang]:   5.631140
      Cartesian components [Ang]:       [  1.855747,   2.880051,   4.468920]
    Covariance(r_h, r_e) [Ang^2]:         0.001396
    Correlation coefficient:              0.000263
    Center-of-mass size [Ang]:            1.953460
      Cartesian components [Ang]:       [  0.928554,   1.440183,   0.937905]

  Decomposition into state-averaged NTOs
    H- 0 -> L+ 0: -0.6715 ( 90.2%)
    H- 0 -> L+ 3:  0.1009 (  2.0%)
                   omega =  92.6%
  ----------------------------------------------------------------------------


  Excited state 2 (singlet, B2)                                    [converged]
  ----------------------------------------------------------------------------
  Term symbol:  2 (1) B2                                    R^2 =  8.70174e-08

  Total energy:                                            -78.5248022751 a.u.
  Excitation energy:                                               7.434635 eV

  Osc. strength:                                                      0.005031
  Trans. dip. moment [a.u.]:           [  -0.000001,   -0.166193,    0.000000]
  <i|r^2|0> [a.u.]:                    [   0.000000,   -0.000000,   -0.000001]

  Dip. moment [a.u.]:                  [  -0.000000,   -0.000002,   -0.270240]
  Total dipole [Debye]:                                               0.686880
  <r^2> [a.u.]:                        [  58.275672,   38.340574,   85.985586]
  Total <r^2> [a.u.]:                                               182.601832

  V1^2 = 0.9256, V2^2 = 0.0744

  Important amplitudes:
      occ i      occ j       vir a       vir b          v   
    ---------------------------------------------------------
     5 (A1) A               3 (B2) A                 -0.6268
     4 (A1) A               2 (B2) A                  0.2370
    ---------------------------------------------------------

  Density matrix analysis:
  ------------------------
  NOs
    Occupation of frontier NOs:
       0.8640   1.1025
    Number of electrons: 18.000000
    Number of unpaired electrons: n_u =  2.47814, n_u,nl =  2.15399
    NO participation ratio (PR_NO):  3.805981
  
  
  Mulliken Population Analysis
  Atom      Charge (e)              h+              e-           Del q
  --------------------------------------------------------------------
   1 C       -0.179078        0.224481       -0.107949        0.116532
   2 C       -0.179078        0.224481       -0.107949        0.116532
   3 H       -0.140100        0.005873       -0.234079       -0.228206
   4 H       -0.140074        0.005873       -0.234080       -0.228206
   5 H       -0.140084        0.005873       -0.234081       -0.228208
   6 H       -0.140111        0.005873       -0.234080       -0.228207
   7 H       -0.081476        0.705430       -0.025666        0.679764
  --------------------------------------------------------------------
  Sum:       -1.000000        1.177883       -1.177883       -0.000000
  
  Multipole moment analysis of the density matrix
    Molecular charge:                      -1.000000
    Number of electrons:                   18.000000
      Center of electronic charge [Ang]: [  0.000000,  -0.000000,   0.007944]
    Total nuclear charge:                  17.000000
      Center of nuclear charge [Ang]:    [ -0.000000,  -0.000000,  -0.000000]
    Dipole moment [D]:                     0.686880
      Cartesian components [D]:          [ -0.000000,  -0.000005,  -0.686880]
    RMS size of the density [Ang]:         1.685437
      Cartesian components [Ang]:        [  0.952157,   0.772314,   1.156558]
  
  Exciton analysis of the difference density matrix
    <r_h> [Ang]:                  [ -0.000000,  -0.000000,   2.729152]
    <r_e> [Ang]:                  [ -0.000000,   0.000001,  -0.087632]
    |<r_e - r_h>| [Ang]:            2.816784
    Hole size [Ang]:                2.369028
      Cartesian components [Ang]: [  0.916978,   0.853333,   2.010788]
    Electron size [Ang]:            2.774439
      Cartesian components [Ang]: [  1.521912,   1.900708,   1.329889]

  Transition density matrix analysis:
  -----------------------------------
  
  CT numbers (Mulliken)
    omega =     0.9104
    <Phe> =    -0.0011
  
  Exciton analysis of the transition density matrix
    Trans. dipole moment [D]:             0.211210
      Cartesian components [D]:         [ -0.000001,  -0.211210,   0.000000]
    <r_h> [Ang]:                        [ -0.000000,  -0.000000,   3.253634]
    <r_e> [Ang]:                        [ -0.000000,   0.000001,  -0.251803]
    |<r_e - r_h>| [Ang]:                  3.505437
    Hole size [Ang]:                      2.006133
      Cartesian components [Ang]:       [  0.756421,   0.718693,   1.713440]
    Electron size [Ang]:                  2.774098
      Cartesian components [Ang]:       [  1.536572,   2.008460,   1.140461]
    RMS electron-hole separation [Ang]:   4.899038
      Cartesian components [Ang]:       [  1.710669,   2.132815,   4.065131]
    Covariance(r_h, r_e) [Ang^2]:         0.003846
    Correlation coefficient:              0.000691
    Center-of-mass size [Ang]:            1.712299
      Cartesian components [Ang]:       [  0.857331,   1.066766,   1.029059]

  Decomposition into state-averaged NTOs
    H- 0 -> L+ 3:  0.6191 ( 76.6%)
    H- 2 -> L+ 0:  0.2409 ( 11.6%)
    H- 0 -> L+ 0:  0.0934 (  1.7%)
                   omega =  91.0%
  ----------------------------------------------------------------------------


  Excited state 3 (singlet, B2)                                    [converged]
  ----------------------------------------------------------------------------
  Term symbol:  3 (1) B2                                    R^2 =  6.12100e-08

  Total energy:                                            -78.5208190140 a.u.
  Excitation energy:                                               7.543025 eV

  Osc. strength:                                                      0.005094
  Trans. dip. moment [a.u.]:           [  -0.000005,    0.166030,    0.000000]
  <i|r^2|0> [a.u.]:                    [  -0.000000,   -0.000000,    0.000000]

  Dip. moment [a.u.]:                  [   0.000000,    0.000002,   -5.613326]
  Total dipole [Debye]:                                              14.267655
  <r^2> [a.u.]:                        [  57.845529,   46.148710,  123.412988]
  Total <r^2> [a.u.]:                                               227.407227

  V1^2 = 0.9473, V2^2 = 0.0527

  Important amplitudes:
      occ i      occ j       vir a       vir b          v   
    ---------------------------------------------------------
     4 (A1) A               2 (B2) A                  0.6254
     5 (A1) A               3 (B2) A                  0.2390
    ---------------------------------------------------------

  Density matrix analysis:
  ------------------------
  NOs
    Occupation of frontier NOs:
       0.8705   1.0994
    Number of electrons: 18.000000
    Number of unpaired electrons: n_u =  2.40259, n_u,nl =  2.11213
    NO participation ratio (PR_NO):  3.572875
  
  
  Mulliken Population Analysis
  Atom      Charge (e)              h+              e-           Del q
  --------------------------------------------------------------------
   1 C       -0.355197        0.476663       -0.536251       -0.059588
   2 C       -0.355197        0.476663       -0.536251       -0.059588
   3 H        0.088878        0.059446       -0.058674        0.000772
   4 H        0.088904        0.059445       -0.058674        0.000771
   5 H        0.088898        0.059448       -0.058674        0.000774
   6 H        0.088872        0.059449       -0.058674        0.000775
   7 H       -0.645156        0.118610       -0.002527        0.116083
  --------------------------------------------------------------------
  Sum:       -1.000000        1.309725       -1.309725       -0.000000
  
  Multipole moment analysis of the density matrix
    Molecular charge:                      -1.000000
    Number of electrons:                   18.000000
      Center of electronic charge [Ang]: [ -0.000000,  -0.000000,   0.165024]
    Total nuclear charge:                  17.000000
      Center of nuclear charge [Ang]:    [ -0.000000,  -0.000000,  -0.000000]
    Dipole moment [D]:                     14.267651
      Cartesian components [D]:          [  0.000000,   0.000004, -14.267651]
    RMS size of the density [Ang]:         1.873652
      Cartesian components [Ang]:        [  0.948636,   0.847315,   1.375762]
  
  Exciton analysis of the difference density matrix
    <r_h> [Ang]:                  [  0.000000,   0.000001,   0.127633]
    <r_e> [Ang]:                  [  0.000000,   0.000000,  -0.246798]
    |<r_e - r_h>| [Ang]:            0.374431
    Hole size [Ang]:                1.990596
      Cartesian components [Ang]: [  0.982648,   0.763952,   1.553464]
    Electron size [Ang]:            2.946402
      Cartesian components [Ang]: [  1.483402,   2.201637,   1.278123]

  Transition density matrix analysis:
  -----------------------------------
  
  CT numbers (Mulliken)
    omega =     0.9182
    <Phe> =    -0.0020
  
  Exciton analysis of the transition density matrix
    Trans. dipole moment [D]:             0.211003
      Cartesian components [D]:         [ -0.000006,   0.211003,   0.000000]
    <r_h> [Ang]:                        [ -0.000000,  -0.000000,   0.242067]
    <r_e> [Ang]:                        [  0.000000,   0.000000,  -0.252506]
    |<r_e - r_h>| [Ang]:                  0.494573
    Hole size [Ang]:                      1.885727
      Cartesian components [Ang]:       [  0.761182,   0.552158,   1.634530]
    Electron size [Ang]:                  3.292055
      Cartesian components [Ang]:       [  1.619634,   2.498028,   1.405087]
    RMS electron-hole separation [Ang]:   3.823410
      Cartesian components [Ang]:       [  1.785448,   2.557612,   2.211168]
    Covariance(r_h, r_e) [Ang^2]:         0.009864
    Correlation coefficient:              0.001589
    Center-of-mass size [Ang]:            1.898244
      Cartesian components [Ang]:       [  0.896856,   1.279518,   1.077875]

  Decomposition into state-averaged NTOs
    H- 2 -> L+ 0:  0.6332 ( 80.2%)
    H- 0 -> L+ 3: -0.2369 ( 11.2%)
                   omega =  91.8%
  ----------------------------------------------------------------------------


  Excited state 4 (singlet, B2)                                    [converged]
  ----------------------------------------------------------------------------
  Term symbol:  4 (1) B2                                    R^2 =  7.41559e-08

  Total energy:                                            -78.4670106493 a.u.
  Excitation energy:                                               9.007226 eV

  Osc. strength:                                                      0.001195
  Trans. dip. moment [a.u.]:           [   0.000007,   -0.073581,    0.000000]
  <i|r^2|0> [a.u.]:                    [   0.000001,    0.000001,   -0.000001]

  Dip. moment [a.u.]:                  [  -0.000000,   -0.000001,    0.626859]
  Total dipole [Debye]:                                               1.593318
  <r^2> [a.u.]:                        [  54.920830,   36.857639,   81.202570]
  Total <r^2> [a.u.]:                                               172.981040

  V1^2 = 0.9327, V2^2 = 0.0673

  Important amplitudes:
      occ i      occ j       vir a       vir b          v   
    ---------------------------------------------------------
     5 (A1) A               4 (B2) A                  0.6768
     5 (A1) A               3 (B2) A                  0.0767
    ---------------------------------------------------------

  Density matrix analysis:
  ------------------------
  NOs
    Occupation of frontier NOs:
       0.9883   0.9954
    Number of electrons: 18.000000
    Number of unpaired electrons: n_u =  2.43230, n_u,nl =  2.05183
    NO participation ratio (PR_NO):  2.986249
  
  
  Mulliken Population Analysis
  Atom      Charge (e)              h+              e-           Del q
  --------------------------------------------------------------------
   1 C       -1.049608        0.207836       -0.961834       -0.753998
   2 C       -1.049608        0.207836       -0.961834       -0.753998
   3 H        0.272246        0.000134        0.184007        0.184140
   4 H        0.272269        0.000134        0.184003        0.184136
   5 H        0.272259        0.000134        0.184002        0.184136
   6 H        0.272236        0.000134        0.184006        0.184140
   7 H        0.010204        0.805405       -0.033962        0.771444
  --------------------------------------------------------------------
  Sum:       -1.000000        1.221612       -1.221612        0.000000
  
  Multipole moment analysis of the density matrix
    Molecular charge:                      -1.000000
    Number of electrons:                   18.000000
      Center of electronic charge [Ang]: [  0.000000,  -0.000000,  -0.018429]
    Total nuclear charge:                  17.000000
      Center of nuclear charge [Ang]:    [ -0.000000,  -0.000000,  -0.000000]
    Dipole moment [D]:                     1.593317
      Cartesian components [D]:          [ -0.000000,  -0.000003,   1.593317]
    RMS size of the density [Ang]:         1.640351
      Cartesian components [Ang]:        [  0.924344,   0.757231,   1.123806]
  
  Exciton analysis of the difference density matrix
    <r_h> [Ang]:                  [  0.000000,  -0.000000,   3.074023]
    <r_e> [Ang]:                  [  0.000000,   0.000001,  -0.030535]
    |<r_e - r_h>| [Ang]:            3.104559
    Hole size [Ang]:                2.222632
      Cartesian components [Ang]: [  0.947645,   0.907549,   1.793994]
    Electron size [Ang]:            2.649481
      Cartesian components [Ang]: [  1.245617,   1.806924,   1.484322]

  Transition density matrix analysis:
  -----------------------------------
  
  CT numbers (Mulliken)
    omega =     0.9227
    <Phe> =     0.0004
  
  Exciton analysis of the transition density matrix
    Trans. dipole moment [D]:             0.093512
      Cartesian components [D]:         [  0.000009,  -0.093512,   0.000000]
    <r_h> [Ang]:                        [ -0.000000,  -0.000000,   3.787850]
    <r_e> [Ang]:                        [  0.000000,   0.000001,  -0.252801]
    |<r_e - r_h>| [Ang]:                  4.040650
    Hole size [Ang]:                      1.485058
      Cartesian components [Ang]:       [  0.761436,   0.749208,   1.031649]
    Electron size [Ang]:                  2.597666
      Cartesian components [Ang]:       [  1.183271,   1.919219,   1.290092]
    RMS electron-hole separation [Ang]:   5.027317
      Cartesian components [Ang]:       [  1.406129,   2.060107,   4.364936]
    Covariance(r_h, r_e) [Ang^2]:         0.003106
    Correlation coefficient:              0.000805
    Center-of-mass size [Ang]:            1.496619
      Cartesian components [Ang]:       [  0.704030,   1.030217,   0.826356]

  Decomposition into state-averaged NTOs
    H- 0 -> L+ 1:  0.6733 ( 90.7%)
    H- 0 -> L+ 3:  0.0768 (  1.2%)
                   omega =  92.3%
  ----------------------------------------------------------------------------


  Excited state 5 (singlet, B2)                                    [converged]
  ----------------------------------------------------------------------------
  Term symbol:  5 (1) B2                                    R^2 =  3.05817e-09

  Total energy:                                            -78.4628790184 a.u.
  Excitation energy:                                               9.119653 eV

  Osc. strength:                                                      0.001558
  Trans. dip. moment [a.u.]:           [  -0.000002,   -0.083493,   -0.000001]
  <i|r^2|0> [a.u.]:                    [  -0.000001,   -0.000002,   -0.000001]

  Dip. moment [a.u.]:                  [  -0.000000,    0.000000,   -6.056497]
  Total dipole [Debye]:                                              15.394084
  <r^2> [a.u.]:                        [  54.179740,   25.139223,  131.082710]
  Total <r^2> [a.u.]:                                               210.401673

  V1^2 = 0.9508, V2^2 = 0.0492

  Important amplitudes:
      occ i      occ j       vir a       vir b          v   
    ---------------------------------------------------------
     1 (A2) A               5 (B1) A                 -0.4589
     1 (A2) A               4 (B1) A                  0.4334
    ---------------------------------------------------------

  Density matrix analysis:
  ------------------------
  NOs
    Occupation of frontier NOs:
       0.9935   1.0169
    Number of electrons: 18.000000
    Number of unpaired electrons: n_u =  2.42032, n_u,nl =  2.04797
    NO participation ratio (PR_NO):  2.979305
  
  
  Mulliken Population Analysis
  Atom      Charge (e)              h+              e-           Del q
  --------------------------------------------------------------------
   1 C       -0.551930        0.264367       -0.520688       -0.256321
   2 C       -0.551930        0.264367       -0.520688       -0.256321
   3 H        0.215347        0.132798       -0.005558        0.127241
   4 H        0.215374        0.132799       -0.005558        0.127241
   5 H        0.215366        0.132800       -0.005557        0.127242
   6 H        0.215338        0.132799       -0.005557        0.127242
   7 H       -0.757564        0.003978       -0.000303        0.003675
  --------------------------------------------------------------------
  Sum:       -1.000000        1.063908       -1.063908        0.000000
  
  Multipole moment analysis of the density matrix
    Molecular charge:                      -1.000000
    Number of electrons:                   18.000000
      Center of electronic charge [Ang]: [  0.000000,  -0.000000,   0.178053]
    Total nuclear charge:                  17.000000
      Center of nuclear charge [Ang]:    [ -0.000000,  -0.000000,  -0.000000]
    Dipole moment [D]:                     15.394079
      Cartesian components [D]:          [ -0.000000,   0.000001, -15.394079]
    RMS size of the density [Ang]:         1.800429
      Cartesian components [Ang]:        [  0.918086,   0.625375,   1.416887]
  
  Exciton analysis of the difference density matrix
    <r_h> [Ang]:                  [  0.000000,  -0.000000,  -0.250675]
    <r_e> [Ang]:                  [  0.000000,  -0.000000,  -0.491190]
    |<r_e - r_h>| [Ang]:            0.240515
    Hole size [Ang]:                1.548636
      Cartesian components [Ang]: [  1.117504,   0.923075,   0.545336]
    Electron size [Ang]:            1.899443
      Cartesian components [Ang]: [  1.343189,   0.755582,   1.110326]

  Transition density matrix analysis:
  -----------------------------------
  
  CT numbers (Mulliken)
    omega =     0.9212
    <Phe> =    -0.0118
  
  Exciton analysis of the transition density matrix
    Trans. dipole moment [D]:             0.106109
      Cartesian components [D]:         [ -0.000002,  -0.106109,  -0.000001]
    <r_h> [Ang]:                        [  0.000000,  -0.000000,  -0.244857]
    <r_e> [Ang]:                        [  0.000000,  -0.000000,  -0.510807]
    |<r_e - r_h>| [Ang]:                  0.265950
    Hole size [Ang]:                      1.528491
      Cartesian components [Ang]:       [  1.117484,   0.932585,   0.466690]
    Electron size [Ang]:                  1.921345
      Cartesian components [Ang]:       [  1.362152,   0.748081,   1.129816]
    RMS electron-hole separation [Ang]:   2.443097
      Cartesian components [Ang]:       [  1.729727,   1.190846,   1.248460]
    Covariance(r_h, r_e) [Ang^2]:         0.064929
    Correlation coefficient:              0.022109
    Center-of-mass size [Ang]:            1.240737
      Cartesian components [Ang]:       [  0.896730,   0.600118,   0.612504]

  Decomposition into state-averaged NTOs
    H- 1 -> L+ 2:  0.6675 ( 89.1%)
    H- 1 -> L+ 4:  0.1020 (  2.1%)
                   omega =  92.1%
  ----------------------------------------------------------------------------


  Excited state 6 (singlet, B2)                                    [converged]
  ----------------------------------------------------------------------------
  Term symbol:  6 (1) B2                                    R^2 =  2.51145e-11

  Total energy:                                            -78.4274711534 a.u.
  Excitation energy:                                              10.083150 eV

  Osc. strength:                                                      0.073860
  Trans. dip. moment [a.u.]:           [   0.000001,    0.546800,   -0.000000]
  <i|r^2|0> [a.u.]:                    [   0.000009,    0.000009,    0.000005]

  Dip. moment [a.u.]:                  [  -0.000000,    0.000003,   -5.886373]
  Total dipole [Debye]:                                              14.961670
  <r^2> [a.u.]:                        [  80.444371,   30.714651,  133.026601]
  Total <r^2> [a.u.]:                                               244.185624

  V1^2 = 0.9385, V2^2 = 0.0615

  Important amplitudes:
      occ i      occ j       vir a       vir b          v   
    ---------------------------------------------------------
     1 (A2) A               3 (B1) A                  0.6165
     1 (A2) A               4 (B1) A                  0.1914
    ---------------------------------------------------------

  Density matrix analysis:
  ------------------------
  NOs
    Occupation of frontier NOs:
       0.9776   1.0315
    Number of electrons: 18.000000
    Number of unpaired electrons: n_u =  2.47307, n_u,nl =  2.07647
    NO participation ratio (PR_NO):  3.194148
  
  
  Mulliken Population Analysis
  Atom      Charge (e)              h+              e-           Del q
  --------------------------------------------------------------------
   1 C       -0.598506        0.261947       -0.564844       -0.302897
   2 C       -0.598506        0.261947       -0.564844       -0.302897
   3 H        0.235731        0.189118       -0.041492        0.147625
   4 H        0.235759        0.189118       -0.041492        0.147626
   5 H        0.235752        0.189120       -0.041492        0.147628
   6 H        0.235724        0.189120       -0.041493        0.147627
   7 H       -0.745953        0.021383       -0.006096        0.015287
  --------------------------------------------------------------------
  Sum:       -1.000000        1.301753       -1.301753        0.000000
  
  Multipole moment analysis of the density matrix
    Molecular charge:                      -1.000000
    Number of electrons:                   18.000000
      Center of electronic charge [Ang]: [  0.000000,  -0.000000,   0.173052]
    Total nuclear charge:                  17.000000
      Center of nuclear charge [Ang]:    [ -0.000000,  -0.000000,  -0.000000]
    Dipole moment [D]:                     14.961666
      Cartesian components [D]:          [ -0.000000,   0.000007, -14.961666]
    RMS size of the density [Ang]:         1.941361
      Cartesian components [Ang]:        [  1.118698,   0.691254,   1.428134]
  
  Exciton analysis of the difference density matrix
    <r_h> [Ang]:                  [  0.000000,  -0.000000,  -0.235287]
    <r_e> [Ang]:                  [  0.000000,  -0.000001,  -0.501015]
    |<r_e - r_h>| [Ang]:            0.265728
    Hole size [Ang]:                1.799855
      Cartesian components [Ang]: [  1.213617,   0.999761,   0.875836]
    Electron size [Ang]:            3.383155
      Cartesian components [Ang]: [  2.752580,   1.403245,   1.378384]

  Transition density matrix analysis:
  -----------------------------------
  
  CT numbers (Mulliken)
    omega =     0.9222
    <Phe> =    -0.0053
  
  Exciton analysis of the transition density matrix
    Trans. dipole moment [D]:             0.694913
      Cartesian components [D]:         [  0.000001,   0.694913,  -0.000000]
    <r_h> [Ang]:                        [  0.000000,  -0.000000,  -0.255197]
    <r_e> [Ang]:                        [  0.000000,  -0.000001,  -0.607441]
    |<r_e - r_h>| [Ang]:                  0.352243
    Hole size [Ang]:                      1.521616
      Cartesian components [Ang]:       [  1.123464,   0.938217,   0.415804]
    Electron size [Ang]:                  3.733026
      Cartesian components [Ang]:       [  3.082156,   1.539894,   1.436843]
    RMS electron-hole separation [Ang]:   3.908920
      Cartesian components [Ang]:       [  3.129721,   1.767462,   1.536417]
    Covariance(r_h, r_e) [Ang^2]:         0.547609
    Correlation coefficient:              0.096406
    Center-of-mass size [Ang]:            2.082427
      Cartesian components [Ang]:       [  1.712349,   0.919120,   0.748051]

  Decomposition into state-averaged NTOs
    H- 1 -> L+ 4:  0.6652 ( 88.5%)
    H- 1 -> L+ 2: -0.1020 (  2.1%)
                   omega =  92.2%
  ----------------------------------------------------------------------------


  Excited state 7 (singlet, B2)                                    [converged]
  ----------------------------------------------------------------------------
  Term symbol:  7 (1) B2                                    R^2 =  2.77767e-07

  Total energy:                                            -78.4150688083 a.u.
  Excitation energy:                                              10.420635 eV

  Osc. strength:                                                      0.000015
  Trans. dip. moment [a.u.]:           [   0.000000,   -0.007787,   -0.000000]
  <i|r^2|0> [a.u.]:                    [   0.000000,   -0.000000,   -0.000000]

  Dip. moment [a.u.]:                  [   0.000000,    0.000001,   10.994951]
  Total dipole [Debye]:                                              27.946383
  <r^2> [a.u.]:                        [  89.246107,   59.376236,   39.824258]
  Total <r^2> [a.u.]:                                               188.446601

  V1^2 = 0.0001, V2^2 = 0.9999

  Important amplitudes:
      occ i      occ j       vir a       vir b          v   
    ---------------------------------------------------------
     5 (A1) A   5 (A1) B    6 (A1) A    2 (B2) B      0.3535
     5 (A1) A               3 (B2) A                 -0.0060
    ---------------------------------------------------------

  Density matrix analysis:
  ------------------------
  NOs
    Occupation of frontier NOs:
       1.0014   1.0021
    Number of electrons: 18.000000
    Number of unpaired electrons: n_u =  2.40524, n_u,nl =  2.05841
    NO participation ratio (PR_NO):  2.881092
  
  
  Mulliken Population Analysis
  Atom      Charge (e)              h+              e-           Del q
  --------------------------------------------------------------------
   1 C       -1.207015        0.118333       -1.029738       -0.911405
   2 C       -1.207015        0.118333       -1.029738       -0.911405
   3 H        0.097544       -0.005169        0.014607        0.009438
   4 H        0.097570       -0.005169        0.014606        0.009437
   5 H        0.097561       -0.005169        0.014606        0.009437
   6 H        0.097534       -0.005169        0.014607        0.009438
   7 H        1.023820        1.783946        0.001113        1.785060
  --------------------------------------------------------------------
  Sum:       -1.000000        1.999938       -1.999938        0.000000
  
  Multipole moment analysis of the density matrix
    Molecular charge:                      -1.000000
    Number of electrons:                   18.000000
      Center of electronic charge [Ang]: [ -0.000000,  -0.000000,  -0.323238]
    Total nuclear charge:                  17.000000
      Center of nuclear charge [Ang]:    [ -0.000000,  -0.000000,  -0.000000]
    Dipole moment [D]:                     27.946375
      Cartesian components [D]:          [  0.000000,   0.000002,  27.946375]
    RMS size of the density [Ang]:         1.681430
      Cartesian components [Ang]:        [  1.178310,   0.961106,   0.717683]
  
  Exciton analysis of the difference density matrix
    <r_h> [Ang]:                  [  0.000000,  -0.000000,   3.847483]
    <r_e> [Ang]:                  [ -0.000000,  -0.000000,  -0.792223]
    |<r_e - r_h>| [Ang]:            4.639706
    Hole size [Ang]:                1.397296
      Cartesian components [Ang]: [  0.737169,   0.728854,   0.936904]
    Electron size [Ang]:            3.713788
      Cartesian components [Ang]: [  2.397663,   2.274967,   1.693504]

  Transition density matrix analysis:
  -----------------------------------
  
  CT numbers (Mulliken)
    omega =     0.0001
    <Phe> =     0.0507
  
  Exciton analysis of the transition density matrix
    Trans. dipole moment [D]:             0.009897
      Cartesian components [D]:         [  0.000000,  -0.009897,  -0.000000]
    <r_h> [Ang]:                        [ -0.000000,  -0.000000,   3.283141]
    <r_e> [Ang]:                        [ -0.000000,   0.000001,  -0.395309]
    |<r_e - r_h>| [Ang]:                  3.678450
    Hole size [Ang]:                      2.297375
      Cartesian components [Ang]:       [  0.906173,   1.170213,   1.757095]
    Electron size [Ang]:                  2.283964
      Cartesian components [Ang]:       [  1.612574,   1.342898,   0.901511]
    RMS electron-hole separation [Ang]:   4.832691
      Cartesian components [Ang]:       [  1.848759,   1.801494,   4.085537]
    Covariance(r_h, r_e) [Ang^2]:         0.335256
    Correlation coefficient:              0.063893
    Center-of-mass size [Ang]:            1.670699
      Cartesian components [Ang]:       [  0.925362,   0.880364,   1.076986]

  Decomposition into state-averaged NTOs
                   omega =   0.0%
  ----------------------------------------------------------------------------


  Excited state 8 (singlet, B2)                                    [converged]
  ----------------------------------------------------------------------------
  Term symbol:  8 (1) B2                                    R^2 =  7.58566e-07

  Total energy:                                            -78.4083193551 a.u.
  Excitation energy:                                              10.604297 eV

  Osc. strength:                                                      0.000005
  Trans. dip. moment [a.u.]:           [   0.000000,   -0.004286,   -0.000000]
  <i|r^2|0> [a.u.]:                    [  -0.000000,   -0.000000,   -0.000000]

  Dip. moment [a.u.]:                  [  -0.000000,    0.000000,   10.630798]
  Total dipole [Debye]:                                              27.020797
  <r^2> [a.u.]:                        [ 115.840708,   58.356012,   35.811705]
  Total <r^2> [a.u.]:                                               210.008426

  V1^2 = 0.0002, V2^2 = 0.9998

  Important amplitudes:
      occ i      occ j       vir a       vir b          v   
    ---------------------------------------------------------
     5 (A1) A   5 (A1) B    2 (A2) A    3 (B1) B     -0.3535
     5 (A1) A               4 (B2) A                  0.0081
    ---------------------------------------------------------

  Density matrix analysis:
  ------------------------
  NOs
    Occupation of frontier NOs:
       1.0008   1.0009
    Number of electrons: 18.000000
    Number of unpaired electrons: n_u =  2.40911, n_u,nl =  2.05857
    NO participation ratio (PR_NO):  2.884887
  
  
  Mulliken Population Analysis
  Atom      Charge (e)              h+              e-           Del q
  --------------------------------------------------------------------
   1 C       -1.006282        0.118312       -0.828984       -0.710672
   2 C       -1.006282        0.118312       -0.828984       -0.710672
   3 H       -0.002561       -0.005193       -0.085474       -0.090667
   4 H       -0.002534       -0.005193       -0.085474       -0.090667
   5 H       -0.002543       -0.005193       -0.085473       -0.090667
   6 H       -0.002570       -0.005193       -0.085474       -0.090667
   7 H        1.022772        1.784014       -0.000003        1.784011
  --------------------------------------------------------------------
  Sum:       -1.000000        1.999866       -1.999866        0.000000
  
  Multipole moment analysis of the density matrix
    Molecular charge:                      -1.000000
    Number of electrons:                   18.000000
      Center of electronic charge [Ang]: [  0.000000,  -0.000000,  -0.312532]
    Total nuclear charge:                  17.000000
      Center of nuclear charge [Ang]:    [ -0.000000,  -0.000000,  -0.000000]
    Dipole moment [D]:                     27.020789
      Cartesian components [D]:          [ -0.000000,   0.000001,  27.020789]
    RMS size of the density [Ang]:         1.780296
      Cartesian components [Ang]:        [  1.342442,   0.952813,   0.677828]
  
  Exciton analysis of the difference density matrix
    <r_h> [Ang]:                  [  0.000000,  -0.000000,   3.847618]
    <r_e> [Ang]:                  [  0.000000,   0.000000,  -0.695898]
    |<r_e - r_h>| [Ang]:            4.543515
    Hole size [Ang]:                1.396909
      Cartesian components [Ang]: [  0.737411,   0.728780,   0.936194]
    Electron size [Ang]:            4.117596
      Cartesian components [Ang]: [  3.077857,   2.243363,   1.564838]

  Transition density matrix analysis:
  -----------------------------------
  
  CT numbers (Mulliken)
    omega =     0.0002
    <Phe> =     0.0036
  
  Exciton analysis of the transition density matrix
    Trans. dipole moment [D]:             0.005447
      Cartesian components [D]:         [  0.000000,  -0.005447,  -0.000000]
    <r_h> [Ang]:                        [  0.000000,  -0.000000,   3.748668]
    <r_e> [Ang]:                        [ -0.000000,   0.000000,  -0.256694]
    |<r_e - r_h>| [Ang]:                  4.005362
    Hole size [Ang]:                      1.560560
      Cartesian components [Ang]:       [  0.801289,   0.770361,   1.095366]
    Electron size [Ang]:                  2.700223
      Cartesian components [Ang]:       [  1.446776,   1.947027,   1.186224]
    RMS electron-hole separation [Ang]:   5.087275
      Cartesian components [Ang]:       [  1.703675,   2.086447,   4.315622]
    Covariance(r_h, r_e) [Ang^2]:        -0.055448
    Correlation coefficient:             -0.013159
    Center-of-mass size [Ang]:            1.550456
      Cartesian components [Ang]:       [  0.801240,   1.050652,   0.811208]

  Decomposition into state-averaged NTOs
                   omega =   0.0%
  ----------------------------------------------------------------------------


  Excited state 9 (singlet, B2)                                    [converged]
  ----------------------------------------------------------------------------
  Term symbol:  9 (1) B2                                    R^2 =  2.33592e-08

  Total energy:                                            -78.3787343471 a.u.
  Excitation energy:                                              11.409346 eV

  Osc. strength:                                                      0.090475
  Trans. dip. moment [a.u.]:           [   0.000000,    0.568926,   -0.000000]
  <i|r^2|0> [a.u.]:                    [  -0.000002,   -0.000002,    0.000000]

  Dip. moment [a.u.]:                  [   0.000000,    0.000002,   -6.353206]
  Total dipole [Debye]:                                              16.148243
  <r^2> [a.u.]:                        [  56.485770,   47.293117,  131.013061]
  Total <r^2> [a.u.]:                                               234.791947

  V1^2 = 0.9194, V2^2 = 0.0806

  Important amplitudes:
      occ i      occ j       vir a       vir b          v   
    ---------------------------------------------------------
     3 (A1) A               2 (B2) A                  0.6553
     3 (A1) A               3 (B2) A                  0.1513
    ---------------------------------------------------------

  Density matrix analysis:
  ------------------------
  NOs
    Occupation of frontier NOs:
       0.9829   1.0235
    Number of electrons: 18.000000
    Number of unpaired electrons: n_u =  2.47559, n_u,nl =  2.06641
    NO participation ratio (PR_NO):  3.163304
  
  
  Mulliken Population Analysis
  Atom      Charge (e)              h+              e-           Del q
  --------------------------------------------------------------------
   1 C       -0.478748        0.423915       -0.607052       -0.183138
   2 C       -0.478748        0.423915       -0.607052       -0.183138
   3 H        0.171149        0.140161       -0.057118        0.083043
   4 H        0.171175        0.140159       -0.057118        0.083042
   5 H        0.171169        0.140163       -0.057118        0.083045
   6 H        0.171143        0.140165       -0.057118        0.083047
   7 H       -0.727141        0.035642       -0.001543        0.034099
  --------------------------------------------------------------------
  Sum:       -1.000000        1.444118       -1.444118       -0.000000
  
  Multipole moment analysis of the density matrix
    Molecular charge:                      -1.000000
    Number of electrons:                   18.000000
      Center of electronic charge [Ang]: [ -0.000000,  -0.000000,   0.186776]
    Total nuclear charge:                  17.000000
      Center of nuclear charge [Ang]:    [ -0.000000,  -0.000000,  -0.000000]
    Dipole moment [D]:                     16.148238
      Cartesian components [D]:          [  0.000000,   0.000005, -16.148238]
    RMS size of the density [Ang]:         1.902053
      Cartesian components [Ang]:        [  0.937420,   0.857756,   1.415381]
  
  Exciton analysis of the difference density matrix
    <r_h> [Ang]:                  [  0.000000,   0.000001,  -0.188006]
    <r_e> [Ang]:                  [  0.000000,   0.000000,  -0.256473]
    |<r_e - r_h>| [Ang]:            0.068467
    Hole size [Ang]:                1.735936
      Cartesian components [Ang]: [  1.171269,   0.850679,   0.958096]
    Electron size [Ang]:            2.955528
      Cartesian components [Ang]: [  1.492703,   2.193711,   1.301773]

  Transition density matrix analysis:
  -----------------------------------
  
  CT numbers (Mulliken)
    omega =     0.9015
    <Phe> =    -0.0037
  
  Exciton analysis of the transition density matrix
    Trans. dipole moment [D]:             0.723032
      Cartesian components [D]:         [  0.000000,   0.723032,  -0.000000]
    <r_h> [Ang]:                        [ -0.000000,  -0.000000,  -0.256567]
    <r_e> [Ang]:                        [  0.000000,   0.000000,  -0.259651]
    |<r_e - r_h>| [Ang]:                  0.003084
    Hole size [Ang]:                      1.328754
      Cartesian components [Ang]:       [  1.103739,   0.615435,   0.410593]
    Electron size [Ang]:                  3.393282
      Cartesian components [Ang]:       [  1.667892,   2.574825,   1.450094]
    RMS electron-hole separation [Ang]:   3.601732
      Cartesian components [Ang]:       [  1.939019,   2.634641,   1.507099]
    Covariance(r_h, r_e) [Ang^2]:         0.153741
    Correlation coefficient:              0.034098
    Center-of-mass size [Ang]:            1.843057
      Cartesian components [Ang]:       [  1.029613,   1.330003,   0.753555]

  Decomposition into state-averaged NTOs
    H- 3 -> L+ 0:  0.6671 ( 89.0%)
                   omega =  90.2%
  ----------------------------------------------------------------------------


  Excited state 10 (singlet, B2)                                    [converged]
  ----------------------------------------------------------------------------
  Term symbol:  10 (1) B2                                   R^2 =  2.44569e-07

  Total energy:                                            -78.3766684746 a.u.
  Excitation energy:                                              11.465561 eV

  Osc. strength:                                                      0.002062
  Trans. dip. moment [a.u.]:           [   0.000000,   -0.085680,    0.000000]
  <i|r^2|0> [a.u.]:                    [   0.000000,    0.000000,    0.000000]

  Dip. moment [a.u.]:                  [   0.000000,    0.000000,   10.066532]
  Total dipole [Debye]:                                              25.586577
  <r^2> [a.u.]:                        [  82.318545,   60.995802,   45.213671]
  Total <r^2> [a.u.]:                                               188.528018

  V1^2 = 0.0206, V2^2 = 0.9794

  Important amplitudes:
      occ i      occ j       vir a       vir b          v   
    ---------------------------------------------------------
     5 (A1) A   5 (A1) B    7 (A1) A    2 (B2) B      0.3477
     5 (A1) A               2 (B2) A                  0.0709
    ---------------------------------------------------------

  Density matrix analysis:
  ------------------------
  NOs
    Occupation of frontier NOs:
       0.9934   0.9995
    Number of electrons: 18.000000
    Number of unpaired electrons: n_u =  2.43432, n_u,nl =  2.05856
    NO participation ratio (PR_NO):  2.961506
  
  
  Mulliken Population Analysis
  Atom      Charge (e)              h+              e-           Del q
  --------------------------------------------------------------------
   1 C       -1.149883        0.115228       -0.969501       -0.854274
   2 C       -1.149883        0.115228       -0.969501       -0.854274
   3 H        0.073401       -0.004177       -0.010527       -0.014705
   4 H        0.073428       -0.004177       -0.010527       -0.014705
   5 H        0.073419       -0.004177       -0.010527       -0.014705
   6 H        0.073392       -0.004177       -0.010528       -0.014705
   7 H        1.006127        1.772873       -0.005506        1.767367
  --------------------------------------------------------------------
  Sum:       -1.000000        1.986618       -1.986618        0.000000
  
  Multipole moment analysis of the density matrix
    Molecular charge:                      -1.000000
    Number of electrons:                   18.000000
      Center of electronic charge [Ang]: [ -0.000000,  -0.000000,  -0.295944]
    Total nuclear charge:                  17.000000
      Center of nuclear charge [Ang]:    [ -0.000000,  -0.000000,  -0.000000]
    Dipole moment [D]:                     25.586570
      Cartesian components [D]:          [  0.000000,   0.000000,  25.586570]
    RMS size of the density [Ang]:         1.686824
      Cartesian components [Ang]:        [  1.131654,   0.974125,   0.784737]
  
  Exciton analysis of the difference density matrix
    <r_h> [Ang]:                  [  0.000000,   0.000000,   3.829981]
    <r_e> [Ang]:                  [ -0.000000,   0.000000,  -0.593529]
    |<r_e - r_h>| [Ang]:            4.423510
    Hole size [Ang]:                1.407741
      Cartesian components [Ang]: [  0.719948,   0.722596,   0.970187]
    Electron size [Ang]:            3.736082
      Cartesian components [Ang]: [  2.186802,   2.329339,   1.936591]

  Transition density matrix analysis:
  -----------------------------------
  
  CT numbers (Mulliken)
    omega =     0.0208
    <Phe> =    -0.0007
  
  Exciton analysis of the transition density matrix
    Trans. dipole moment [D]:             0.108889
      Cartesian components [D]:         [  0.000000,  -0.108889,   0.000000]
    <r_h> [Ang]:                        [ -0.000000,  -0.000000,   2.023127]
    <r_e> [Ang]:                        [  0.000000,   0.000000,  -0.254139]
    |<r_e - r_h>| [Ang]:                  2.277266
    Hole size [Ang]:                      2.437257
      Cartesian components [Ang]:       [  0.869494,   0.610859,   2.193411]
    Electron size [Ang]:                  3.677698
      Cartesian components [Ang]:       [  1.757843,   2.812585,   1.588968]
    RMS electron-hole separation [Ang]:   4.949590
      Cartesian components [Ang]:       [  1.931995,   2.873369,   3.536890]
    Covariance(r_h, r_e) [Ang^2]:         0.076591
    Correlation coefficient:              0.008545
    Center-of-mass size [Ang]:            2.214660
      Cartesian components [Ang]:       [  0.994920,   1.441467,   1.355368]

  Decomposition into state-averaged NTOs
                   omega =   2.1%
  ----------------------------------------------------------------------------


--------------------------------------------------------------------------------
  Time of ADC calculation:  CPU 361.54 s  wall 83.22 s
================================================================================
 
 --------------------------------------------------------------
             Orbital Energies (a.u.) and Symmetries
 --------------------------------------------------------------
 
 Alpha MOs, Restricted
 -- Occupied --                  
-11.111 -11.109  -0.914  -0.656  -0.535  -0.442  -0.391  -0.247
  1 A1    1 B1    2 A1    2 B1    1 B2    3 A1    1 A2    4 A1                 
 -0.003
  5 A1                                                                         
 -- Virtual --                   
  0.167   0.184   0.193   0.217   0.218   0.221   0.297   0.310
  3 B1    6 A1    2 B2    2 A2    7 A1    4 B1    8 A1    5 B1                 
  0.333   0.403   0.436   0.438   0.466   0.479   0.491   0.492
  6 B1    9 A1    3 B2    7 B1   10 A1    4 B2    3 A2    8 B1                 
  0.503   0.578   0.673   0.742   0.962   0.972   1.058   1.077
 11 A1    9 B1    4 A2   10 B1   12 A1    5 B2   11 B1   13 A1                 
  1.090   1.145   1.186   1.188   1.242   1.265   1.267   1.304
 14 A1    5 A2    6 B2   15 A1    7 B2   12 B1   16 A1   13 B1                 
  1.411   1.421   1.421   1.582   1.749   1.815   1.857   1.924
  6 A2   17 A1   14 B1    7 A2   18 A1    8 A2    8 B2    9 B2                 
  1.931   1.940   2.003   2.070   2.087   2.143   2.202   2.222
 15 B1   19 A1   16 B1   20 A1   17 B1   10 B2   21 A1   11 B2                 
  2.310   2.459   2.539   2.600   2.691   2.704   2.967   2.971
 18 B1   19 B1    9 A2   22 A1   10 A2   20 B1   12 B2   23 A1                 
  3.392   3.468
 21 B1   11 A2                                                                 
 
 Beta MOs, Restricted
 -- Occupied --                  
-11.111 -11.109  -0.914  -0.656  -0.535  -0.442  -0.391  -0.247
  1 A1    1 B1    2 A1    2 B1    1 B2    3 A1    1 A2    4 A1                 
 -0.003
  5 A1                                                                         
 -- Virtual --                   
  0.167   0.184   0.193   0.217   0.218   0.221   0.297   0.310
  3 B1    6 A1    2 B2    2 A2    7 A1    4 B1    8 A1    5 B1                 
  0.333   0.403   0.436   0.438   0.466   0.479   0.491   0.492
  6 B1    9 A1    3 B2    7 B1   10 A1    4 B2    3 A2    8 B1                 
  0.503   0.578   0.673   0.742   0.962   0.972   1.058   1.077
 11 A1    9 B1    4 A2   10 B1   12 A1    5 B2   11 B1   13 A1                 
  1.090   1.145   1.186   1.188   1.242   1.265   1.267   1.304
 14 A1    5 A2    6 B2   15 A1    7 B2   12 B1   16 A1   13 B1                 
  1.411   1.421   1.421   1.582   1.749   1.815   1.857   1.924
  6 A2   17 A1   14 B1    7 A2   18 A1    8 A2    8 B2    9 B2                 
  1.931   1.940   2.003   2.070   2.087   2.143   2.202   2.222
 15 B1   19 A1   16 B1   20 A1   17 B1   10 B2   21 A1   11 B2                 
  2.310   2.459   2.539   2.600   2.691   2.704   2.967   2.971
 18 B1   19 B1    9 A2   22 A1   10 A2   20 B1   12 B2   23 A1                 
  3.392   3.468
 21 B1   11 A2                                                                 
 --------------------------------------------------------------
 
          Ground-State Mulliken Net Atomic Charges

     Atom                 Charge (a.u.)
  ----------------------------------------
      1 C                    -0.267088
      2 C                    -0.267088
      3 H                     0.079743
      4 H                     0.079770
      5 H                     0.079760
      6 H                     0.079733
      7 H                    -0.784829
  ----------------------------------------
  Sum of atomic charges =    -1.000000

 -----------------------------------------------------------------
                    Cartesian Multipole Moments
 -----------------------------------------------------------------
    Charge (ESU x 10^10)
                -4.8032
    Dipole Moment (Debye)
         X       0.0000      Y       0.0000      Z     -16.8572
       Tot      16.8572
    Quadrupole Moments (Debye-Ang)
        XX     -18.4438     XY       0.0000     YY     -17.2779
        XZ      -0.0000     YZ      -0.0000     ZZ     -88.8448
    Octopole Moments (Debye-Ang^2)
       XXX      -0.0000    XXY       0.0000    XYY      -0.0000
       YYY       0.0000    XXZ     -13.3456    XYZ      -0.0000
       YYZ     -13.5528    XZZ      -0.0000    YZZ       0.0000
       ZZZ    -293.1410
    Hexadecapole Moments (Debye-Ang^3)
      XXXX     -85.5687   XXXY       0.0000   XXYY     -18.6755
      XYYY       0.0000   YYYY     -41.8658   XXXZ       0.0000
      XXYZ      -0.0000   XYYZ       0.0000   YYYZ      -0.0000
      XXZZ     -86.7974   XYZZ       0.0000   YYZZ     -79.2269
      XZZZ       0.0000   YZZZ      -0.0000   ZZZZ   -1433.5196
 -----------------------------------------------------------------
 Total job time:  165.74s(wall), 405.79s(cpu) 
 Fri Mar 25 23:18:34 2022

        *************************************************************
        *                                                           *
        *  Thank you very much for using Q-Chem.  Have a nice day.  *
        *                                                           *
        *************************************************************


