/src/tsommerfeld/qchem/exe/qcprog.exe .input1.416667.10449.qcin.1 /src/jdavis/qchem.scratch/qchem10449/

                  Welcome to Q-Chem
     A Quantum Leap Into The Future Of Chemistry


 Q-Chem 5.4 (devel), Q-Chem, Inc., Pleasanton, CA (2021)

 E. Epifanovsky,  A. T. B. Gilbert,  Xintian Feng,  Joonho Lee,  Yuezhi Mao,  
 N. Mardirossian,  P. Pokhilko,  A. White,  M. Wormit,  M. P. Coons,  
 A. L. Dempwolff,  Zhengting Gan,  D. Hait,  P. R. Horn,  L. D. Jacobson,  
 I. Kaliman,  J. Kussmann,  A. W. Lange,  Ka Un Lao,  D. S. Levine,  Jie Liu,  
 S. C. McKenzie,  A. F. Morrison,  K. Nanda,  F. Plasser,  D. R. Rehn,  
 M. L. Vidal,  Zhi-Qiang You,  Ying Zhu,  B. Alam,  B. Albrecht,  
 A. Aldossary,  E. Alguire,  J. H. Andersen,  D. Barton,  K. Begam,  A. Behn,  
 Y. A. Bernard,  E. J. Berquist,  H. Burton,  A. Carreras,  K. Carter-Fenk,  
 R. Chakraborty,  A. D. Chien,  K. D. Closser,  V. Cofer-Shabica,  
 S. Dasgupta,  Jia Deng,  M. de Wergifosse,  M. Diedenhofen,  Hainam Do,  
 S. Ehlert,  Po-Tung Fang,  S. Fatehi,  Qingguo Feng,  T. Friedhoff,  
 J. Gayvert,  Qinghui Ge,  G. Gidofalvi,  M. Goldey,  J. Gomes,  
 C. Gonzalez-Espinoza,  S. Gulania,  A. Gunina,  M. W. D. Hanson-Heine,  
 P. H. P. Harbach,  A. W. Hauser,  M. F. Herbst,  M. Hernandez Vera,  
 M. Hodecker,  Z. C. Holden,  S. Houck,  Xunkun Huang,  Kerwin Hui,  
 B. C. Huynh,  M. Ivanov,  Hyunjun Ji,  Hanjie Jiang,  B. Kaduk,  S. Kaehler,  
 K. Khistyaev,  Jaehoon Kim,  P. Klunzinger,  Z. Koczor-Benda,  
 Joong Hoon Koh,  D. Kosenkov,  L. Koulias,  T. Kowalczyk,  C. M. Krauter,  
 K. Kue,  A. Kunitsa,  T. Kus,  A. Landau,  K. V. Lawler,  D. Lefrancois,  
 S. Lehtola,  Rain Li,  Yi-Pei Li,  Jiashu Liang,  M. Liebenthal,  
 Hung-Hsuan Lin,  You-Sheng Lin,  Fenglai Liu,  Kuan-Yu Liu,  
 M. Loipersberger,  A. Luenser,  A. Manjanath,  P. Manohar,  E. Mansoor,  
 S. F. Manzer,  Shan-Ping Mao,  A. V. Marenich,  T. Markovich,  S. Mason,  
 S. A. Maurer,  P. F. McLaughlin,  M. F. S. J. Menger,  J.-M. Mewes,  
 S. A. Mewes,  P. Morgante,  J. W. Mullinax,  K. J. Oosterbaan,  G. Paran,  
 Alexander C. Paul,  Suranjan K. Paul,  F. Pavosevic,  Zheng Pei,  S. Prager,  
 E. I. Proynov,  E. Ramos,  B. Rana,  A. E. Rask,  A. Rettig,  R. M. Richard,  
 F. Rob,  E. Rossomme,  T. Scheele,  M. Scheurer,  M. Schneider,  
 N. Sergueev,  S. M. Sharada,  W. Skomorowski,  D. W. Small,  C. J. Stein,  
 Yu-Chuan Su,  E. J. Sundstrom,  Zhen Tao,  J. Thirman,  T. Tsuchimochi,  
 N. M. Tubman,  S. P. Veccham,  O. Vydrov,  J. Wenzel,  J. Witte,  A. Yamada,  
 Kun Yao,  S. Yeganeh,  S. R. Yost,  A. Zech,  Igor Ying Zhang,  Xing Zhang,  
 Yu Zhang,  D. Zuev,  A. Aspuru-Guzik,  A. T. Bell,  N. A. Besley,  
 K. B. Bravaya,  B. R. Brooks,  D. Casanova,  Jeng-Da Chai,  S. Coriani,  
 C. J. Cramer,  A. E. DePrince, III,  R. A. DiStasio Jr.,  A. Dreuw,  
 B. D. Dunietz,  T. R. Furlani,  W. A. Goddard III,  S. Grimme,  
 S. Hammes-Schiffer,  T. Head-Gordon,  W. J. Hehre,  Chao-Ping Hsu,  
 T.-C. Jagau,  Yousung Jung,  A. Klamt,  Jing Kong,  D. S. Lambrecht,  
 WanZhen Liang,  N. J. Mayhall,  C. W. McCurdy,  J. B. Neaton,  
 C. Ochsenfeld,  J. A. Parkhill,  R. Peverati,  V. A. Rassolov,  Yihan Shao,  
 L. V. Slipchenko,  T. Stauch,  R. P. Steele,  J. E. Subotnik,  
 A. J. W. Thom,  A. Tkatchenko,  D. G. Truhlar,  T. Van Voorhis,  
 T. A. Wesolowski,  K. B. Whaley,  H. L. Woodcock III,  P. M. Zimmerman,  
 S. Faraji,  P. M. W. Gill,  M. Head-Gordon,  J. M. Herbert,  A. I. Krylov

 Additional authors for Version 5.4.1: 
 S. Kotaru,  Shaozhi Li,  Xiangyuan Li,  F. Matz,  A. Molle,  Haisheng Ren,  
 Yingli Su,  Hung-Yi Tsai,  C. Utku,  Fang Wang

 Contributors to earlier versions of Q-Chem not listed above: 
 R. D. Adamson,  B. Austin,  R. Baer,  J. Baker,  G. J. O. Beran,  
 K. Brandhorst,  S. T. Brown,  E. F. C. Byrd,  A. K. Chakraborty,  
 G. K. L. Chan,  Chun-Min Chang,  Yunqing Chen,  C.-L. Cheng,  
 Siu Hung Chien,  D. M. Chipman,  D. L. Crittenden,  H. Dachsel,  
 R. J. Doerksen,  A. D. Dutoi,  R. G. Edgar,  J. Fosso-Tande,  
 L. Fusti-Molnar,  D. Ghosh,  A. Ghysels,  A. Golubeva-Zadorozhnaya,  
 J. Gonthier,  M. S. Gordon,  S. R. Gwaltney,  G. Hawkins,  J. E. Herr,  
 A. Heyden,  S. Hirata,  E. G. Hohenstein,  G. Kedziora,  F. J. Keil,  
 C. Kelley,  Jihan Kim,  R. A. King,  R. Z. Khaliullin,  P. P. Korambath,  
 W. Kurlancheek,  A. Laurent,  A. M. Lee,  M. S. Lee,  S. V. Levchenko,  
 Ching Yeh Lin,  D. Liotard,  E. Livshits,  R. C. Lochan,  I. Lotan,  
 L. A. Martinez-Martinez,  P. E. Maslen,  N. Nair,  D. P. O'Neill,  
 D. Neuhauser,  E. Neuscamman,  C. M. Oana,  R. Olivares-Amaya,  R. Olson,  
 T. M. Perrine,  B. Peters,  P. A. Pieniazek,  A. Prociuk,  Y. M. Rhee,  
 J. Ritchie,  M. A. Rohrdanz,  E. Rosta,  N. J. Russ,  H. F. Schaefer III,  
 M. W. Schmidt,  N. E. Schultz,  S. Sharma,  N. Shenvi,  C. D. Sherrill,  
 A. C. Simmonett,  A. Sodt,  T. Stein,  D. Stuck,  K. S. Thanthiriwatte,  
 V. Vanovschi,  L. Vogt,  Tao Wang,  A. Warshel,  M. A. Watson,  
 C. F. Williams,  Q. Wu,  X. Xu,  Jun Yang,  W. Zhang,  Yan Zhao

 Please cite Q-Chem as follows:
 Y. Shao et al., Mol. Phys. 113, 184-215 (2015)
 DOI: 10.1080/00268976.2014.952696

 Q-Chem 5.4.1 for Intel X86 EM64T Linux

 Parts of Q-Chem use Armadillo 9.900.5 (Nocturnal Misbehaviour).
 http://arma.sourceforge.net/

 Q-Chem begins on Fri Mar 25 23:21:11 2022  

 Host: node01
0

     Scratch files written to /src/jdavis/qchem.scratch/qchem10449//
 Processing $rem in /src/tsommerfeld/qchem/config/preferences:
 Processing $rem in /home/jdavis/.qchemrc:

 Checking the input file for inconsistencies... 	...done.

--------------------------------------------------------------
User input:
--------------------------------------------------------------
$molecule
-1 1
C         0.0000003663    0.4438502432    0.6645000000
C         0.0000003663    0.4438502432   -0.6645000000
H        -0.9623486337    0.4438522630    1.1590800000
H        -0.9623486337    0.4438522630   -1.1590800000
H         0.9623483663    0.4438482235    1.1590800000
H         0.9623483663    0.4438482235   -1.1590800000
H        -0.0000038605   -3.8477690721    0.0000000000
$end

$rem
   METHOD adc(2)
   BASIS gen
   PURECART 11
   EE_STATES [0,0,0,10]
   scf_convergence 8
   ADC_DAVIDSON_MAXITER 120
   ADC_DAVIDSON_MAXSUBSPACE 200
   adc_nguess_singles 100
   THRESH 14
   S2THRESH 14
   adc_davidson_conv 5
   adc_davidson_thresh 14
   THREADS 10
   MEM_TOTAL 95000
   STATE_ANALYSIS TRUE
$end
$basis
C 1
S   9   1.00
      6.665000D+03           6.920000D-04
      1.000000D+03           5.329000D-03
      2.280000D+02           2.707700D-02
      6.471000D+01           1.017180D-01
      2.106000D+01           2.747400D-01
      7.495000D+00           4.485640D-01
      2.797000D+00           2.850740D-01
      5.215000D-01           1.520400D-02
      1.596000D-01          -3.191000D-03
S   9   1.00
      6.665000D+03          -1.460000D-04
      1.000000D+03          -1.154000D-03
      2.280000D+02          -5.725000D-03
      6.471000D+01          -2.331200D-02
      2.106000D+01          -6.395500D-02
      7.495000D+00          -1.499810D-01
      2.797000D+00          -1.272620D-01
      5.215000D-01           5.445290D-01
      1.596000D-01           5.804960D-01
S   1   1.00
      1.596000D-01           1.000000D+00
S   1   1.00
      0.0469000              1.0000000
P   4   1.00
      9.439000D+00           3.810900D-02
      2.002000D+00           2.094800D-01
      5.456000D-01           5.085570D-01
      1.517000D-01           4.688420D-01
P   1   1.00
      1.517000D-01           1.000000D+00
P   1   1.00
      0.0859633      1.0000000
P   1   1.00
      0.0429817      1.0000000
D   1   1.00
      5.500000D-01           1.0000000
****
C 2
S   9   1.00
      6.665000D+03           6.920000D-04
      1.000000D+03           5.329000D-03
      2.280000D+02           2.707700D-02
      6.471000D+01           1.017180D-01
      2.106000D+01           2.747400D-01
      7.495000D+00           4.485640D-01
      2.797000D+00           2.850740D-01
      5.215000D-01           1.520400D-02
      1.596000D-01          -3.191000D-03
S   9   1.00
      6.665000D+03          -1.460000D-04
      1.000000D+03          -1.154000D-03
      2.280000D+02          -5.725000D-03
      6.471000D+01          -2.331200D-02
      2.106000D+01          -6.395500D-02
      7.495000D+00          -1.499810D-01
      2.797000D+00          -1.272620D-01
      5.215000D-01           5.445290D-01
      1.596000D-01           5.804960D-01
S   1   1.00
      1.596000D-01           1.000000D+00
S   1   1.00
      0.0469000              1.0000000
P   4   1.00
      9.439000D+00           3.810900D-02
      2.002000D+00           2.094800D-01
      5.456000D-01           5.085570D-01
      1.517000D-01           4.688420D-01
P   1   1.00
      1.517000D-01           1.000000D+00
P   1   1.00
      0.0859633      1.0000000
P   1   1.00
      0.0429817      1.0000000
D   1   1.00
      5.500000D-01           1.0000000
****
H 3
cc-pVDZ
****
H 4
cc-pVDZ
****
H 5
cc-pVDZ
****
H 6
cc-pVDZ
****
H 7
aug-cc-pVDZ
****
$end
--------------------------------------------------------------
 Atom   2: (  0.6645000000,  0.0000002034, -0.2524481950)
         ->(  0.6645000000, -0.0000002034, -0.2524481950)
 Atom   1: ( -0.6645000000,  0.0000002034, -0.2524481950)
         ->( -0.6645000000,  0.0000000000, -0.2524481950)
 Atom   6: (  1.1590800000,  0.9623482034, -0.2524467961)
         ->(  1.1590800000,  0.9623487966, -0.2524495940)
 Atom   5: ( -1.1590800000,  0.9623482034, -0.2524467961)
         ->( -1.1590800000,  0.9623487966, -0.2524495940)
 Atom   7: ( -0.0000000000, -0.0000012548,  4.0391711203)
         ->(  0.0000000000,  0.0000000000,  4.0391711203)
 ----------------------------------------------------------------
             Standard Nuclear Orientation (Angstroms)
    I     Atom           X                Y                Z
 ----------------------------------------------------------------
    1      C      -0.6645000000     0.0000000000    -0.2524481950
    2      C       0.6645000000    -0.0000002034    -0.2524481950
    3      H      -1.1590800000    -0.9623487966    -0.2524495940
    4      H       1.1590800000    -0.9623487966    -0.2524495940
    5      H      -1.1590800000     0.9623487966    -0.2524495940
    6      H       1.1590800000     0.9623487966    -0.2524495940
    7      H       0.0000000000     0.0000000000     4.0391711203
 ----------------------------------------------------------------
 Molecular Point Group                 C2v   NOp =  4
 Largest Abelian Subgroup              C2v   NOp =  4
 Nuclear Repulsion Energy =          35.51682835 hartrees
 There are        9 alpha and        9 beta electrons
 Requested basis set is non-standard
 There are 33 shells and 67 basis functions
 Total memory of 95000 MB is distributed as follows: 
   MEM_STATIC is set to 192 MB
   QALLOC/CCMAN JOB total memory use is  94808 MB
 Warning: actual memory use might exceed 95000 MB

 Total QAlloc Memory Limit  95000 MB
 Mega-Array Size       188 MB
 MEM_STATIC part       192 MB

                       Distance Matrix (Angstroms)
             C (  1)   C (  2)   H (  3)   H (  4)   H (  5)   H (  6)
   C (  2)  1.329000
   H (  3)  1.082000  2.061931
   H (  4)  2.061931  1.082000  2.318160
   H (  5)  1.082000  2.061931  1.924698  3.013026
   H (  6)  2.061931  1.082000  3.013026  1.924698  2.318160
   H (  7)  4.342759  4.342759  4.548361  4.548361  4.548361  4.548361

 
 A cutoff of  1.0D-14 yielded    561 shell pairs
 There are      2337 function pairs (      2484 Cartesian)
 Smallest overlap matrix eigenvalue = 2.13E-04

 Scale SEOQF with 1.000000e-01/1.000000e-01/1.000000e-01

 Standard Electronic Orientation quadrupole field applied
 Nucleus-field energy     =    -0.0000000012 hartrees
 ================ Generating on-the-fly SAD Guess ================
Attempting to make child job directory: /src/jdavis/qchem.scratch/qchem10449//Frg1/
Attempting to make child job directory: /src/jdavis/qchem.scratch/qchem10449//Frg2/
Creating input file /src/jdavis/qchem.scratch/qchem10449/Frg1.input
using default PutDataFrgm: nothing
calling putenv with: QCSCRATCH=/src/jdavis/qchem.scratch/qchem10449/ 
Spawning Job For Fragment 0
Done Job For Fragment 0
calling putenv with: QCSCRATCH=/src/jdavis/qchem.scratch 
calling putenv with: QCTHREADS=1 
Creating input file /src/jdavis/qchem.scratch/qchem10449/Frg2.input
using default PutDataFrgm: nothing
calling putenv with: QCSCRATCH=/src/jdavis/qchem.scratch/qchem10449/ 
Spawning Job For Fragment 1
Done Job For Fragment 1
calling putenv with: QCSCRATCH=/src/jdavis/qchem.scratch 
calling putenv with: QCTHREADS=1 
 Time for running child jobs:  CPU 1.80 s  wall 54.32 s
 ============= Method Specific SAD Guess Constructed =============
 Guess from on-the-fly superposition of atomic densities
 Warning: Energy on first SCF cycle will be non-variational
 A restricted Hartree-Fock SCF calculation will be
 performed using Pulay DIIS extrapolation
 SCF converges when DIIS error is below 1.0E-08
 using 10 threads for integral computing
 -------------------------------------------------------
 OpenMP Integral computing Module                
 Release: version 1.0, May 2013, Q-Chem Inc. Pittsburgh 
 -------------------------------------------------------
 ---------------------------------------
  Cycle       Energy         DIIS Error
 ---------------------------------------
    1     -78.8018338364      7.36E-02
    2     -78.4464327420      6.68E-03
    3     -78.4922357889      1.56E-03
    4     -78.4949768273      5.17E-04
    5     -78.4952604570      1.10E-04
    6     -78.4952905698      2.22E-05
    7     -78.4952926195      7.04E-06
    8     -78.4952929548      9.90E-07
    9     -78.4952929748      2.79E-07
   10     -78.4952929777      3.51E-08
   11     -78.4952929774      6.28E-09 Convergence criterion met
 ---------------------------------------
 SCF time:  CPU 9.36 s  wall 0.94 s
 SCF   energy in the final basis set = -78.49529298
 Total energy in the final basis set = -78.49529298
================================================================================
|                                                                              |
|                                 A D C  M A N                                 |
|                                                                              |
 ------------------------------------------------------------------------------ 
|                                                                              |
| Components:                                                                  |
|                                                                              |
| - libvmm - 1.3-trunk                                                         |
|   Authors:                                                                   |
|   Evgeny Epifanovsky, Ilya Kaliman                                           |
|                                                                              |
| - libtensor - 2.5-trunk                                                      |
|   Authors:                                                                   |
|   Evgeny Epifanovsky, Michael Wormit, Dmitry Zuev, Sam Manzer,               |
|   Ilya Kaliman                                                               |
|                                                                              |
| - libwfa - 1.1-trunk                                                         |
|   Authors:                                                                   |
|   Felix Plasser, Stefanie Mewes (Baeppler), Benjamin Thomitzni,              |
|   Michael Wormit, Feng Chen, Anna I. Krylov, Pavel Pokhilko                  |
|                                                                              |
| - libadc - 1.1-trunk                                                         |
|   Authors:                                                                   |
|   Michael Wormit, Adrian L. Dempwolff, Philipp H. P. Harbach,                |
|   Caroline Krauter, Dirk Rehn, Matthias Schneider, Jan Wenzel                |
|                                                                              |
| - adcman - 2.6-trunk                                                         |
|   Authors:                                                                   |
|   Michael Wormit, Adrian L. Dempwolff, Philipp H. P. Harbach,                |
|   Caroline Krauter, Daniel Lefrancois, Jan-Michael Mewes, Dirk Rehn,         |
|   Matthias Schneider, Jan Wenzel, Andreas Dreuw                              |
|                                                                              |
| Authors of earlier versions of ADCMAN:                                       |
| Andreas Dreuw, Jan Hendrik Starcke, Dirk Rehn, Michael Wormit                |
|                                                                              |
================================================================================

 
 Alpha MOs, Restricted
 -- Occupied --                  
-11.111 -11.109  -0.914  -0.656  -0.535  -0.442  -0.391  -0.247
  1 A1    1 B1    2 A1    2 B1    1 B2    3 A1    1 A2    4 A1                 
 -0.002
  5 A1                                                                         
 -- Virtual --                   
  0.172   0.186   0.197   0.223   0.223   0.224   0.300   0.314
  3 B1    6 A1    2 B2    2 A2    7 A1    4 B1    8 A1    5 B1                 
  0.336   0.404   0.440   0.445   0.478   0.487   0.488   0.507
  6 B1    9 A1    3 B2    7 B1   10 A1    4 B2    8 B1    3 A2                 
  0.516   0.592   0.672   0.744   0.963   0.971   1.057   1.081
 11 A1    9 B1    4 A2   10 B1   12 A1    5 B2   11 B1   13 A1                 
  1.099   1.145   1.197   1.207   1.242   1.269   1.286   1.325
 14 A1    5 A2   15 A1    6 B2    7 B2   12 B1   16 A1   13 B1                 
  1.411   1.423   1.433   1.593   1.750   1.835   1.859   1.926
  6 A2   17 A1   14 B1    7 A2   18 A1    8 A2    8 B2    9 B2                 
  1.932   1.942   2.004   2.071   2.089   2.143   2.207   2.224
 15 B1   19 A1   16 B1   20 A1   17 B1   10 B2   21 A1   11 B2                 
  2.311   2.461   2.539   2.603   2.687   2.705   2.976   2.977
 18 B1   19 B1    9 A2   22 A1   10 A2   20 B1   12 B2   23 A1                 
  3.397   3.470
 21 B1   11 A2                                                                 
 
 Beta MOs, Restricted
 -- Occupied --                  
-11.111 -11.109  -0.914  -0.656  -0.535  -0.442  -0.391  -0.247
  1 A1    1 B1    2 A1    2 B1    1 B2    3 A1    1 A2    4 A1                 
 -0.002
  5 A1                                                                         
 -- Virtual --                   
  0.172   0.186   0.197   0.223   0.223   0.224   0.300   0.314
  3 B1    6 A1    2 B2    2 A2    7 A1    4 B1    8 A1    5 B1                 
  0.336   0.404   0.440   0.445   0.478   0.487   0.488   0.507
  6 B1    9 A1    3 B2    7 B1   10 A1    4 B2    8 B1    3 A2                 
  0.516   0.592   0.672   0.744   0.963   0.971   1.057   1.081
 11 A1    9 B1    4 A2   10 B1   12 A1    5 B2   11 B1   13 A1                 
  1.099   1.145   1.197   1.207   1.242   1.269   1.286   1.325
 14 A1    5 A2   15 A1    6 B2    7 B2   12 B1   16 A1   13 B1                 
  1.411   1.423   1.433   1.593   1.750   1.835   1.859   1.926
  6 A2   17 A1   14 B1    7 A2   18 A1    8 A2    8 B2    9 B2                 
  1.932   1.942   2.004   2.071   2.089   2.143   2.207   2.224
 15 B1   19 A1   16 B1   20 A1   17 B1   10 B2   21 A1   11 B2                 
  2.311   2.461   2.539   2.603   2.687   2.705   2.976   2.977
 18 B1   19 B1    9 A2   22 A1   10 A2   20 B1   12 B2   23 A1                 
  3.397   3.470
 21 B1   11 A2                                                                 

--------------------------------------------------------------------------------
                                   HF Summary                                   
--------------------------------------------------------------------------------
  Energy:                                                  -78.4952929774 a.u.
  Dip. moment [a.u.]:                  [   0.000000,    0.000001,   -6.653487]
  Total dipole [Debye]:                                              16.911481
  <r^2> [a.u.]:                        [  51.769165,   26.012561,  128.016114]
  Total <r^2> [a.u.]:                                               205.797839
--------------------------------------------------------------------------------

--------------------------------------------------------------------------------
                                 MP(2) Summary                                  
--------------------------------------------------------------------------------
  MP energy contribution:                                   -0.3024934899 a.u.
  Total energy:                                            -78.7977864673 a.u.
  Dip. moment [a.u.]:                  [  -0.000000,    0.000001,   -6.567133]
  Total dipole [Debye]:                                              16.691991
  <r^2> [a.u.]:                        [  52.003247,   26.134257,  126.924659]
  Total <r^2> [a.u.]:                                               205.062162

  Density matrix analysis:
  ------------------------
  NOs
    Occupation of frontier NOs:
       0.0455   1.9360
    Number of electrons: 18.000000
    Number of unpaired electrons: n_u =  0.45051, n_u,nl =  0.04923
    NO participation ratio (PR_NO): 15.822391
  
  
  Mulliken Population Analysis
  Atom      Charge (e)              h+              e-           Del q
  --------------------------------------------------------------------
   1 C       -0.296792        0.088058       -0.116269       -0.028211
   2 C       -0.296792        0.088058       -0.116269       -0.028211
   3 H        0.091171        0.018296       -0.009818        0.008478
   4 H        0.091201        0.018297       -0.009816        0.008481
   5 H        0.091191        0.018296       -0.009816        0.008480
   6 H        0.091161        0.018296       -0.009818        0.008478
   7 H       -0.771139        0.042135       -0.019631        0.022504
  --------------------------------------------------------------------
  Sum:       -1.000000        0.291436       -0.291436        0.000000
  
  Multipole moment analysis of the density matrix
    Molecular charge:                      -1.000000
    Number of electrons:                   18.000000
      Center of electronic charge [Ang]: [  0.000000,  -0.000000,   0.193065]
    Total nuclear charge:                  17.000000
      Center of nuclear charge [Ang]:    [ -0.000000,  -0.000000,  -0.000000]
    Dipole moment [D]:                     16.691986
      Cartesian components [D]:          [ -0.000000,   0.000003, -16.691986]
    RMS size of the density [Ang]:         1.775643
      Cartesian components [Ang]:        [  0.899456,   0.637632,   1.391873]
  
  Exciton analysis of the difference density matrix
    <r_h> [Ang]:                  [ -0.000000,   0.000000,   0.306663]
    <r_e> [Ang]:                  [ -0.000000,  -0.000000,   0.149865]
    |<r_e - r_h>| [Ang]:            0.156798
    Hole size [Ang]:                2.086638
      Cartesian components [Ang]: [  0.960553,   0.750091,   1.693742]
    Electron size [Ang]:            1.928409
      Cartesian components [Ang]: [  1.071252,   0.824360,   1.375358]
--------------------------------------------------------------------------------
  Starting Davidson for singlet states of irrep B2 ... 
--------------------------------------------------------------------------------
   It NVec Conv  Avg. Norm  Max. Norm  Conv. states           Remark
--------------------------------------------------------------------------------
       100    0  1.104e-01  4.429e-01  0.1137 n n n n n n n n Guess.
    1  110    0  6.991e-03  3.072e-02  0.0715 n n n n n n n n 
    2  120    0  2.553e-02  2.076e-01  0.0714 n n n n n n n n 
    3  130    1  1.038e-02  1.035e-01  0.0714 y n n n n n n n 
    4  140    4  3.686e-03  3.686e-02  0.0714 y y y n y n n n 
    5  150    6  2.584e-02  2.570e-01  0.0714 y y y y y y n n 
    6  160    8  1.780e-02  1.673e-01  0.0714 y y y y y y n n 
    7  170    8  1.114e-02  1.109e-01  0.0714 y y y y y y n n 
    8  180    8  6.181e-03  6.181e-02  0.0714 y y y y y y n n 
    9  190    7  1.425e-03  1.425e-02  0.0714 y y y y y y n n 
   10  200    0  2.963e-04  2.072e-03  0.0714 n n n n n n n n 
   11   20    7  2.058e-05  1.441e-04  0.0714 y y y y y y n n Subspace collapsed.
   12   30    7  3.391e-06  2.322e-05  0.0714 y y y y y y n n 
   13   40   10  4.936e-07  3.335e-06  0.0714 y y y y y y y y Converged.
--------------------------------------------------------------------------------
  Davidson Summary: 
 ------------------------------------------------------------
  State  0: excitation energy =   0.0714 a.u.   (converged)
  State  1: excitation energy =   0.2757 a.u.   (converged)
  State  2: excitation energy =   0.2790 a.u.   (converged)
  State  3: excitation energy =   0.3352 a.u.   (converged)
  State  4: excitation energy =   0.3393 a.u.   (converged)
  State  5: excitation energy =   0.3724 a.u.   (converged)
  State  6: excitation energy =   0.3876 a.u.   (converged)
  State  7: excitation energy =   0.3986 a.u.   (converged)
  State  8: excitation energy =   0.4211 a.u.   (converged)
  State  9: excitation energy =   0.4283 a.u.   (converged)
 ------------------------------------------------------------


--------------------------------------------------------------------------------
                   State-averaged natural transition orbitals
--------------------------------------------------------------------------------
--------------------------------------------------------------------------------

--------------------------------------------------------------------------------
                             Excited State Summary
--------------------------------------------------------------------------------
--------------------------------------------------------------------------------

  Excited state 1 (singlet, B2)                                    [converged]
  ----------------------------------------------------------------------------
  Term symbol:  1 (1) B2                                    R^2 =  1.29859e-08

  Total energy:                                            -78.7264259682 a.u.
  Excitation energy:                                               1.941818 eV

  Osc. strength:                                                      0.017742
  Trans. dip. moment [a.u.]:           [  -0.000000,    0.610693,    0.000000]
  <i|r^2|0> [a.u.]:                    [  -0.000000,    0.000000,   -0.000000]

  Dip. moment [a.u.]:                  [  -0.000000,    0.000001,    0.625304]
  Total dipole [Debye]:                                               1.589364
  <r^2> [a.u.]:                        [  59.311515,   50.151245,   83.704394]
  Total <r^2> [a.u.]:                                               193.167153

  V1^2 = 0.9364, V2^2 = 0.0636

  Important amplitudes:
      occ i      occ j       vir a       vir b          v   
    ---------------------------------------------------------
     5 (A1) A               2 (B2) A                 -0.6824
     5 (A1) A   5 (A1) B    8 (A1) A    2 (B2) B     -0.0586
    ---------------------------------------------------------

  Density matrix analysis:
  ------------------------
  NOs
    Occupation of frontier NOs:
       0.9944   0.9949
    Number of electrons: 18.000000
    Number of unpaired electrons: n_u =  2.42107, n_u,nl =  2.04963
    NO participation ratio (PR_NO):  2.942949
  
  
  Mulliken Population Analysis
  Atom      Charge (e)              h+              e-           Del q
  --------------------------------------------------------------------
   1 C       -0.667356        0.177719       -0.548284       -0.370564
   2 C       -0.667356        0.177719       -0.548284       -0.370564
   3 H        0.081666        0.004535       -0.014039       -0.009504
   4 H        0.081700        0.004534       -0.014035       -0.009501
   5 H        0.081690        0.004534       -0.014035       -0.009501
   6 H        0.081657        0.004535       -0.014039       -0.009504
   7 H        0.008000        0.814683       -0.035545        0.779139
  --------------------------------------------------------------------
  Sum:       -1.000000        1.188260       -1.188260       -0.000000
  
  Multipole moment analysis of the density matrix
    Molecular charge:                      -1.000000
    Number of electrons:                   18.000000
      Center of electronic charge [Ang]: [  0.000000,  -0.000000,  -0.018383]
    Total nuclear charge:                  17.000000
      Center of nuclear charge [Ang]:    [ -0.000000,  -0.000000,  -0.000000]
    Dipole moment [D]:                     1.589364
      Cartesian components [D]:          [ -0.000000,   0.000002,   1.589364]
    RMS size of the density [Ang]:         1.733433
      Cartesian components [Ang]:        [  0.960582,   0.883295,   1.140992]
  
  Exciton analysis of the difference density matrix
    <r_h> [Ang]:                  [  0.000000,  -0.000000,   3.185112]
    <r_e> [Ang]:                  [  0.000000,   0.000000,  -0.017952]
    |<r_e - r_h>| [Ang]:            3.203064
    Hole size [Ang]:                2.161675
      Cartesian components [Ang]: [  0.944318,   0.907875,   1.719554]
    Electron size [Ang]:            3.466158
      Cartesian components [Ang]: [  1.616794,   2.546398,   1.707654]

  Transition density matrix analysis:
  -----------------------------------
  
  CT numbers (Mulliken)
    omega =     0.9271
    <Phe> =     0.0010
  
  Exciton analysis of the transition density matrix
    Trans. dipole moment [D]:             0.776114
      Cartesian components [D]:         [ -0.000000,   0.776114,   0.000000]
    <r_h> [Ang]:                        [  0.000000,  -0.000000,   3.811854]
    <r_e> [Ang]:                        [  0.000000,   0.000000,  -0.252406]
    |<r_e - r_h>| [Ang]:                  4.064260
    Hole size [Ang]:                      1.438551
      Cartesian components [Ang]:       [  0.754523,   0.742153,   0.974338]
    Electron size [Ang]:                  3.565498
      Cartesian components [Ang]:       [  1.667226,   2.737151,   1.562413]
    RMS electron-hole separation [Ang]:   5.594430
      Cartesian components [Ang]:       [  1.829334,   2.835810,   4.461991]
    Covariance(r_h, r_e) [Ang^2]:         0.001385
    Correlation coefficient:              0.000270
    Center-of-mass size [Ang]:            1.922562
      Cartesian components [Ang]:       [  0.915346,   1.418076,   0.920569]

  Decomposition into state-averaged NTOs
    H- 0 -> L+ 0: -0.6723 ( 90.4%)
    H- 0 -> L+ 2:  0.1014 (  2.1%)
                   omega =  92.7%
  ----------------------------------------------------------------------------


  Excited state 2 (singlet, B2)                                    [converged]
  ----------------------------------------------------------------------------
  Term symbol:  2 (1) B2                                    R^2 =  9.08519e-08

  Total energy:                                            -78.5220638914 a.u.
  Excitation energy:                                               7.502793 eV

  Osc. strength:                                                      0.005251
  Trans. dip. moment [a.u.]:           [   0.000003,   -0.169022,    0.000000]
  <i|r^2|0> [a.u.]:                    [   0.000000,    0.000000,   -0.000002]

  Dip. moment [a.u.]:                  [   0.000000,    0.000000,   -0.677606]
  Total dipole [Debye]:                                               1.722303
  <r^2> [a.u.]:                        [  58.183362,   37.931235,   88.610885]
  Total <r^2> [a.u.]:                                               184.725482

  V1^2 = 0.9285, V2^2 = 0.0715

  Important amplitudes:
      occ i      occ j       vir a       vir b          v   
    ---------------------------------------------------------
     5 (A1) A               3 (B2) A                 -0.6100
     4 (A1) A               2 (B2) A                  0.2840
    ---------------------------------------------------------

  Density matrix analysis:
  ------------------------
  NOs
    Occupation of frontier NOs:
       0.8132   1.1520
    Number of electrons: 18.000000
    Number of unpaired electrons: n_u =  2.48023, n_u,nl =  2.20583
    NO participation ratio (PR_NO):  4.159622
  
  
  Mulliken Population Analysis
  Atom      Charge (e)              h+              e-           Del q
  --------------------------------------------------------------------
   1 C       -0.180880        0.228736       -0.112824        0.115913
   2 C       -0.180880        0.228736       -0.112824        0.115913
   3 H       -0.128178        0.005939       -0.225287       -0.219348
   4 H       -0.128154        0.005939       -0.225294       -0.219354
   5 H       -0.128164        0.005939       -0.225294       -0.219355
   6 H       -0.128188        0.005939       -0.225288       -0.219349
   7 H       -0.125558        0.668666       -0.023085        0.645581
  --------------------------------------------------------------------
  Sum:       -1.000000        1.149896       -1.149896        0.000000
  
  Multipole moment analysis of the density matrix
    Molecular charge:                      -1.000000
    Number of electrons:                   18.000000
      Center of electronic charge [Ang]: [ -0.000000,  -0.000000,   0.019920]
    Total nuclear charge:                  17.000000
      Center of nuclear charge [Ang]:    [ -0.000000,  -0.000000,  -0.000000]
    Dipole moment [D]:                     1.722302
      Cartesian components [D]:          [  0.000000,   0.000001,  -1.722302]
    RMS size of the density [Ang]:         1.695112
      Cartesian components [Ang]:        [  0.951402,   0.768181,   1.173940]
  
  Exciton analysis of the difference density matrix
    <r_h> [Ang]:                  [  0.000000,  -0.000000,   2.611060]
    <r_e> [Ang]:                  [ -0.000000,   0.000000,  -0.099276]
    |<r_e - r_h>| [Ang]:            2.710336
    Hole size [Ang]:                2.395445
      Cartesian components [Ang]: [  0.900071,   0.829518,   2.059109]
    Electron size [Ang]:            2.755621
      Cartesian components [Ang]: [  1.521559,   1.887051,   1.310474]

  Transition density matrix analysis:
  -----------------------------------
  
  CT numbers (Mulliken)
    omega =     0.9123
    <Phe> =    -0.0014
  
  Exciton analysis of the transition density matrix
    Trans. dipole moment [D]:             0.214805
      Cartesian components [D]:         [  0.000004,  -0.214805,   0.000000]
    <r_h> [Ang]:                        [  0.000000,  -0.000000,   3.032907]
    <r_e> [Ang]:                        [ -0.000000,   0.000000,  -0.251875]
    |<r_e - r_h>| [Ang]:                  3.284782
    Hole size [Ang]:                      2.139708
      Cartesian components [Ang]:       [  0.750821,   0.700616,   1.877166]
    Electron size [Ang]:                  2.753314
      Cartesian components [Ang]:       [  1.537942,   1.979483,   1.138911]
    RMS electron-hole separation [Ang]:   4.789515
      Cartesian components [Ang]:       [  1.709201,   2.099393,   3.951030]
    Covariance(r_h, r_e) [Ang^2]:         0.004710
    Correlation coefficient:              0.000800
    Center-of-mass size [Ang]:            1.744169
      Cartesian components [Ang]:       [  0.856829,   1.050117,   1.097827]

  Decomposition into state-averaged NTOs
    H- 0 -> L+ 2: -0.6042 ( 73.0%)
    H- 2 -> L+ 0: -0.2883 ( 16.6%)
    H- 0 -> L+ 0: -0.0875 (  1.5%)
                   omega =  91.2%
  ----------------------------------------------------------------------------


  Excited state 3 (singlet, B2)                                    [converged]
  ----------------------------------------------------------------------------
  Term symbol:  3 (1) B2                                    R^2 =  2.87509e-08

  Total energy:                                            -78.5187787028 a.u.
  Excitation energy:                                               7.592187 eV

  Osc. strength:                                                      0.006376
  Trans. dip. moment [a.u.]:           [   0.000010,   -0.185138,    0.000000]
  <i|r^2|0> [a.u.]:                    [   0.000000,    0.000000,   -0.000001]

  Dip. moment [a.u.]:                  [   0.000000,    0.000000,   -5.237037]
  Total dipole [Debye]:                                              13.311223
  <r^2> [a.u.]:                        [  57.633069,   44.767986,  120.504319]
  Total <r^2> [a.u.]:                                               222.905374

  V1^2 = 0.9459, V2^2 = 0.0541

  Important amplitudes:
      occ i      occ j       vir a       vir b          v   
    ---------------------------------------------------------
     4 (A1) A               2 (B2) A                 -0.6060
     5 (A1) A               3 (B2) A                 -0.2877
    ---------------------------------------------------------

  Density matrix analysis:
  ------------------------
  NOs
    Occupation of frontier NOs:
       0.8179   1.1492
    Number of electrons: 18.000000
    Number of unpaired electrons: n_u =  2.41537, n_u,nl =  2.16533
    NO participation ratio (PR_NO):  3.953774
  
  
  Mulliken Population Analysis
  Atom      Charge (e)              h+              e-           Del q
  --------------------------------------------------------------------
   1 C       -0.340509        0.458141       -0.501858       -0.043717
   2 C       -0.340509        0.458141       -0.501858       -0.043717
   3 H        0.073146        0.050008       -0.068032       -0.018024
   4 H        0.073168        0.049996       -0.068028       -0.018033
   5 H        0.073158        0.049996       -0.068028       -0.018033
   6 H        0.073137        0.050008       -0.068032       -0.018024
   7 H       -0.611591        0.163450       -0.003903        0.159548
  --------------------------------------------------------------------
  Sum:       -1.000000        1.279739       -1.279739        0.000000
  
  Multipole moment analysis of the density matrix
    Molecular charge:                      -1.000000
    Number of electrons:                   18.000000
      Center of electronic charge [Ang]: [ -0.000000,  -0.000000,   0.153962]
    Total nuclear charge:                  17.000000
      Center of nuclear charge [Ang]:    [ -0.000000,  -0.000000,  -0.000000]
    Dipole moment [D]:                     13.311219
      Cartesian components [D]:          [  0.000000,   0.000001, -13.311219]
    RMS size of the density [Ang]:         1.855819
      Cartesian components [Ang]:        [  0.946893,   0.834543,   1.360514]
  
  Exciton analysis of the difference density matrix
    <r_h> [Ang]:                  [  0.000000,  -0.000000,   0.310127]
    <r_e> [Ang]:                  [  0.000000,   0.000000,  -0.239873]
    |<r_e - r_h>| [Ang]:            0.550000
    Hole size [Ang]:                2.118757
      Cartesian components [Ang]: [  0.969619,   0.761700,   1.723017]
    Electron size [Ang]:            2.903820
      Cartesian components [Ang]: [  1.473791,   2.158138,   1.265917]

  Transition density matrix analysis:
  -----------------------------------
  
  CT numbers (Mulliken)
    omega =     0.9179
    <Phe> =    -0.0019
  
  Exciton analysis of the transition density matrix
    Trans. dipole moment [D]:             0.235286
      Cartesian components [D]:         [  0.000012,  -0.235286,   0.000000]
    <r_h> [Ang]:                        [  0.000000,  -0.000000,   0.468490]
    <r_e> [Ang]:                        [  0.000000,   0.000000,  -0.252431]
    |<r_e - r_h>| [Ang]:                  0.720921
    Hole size [Ang]:                      2.052200
      Cartesian components [Ang]:       [  0.760307,   0.565137,   1.820461]
    Electron size [Ang]:                  3.206278
      Cartesian components [Ang]:       [  1.596429,   2.422116,   1.365646]
    RMS electron-hole separation [Ang]:   3.871947
      Cartesian components [Ang]:       [  1.764175,   2.486452,   2.386885]
    Covariance(r_h, r_e) [Ang^2]:         0.009747
    Correlation coefficient:              0.001481
    Center-of-mass size [Ang]:            1.904681
      Cartesian components [Ang]:       [  0.886142,   1.243946,   1.138051]

  Decomposition into state-averaged NTOs
    H- 2 -> L+ 0:  0.6131 ( 75.2%)
    H- 0 -> L+ 2: -0.2844 ( 16.2%)
                   omega =  91.8%
  ----------------------------------------------------------------------------


  Excited state 4 (singlet, B2)                                    [converged]
  ----------------------------------------------------------------------------
  Term symbol:  4 (1) B2                                    R^2 =  5.85173e-08

  Total energy:                                            -78.4626225006 a.u.
  Excitation energy:                                               9.120275 eV

  Osc. strength:                                                      0.001623
  Trans. dip. moment [a.u.]:           [  -0.000003,    0.085233,    0.000000]
  <i|r^2|0> [a.u.]:                    [  -0.000002,   -0.000002,   -0.000000]

  Dip. moment [a.u.]:                  [  -0.000000,   -0.000001,   -6.088964]
  Total dipole [Debye]:                                              15.476606
  <r^2> [a.u.]:                        [  53.959119,   25.036778,  131.035931]
  Total <r^2> [a.u.]:                                               210.031828

  V1^2 = 0.9509, V2^2 = 0.0491

  Important amplitudes:
      occ i      occ j       vir a       vir b          v   
    ---------------------------------------------------------
     1 (A2) A               5 (B1) A                  0.4481
     1 (A2) A               4 (B1) A                 -0.4446
    ---------------------------------------------------------

  Density matrix analysis:
  ------------------------
  NOs
    Occupation of frontier NOs:
       0.9929   1.0175
    Number of electrons: 18.000000
    Number of unpaired electrons: n_u =  2.41945, n_u,nl =  2.04773
    NO participation ratio (PR_NO):  2.981053
  
  
  Mulliken Population Analysis
  Atom      Charge (e)              h+              e-           Del q
  --------------------------------------------------------------------
   1 C       -0.551442        0.266668       -0.521317       -0.254650
   2 C       -0.551442        0.266668       -0.521317       -0.254650
   3 H        0.217393        0.131337       -0.005114        0.126223
   4 H        0.217424        0.131338       -0.005114        0.126224
   5 H        0.217415        0.131338       -0.005114        0.126224
   6 H        0.217384        0.131338       -0.005114        0.126223
   7 H       -0.766734        0.004662       -0.000256        0.004405
  --------------------------------------------------------------------
  Sum:       -1.000000        1.063348       -1.063348        0.000000
  
  Multipole moment analysis of the density matrix
    Molecular charge:                      -1.000000
    Number of electrons:                   18.000000
      Center of electronic charge [Ang]: [  0.000000,  -0.000000,   0.179008]
    Total nuclear charge:                  17.000000
      Center of nuclear charge [Ang]:    [ -0.000000,  -0.000000,  -0.000000]
    Dipole moment [D]:                     15.476601
      Cartesian components [D]:          [ -0.000000,  -0.000002, -15.476601]
    RMS size of the density [Ang]:         1.798736
      Cartesian components [Ang]:        [  0.916215,   0.624100,   1.416510]
  
  Exciton analysis of the difference density matrix
    <r_h> [Ang]:                  [  0.000000,  -0.000001,  -0.247476]
    <r_e> [Ang]:                  [  0.000000,   0.000000,  -0.485438]
    |<r_e - r_h>| [Ang]:            0.237962
    Hole size [Ang]:                1.550967
      Cartesian components [Ang]: [  1.116094,   0.921889,   0.556734]
    Electron size [Ang]:            1.881445
      Cartesian components [Ang]: [  1.326928,   0.748908,   1.103737]

  Transition density matrix analysis:
  -----------------------------------
  
  CT numbers (Mulliken)
    omega =     0.9212
    <Phe> =    -0.0120
  
  Exciton analysis of the transition density matrix
    Trans. dipole moment [D]:             0.108320
      Cartesian components [D]:         [ -0.000004,   0.108320,   0.000000]
    <r_h> [Ang]:                        [ -0.000000,  -0.000000,  -0.240882]
    <r_e> [Ang]:                        [  0.000000,   0.000001,  -0.504102]
    |<r_e - r_h>| [Ang]:                  0.263220
    Hole size [Ang]:                      1.533448
      Cartesian components [Ang]:       [  1.117146,   0.932413,   0.483791]
    Electron size [Ang]:                  1.903072
      Cartesian components [Ang]:       [  1.345162,   0.741296,   1.123700]
    RMS electron-hole separation [Ang]:   2.432048
      Cartesian components [Ang]:       [  1.717228,   1.186665,   1.248122]
    Covariance(r_h, r_e) [Ang^2]:         0.063788
    Correlation coefficient:              0.021858
    Center-of-mass size [Ang]:            1.234982
      Cartesian components [Ang]:       [  0.889674,   0.597841,   0.613390]

  Decomposition into state-averaged NTOs
    H- 1 -> L+ 3: -0.6685 ( 89.4%)
    H- 1 -> L+ 4: -0.0935 (  1.7%)
                   omega =  92.1%
  ----------------------------------------------------------------------------


  Excited state 5 (singlet, B2)                                    [converged]
  ----------------------------------------------------------------------------
  Term symbol:  5 (1) B2                                    R^2 =  9.58701e-08

  Total energy:                                            -78.4584457274 a.u.
  Excitation energy:                                               9.233931 eV

  Osc. strength:                                                      0.000211
  Trans. dip. moment [a.u.]:           [   0.000111,   -0.030575,    0.000000]
  <i|r^2|0> [a.u.]:                    [   0.000001,    0.000000,   -0.000001]

  Dip. moment [a.u.]:                  [   0.000000,   -0.000000,    0.619901]
  Total dipole [Debye]:                                               1.575632
  <r^2> [a.u.]:                        [  54.815721,   37.337279,   81.220906]
  Total <r^2> [a.u.]:                                               173.373906

  V1^2 = 0.9336, V2^2 = 0.0664

  Important amplitudes:
      occ i      occ j       vir a       vir b          v   
    ---------------------------------------------------------
     5 (A1) A               4 (B2) A                  0.6797
     5 (A1) A   5 (A1) B    8 (A1) A    4 (B2) B      0.0579
    ---------------------------------------------------------

  Density matrix analysis:
  ------------------------
  NOs
    Occupation of frontier NOs:
       0.9869   0.9963
    Number of electrons: 18.000000
    Number of unpaired electrons: n_u =  2.43490, n_u,nl =  2.05241
    NO participation ratio (PR_NO):  2.993954
  
  
  Mulliken Population Analysis
  Atom      Charge (e)              h+              e-           Del q
  --------------------------------------------------------------------
   1 C       -1.073627        0.203459       -0.980293       -0.776835
   2 C       -1.073627        0.203459       -0.980293       -0.776835
   3 H        0.284505       -0.000054        0.193389        0.193335
   4 H        0.284504       -0.000054        0.193357        0.193303
   5 H        0.284495       -0.000054        0.193357        0.193303
   6 H        0.284496       -0.000054        0.193389        0.193335
   7 H        0.009254        0.813247       -0.032854        0.780393
  --------------------------------------------------------------------
  Sum:       -1.000000        1.219949       -1.219949       -0.000000
  
  Multipole moment analysis of the density matrix
    Molecular charge:                      -1.000000
    Number of electrons:                   18.000000
      Center of electronic charge [Ang]: [ -0.000000,  -0.000000,  -0.018225]
    Total nuclear charge:                  17.000000
      Center of nuclear charge [Ang]:    [ -0.000000,  -0.000000,  -0.000000]
    Dipole moment [D]:                     1.575631
      Cartesian components [D]:          [  0.000000,  -0.000000,   1.575631]
    RMS size of the density [Ang]:         1.642215
      Cartesian components [Ang]:        [  0.923459,   0.762143,   1.123936]
  
  Exciton analysis of the difference density matrix
    <r_h> [Ang]:                  [  0.000000,  -0.000000,   3.086063]
    <r_e> [Ang]:                  [ -0.000000,   0.000000,  -0.031457]
    |<r_e - r_h>| [Ang]:            3.117520
    Hole size [Ang]:                2.192158
      Cartesian components [Ang]: [  0.936604,   0.893902,   1.768973]
    Electron size [Ang]:            2.656047
      Cartesian components [Ang]: [  1.234020,   1.835924,   1.470090]

  Transition density matrix analysis:
  -----------------------------------
  
  CT numbers (Mulliken)
    omega =     0.9237
    <Phe> =     0.0006
  
  Exciton analysis of the transition density matrix
    Trans. dipole moment [D]:             0.038858
      Cartesian components [D]:         [  0.000141,  -0.038857,   0.000000]
    <r_h> [Ang]:                        [  0.000000,  -0.000000,   3.792252]
    <r_e> [Ang]:                        [ -0.000000,   0.000001,  -0.253704]
    |<r_e - r_h>| [Ang]:                  4.045955
    Hole size [Ang]:                      1.466256
      Cartesian components [Ang]:       [  0.755150,   0.741821,   1.014572]
    Electron size [Ang]:                  2.616732
      Cartesian components [Ang]:       [  1.170119,   1.955384,   1.286306]
    RMS electron-hole separation [Ang]:   5.035198
      Cartesian components [Ang]:       [  1.391591,   2.091175,   4.363907]
    Covariance(r_h, r_e) [Ang^2]:         0.006863
    Correlation coefficient:              0.001789
    Center-of-mass size [Ang]:            1.500910
      Cartesian components [Ang]:       [  0.696838,   1.045782,   0.820663]

  Decomposition into state-averaged NTOs
    H- 0 -> L+ 1:  0.6775 ( 91.8%)
                   omega =  92.4%
  ----------------------------------------------------------------------------


  Excited state 6 (singlet, B2)                                    [converged]
  ----------------------------------------------------------------------------
  Term symbol:  6 (1) B2                                    R^2 =  2.90936e-08

  Total energy:                                            -78.4253380077 a.u.
  Excitation energy:                                              10.134838 eV

  Osc. strength:                                                      0.078117
  Trans. dip. moment [a.u.]:           [  -0.000017,   -0.560901,    0.000000]
  <i|r^2|0> [a.u.]:                    [  -0.000003,   -0.000002,    0.000000]

  Dip. moment [a.u.]:                  [   0.000000,    0.000003,   -5.942277]
  Total dipole [Debye]:                                              15.103765
  <r^2> [a.u.]:                        [  79.488295,   30.328022,  132.691613]
  Total <r^2> [a.u.]:                                               242.507930

  V1^2 = 0.9387, V2^2 = 0.0613

  Important amplitudes:
      occ i      occ j       vir a       vir b          v   
    ---------------------------------------------------------
     1 (A2) A               3 (B1) A                 -0.6156
     1 (A2) A               4 (B1) A                 -0.2019
    ---------------------------------------------------------

  Density matrix analysis:
  ------------------------
  NOs
    Occupation of frontier NOs:
       0.9766   1.0322
    Number of electrons: 18.000000
    Number of unpaired electrons: n_u =  2.47238, n_u,nl =  2.07664
    NO participation ratio (PR_NO):  3.197931
  
  
  Mulliken Population Analysis
  Atom      Charge (e)              h+              e-           Del q
  --------------------------------------------------------------------
   1 C       -0.594453        0.263261       -0.560922       -0.297661
   2 C       -0.594453        0.263261       -0.560922       -0.297661
   3 H        0.236133        0.187985       -0.043022        0.144962
   4 H        0.236166        0.187976       -0.043010        0.144965
   5 H        0.236158        0.187976       -0.043009        0.144966
   6 H        0.236125        0.187985       -0.043021        0.144964
   7 H       -0.755674        0.021312       -0.005848        0.015464
  --------------------------------------------------------------------
  Sum:       -1.000000        1.299755       -1.299755       -0.000000
  
  Multipole moment analysis of the density matrix
    Molecular charge:                      -1.000000
    Number of electrons:                   18.000000
      Center of electronic charge [Ang]: [ -0.000000,  -0.000000,   0.174695]
    Total nuclear charge:                  17.000000
      Center of nuclear charge [Ang]:    [ -0.000000,  -0.000000,  -0.000000]
    Dipole moment [D]:                     15.103760
      Cartesian components [D]:          [  0.000000,   0.000009, -15.103760]
    RMS size of the density [Ang]:         1.934480
      Cartesian components [Ang]:        [  1.112030,   0.686890,   1.426108]
  
  Exciton analysis of the difference density matrix
    <r_h> [Ang]:                  [  0.000000,  -0.000000,  -0.235611]
    <r_e> [Ang]:                  [ -0.000000,  -0.000001,  -0.490013]
    |<r_e - r_h>| [Ang]:            0.254402
    Hole size [Ang]:                1.797395
      Cartesian components [Ang]: [  1.213057,   0.998788,   0.872665]
    Electron size [Ang]:            3.333709
      Cartesian components [Ang]: [  2.719023,   1.378808,   1.348858]

  Transition density matrix analysis:
  -----------------------------------
  
  CT numbers (Mulliken)
    omega =     0.9224
    <Phe> =    -0.0055
  
  Exciton analysis of the transition density matrix
    Trans. dipole moment [D]:             0.712834
      Cartesian components [D]:         [ -0.000021,  -0.712834,   0.000000]
    <r_h> [Ang]:                        [  0.000000,  -0.000001,  -0.255099]
    <r_e> [Ang]:                        [ -0.000000,  -0.000002,  -0.591996]
    |<r_e - r_h>| [Ang]:                  0.336897
    Hole size [Ang]:                      1.521543
      Cartesian components [Ang]:       [  1.123253,   0.937982,   0.416635]
    Electron size [Ang]:                  3.674236
      Cartesian components [Ang]:       [  3.041519,   1.510728,   1.402450]
    RMS electron-hole separation [Ang]:   3.848494
      Cartesian components [Ang]:       [  3.086320,   1.741429,   1.500989]
    Covariance(r_h, r_e) [Ang^2]:         0.558845
    Correlation coefficient:              0.099963
    Center-of-mass size [Ang]:            2.057474
      Cartesian components [Ang]:       [  1.695561,   0.907145,   0.731682]

  Decomposition into state-averaged NTOs
    H- 1 -> L+ 4: -0.6663 ( 88.8%)
    H- 1 -> L+ 3:  0.0928 (  1.7%)
                   omega =  92.2%
  ----------------------------------------------------------------------------


  Excited state 7 (singlet, B2)                                    [converged]
  ----------------------------------------------------------------------------
  Term symbol:  7 (1) B2                                    R^2 =  1.70508e-06

  Total energy:                                            -78.4101886621 a.u.
  Excitation energy:                                              10.547073 eV

  Osc. strength:                                                      0.000007
  Trans. dip. moment [a.u.]:           [   0.000000,   -0.005360,   -0.000000]
  <i|r^2|0> [a.u.]:                    [   0.000000,   -0.000000,   -0.000000]

  Dip. moment [a.u.]:                  [  -0.000000,    0.000001,   11.064585]
  Total dipole [Debye]:                                              28.123375
  <r^2> [a.u.]:                        [  87.268439,   58.344705,   39.650889]
  Total <r^2> [a.u.]:                                               185.264033

  V1^2 = 0.0002, V2^2 = 0.9998

  Important amplitudes:
      occ i      occ j       vir a       vir b          v   
    ---------------------------------------------------------
     5 (A1) A   5 (A1) B    6 (A1) A    2 (B2) B      0.3535
     5 (A1) A               2 (B2) A                 -0.0072
    ---------------------------------------------------------

  Density matrix analysis:
  ------------------------
  NOs
    Occupation of frontier NOs:
       1.0016   1.0023
    Number of electrons: 18.000000
    Number of unpaired electrons: n_u =  2.40459, n_u,nl =  2.05791
    NO participation ratio (PR_NO):  2.880748
  
  
  Mulliken Population Analysis
  Atom      Charge (e)              h+              e-           Del q
  --------------------------------------------------------------------
   1 C       -1.217377        0.114126       -1.034711       -0.920585
   2 C       -1.217377        0.114126       -1.034711       -0.920585
   3 H        0.103094       -0.005150        0.017073        0.011923
   4 H        0.103123       -0.005150        0.017072        0.011923
   5 H        0.103114       -0.005150        0.017072        0.011923
   6 H        0.103084       -0.005150        0.017073        0.011923
   7 H        1.022340        1.792263        0.001217        1.793479
  --------------------------------------------------------------------
  Sum:       -1.000000        1.999916       -1.999916        0.000000
  
  Multipole moment analysis of the density matrix
    Molecular charge:                      -1.000000
    Number of electrons:                   18.000000
      Center of electronic charge [Ang]: [  0.000000,  -0.000000,  -0.325285]
    Total nuclear charge:                  17.000000
      Center of nuclear charge [Ang]:    [ -0.000000,  -0.000000,  -0.000000]
    Dipole moment [D]:                     28.123367
      Cartesian components [D]:          [ -0.000000,   0.000004,  28.123367]
    RMS size of the density [Ang]:         1.666244
      Cartesian components [Ang]:        [  1.165181,   0.952721,   0.714873]
  
  Exciton analysis of the difference density matrix
    <r_h> [Ang]:                  [ -0.000000,  -0.000000,   3.853129]
    <r_e> [Ang]:                  [  0.000000,  -0.000000,  -0.812219]
    |<r_e - r_h>| [Ang]:            4.665348
    Hole size [Ang]:                1.378666
      Cartesian components [Ang]: [  0.731094,   0.723198,   0.918261]
    Electron size [Ang]:            3.649039
      Cartesian components [Ang]: [  2.339303,   2.243463,   1.676312]

  Transition density matrix analysis:
  -----------------------------------
  
  CT numbers (Mulliken)
    omega =     0.0002
    <Phe> =     0.0286
  
  Exciton analysis of the transition density matrix
    Trans. dipole moment [D]:             0.006812
      Cartesian components [D]:         [  0.000000,  -0.006812,  -0.000000]
    <r_h> [Ang]:                        [ -0.000000,  -0.000000,   3.544645]
    <r_e> [Ang]:                        [ -0.000000,   0.000000,  -0.332174]
    |<r_e - r_h>| [Ang]:                  3.876819
    Hole size [Ang]:                      1.882297
      Cartesian components [Ang]:       [  0.786101,   0.959172,   1.416007]
    Electron size [Ang]:                  2.757252
      Cartesian components [Ang]:       [  1.631812,   1.927962,   1.105708]
    RMS electron-hole separation [Ang]:   5.090701
      Cartesian components [Ang]:       [  1.807195,   2.202610,   4.218743]
    Covariance(r_h, r_e) [Ang^2]:         0.129986
    Correlation coefficient:              0.025046
    Center-of-mass size [Ang]:            1.688598
      Cartesian components [Ang]:       [  0.907686,   1.051499,   0.960114]

  Decomposition into state-averaged NTOs
                   omega =   0.0%
  ----------------------------------------------------------------------------


  Excited state 8 (singlet, B2)                                    [converged]
  ----------------------------------------------------------------------------
  Term symbol:  8 (1) B2                                    R^2 =  3.33467e-06

  Total energy:                                            -78.3991997646 a.u.
  Excitation energy:                                              10.846096 eV

  Osc. strength:                                                      0.000004
  Trans. dip. moment [a.u.]:           [   0.000002,   -0.003663,   -0.000000]
  <i|r^2|0> [a.u.]:                    [   0.000000,   -0.000000,   -0.000000]

  Dip. moment [a.u.]:                  [   0.000000,   -0.000001,   10.615880]
  Total dipole [Debye]:                                              26.982879
  <r^2> [a.u.]:                        [ 113.188854,   56.882769,   35.082579]
  Total <r^2> [a.u.]:                                               205.154202

  V1^2 = 0.0002, V2^2 = 0.9998

  Important amplitudes:
      occ i      occ j       vir a       vir b          v   
    ---------------------------------------------------------
     5 (A1) A   5 (A1) B    2 (A2) A    3 (B1) B     -0.3535
     5 (A1) A               4 (B2) A                  0.0086
    ---------------------------------------------------------

  Density matrix analysis:
  ------------------------
  NOs
    Occupation of frontier NOs:
       1.0008   1.0010
    Number of electrons: 18.000000
    Number of unpaired electrons: n_u =  2.40885, n_u,nl =  2.05812
    NO participation ratio (PR_NO):  2.884900
  
  
  Mulliken Population Analysis
  Atom      Charge (e)              h+              e-           Del q
  --------------------------------------------------------------------
   1 C       -1.022526        0.114099       -0.839833       -0.725733
   2 C       -1.022526        0.114099       -0.839833       -0.725733
   3 H        0.005841       -0.005287       -0.080043       -0.085330
   4 H        0.005870       -0.005287       -0.080044       -0.085331
   5 H        0.005860       -0.005287       -0.080044       -0.085331
   6 H        0.005831       -0.005287       -0.080043       -0.085330
   7 H        1.021650        1.792792       -0.000003        1.792789
  --------------------------------------------------------------------
  Sum:       -1.000000        1.999844       -1.999844       -0.000000
  
  Multipole moment analysis of the density matrix
    Molecular charge:                      -1.000000
    Number of electrons:                   18.000000
      Center of electronic charge [Ang]: [ -0.000000,  -0.000000,  -0.312094]
    Total nuclear charge:                  17.000000
      Center of nuclear charge [Ang]:    [ -0.000000,  -0.000000,  -0.000000]
    Dipole moment [D]:                     26.982871
      Cartesian components [D]:          [  0.000000,  -0.000003,  26.982871]
    RMS size of the density [Ang]:         1.759037
      Cartesian components [Ang]:        [  1.326987,   0.940709,   0.669613]
  
  Exciton analysis of the difference density matrix
    <r_h> [Ang]:                  [ -0.000000,  -0.000000,   3.853613]
    <r_e> [Ang]:                  [ -0.000000,   0.000001,  -0.693170]
    |<r_e - r_h>| [Ang]:            4.546783
    Hole size [Ang]:                1.377200
      Cartesian components [Ang]: [  0.732269,   0.722861,   0.915387]
    Electron size [Ang]:            4.034776
      Cartesian components [Ang]: [  3.017241,   2.197292,   1.532181]

  Transition density matrix analysis:
  -----------------------------------
  
  CT numbers (Mulliken)
    omega =     0.0002
    <Phe> =     0.0031
  
  Exciton analysis of the transition density matrix
    Trans. dipole moment [D]:             0.004655
      Cartesian components [D]:         [  0.000002,  -0.004655,  -0.000000]
    <r_h> [Ang]:                        [  0.000000,  -0.000000,   3.759445]
    <r_e> [Ang]:                        [ -0.000000,   0.000000,  -0.255999]
    |<r_e - r_h>| [Ang]:                  4.015444
    Hole size [Ang]:                      1.530245
      Cartesian components [Ang]:       [  0.789307,   0.759903,   1.068266]
    Electron size [Ang]:                  2.707950
      Cartesian components [Ang]:       [  1.432294,   1.968103,   1.186631]
    RMS electron-hole separation [Ang]:   5.089740
      Cartesian components [Ang]:       [  1.681129,   2.103817,   4.318937]
    Covariance(r_h, r_e) [Ang^2]:        -0.053514
    Correlation coefficient:             -0.012914
    Center-of-mass size [Ang]:            1.546578
      Cartesian components [Ang]:       [  0.794158,   1.057795,   0.801427]

  Decomposition into state-averaged NTOs
                   omega =   0.0%
  ----------------------------------------------------------------------------


  Excited state 9 (singlet, B2)                                    [converged]
  ----------------------------------------------------------------------------
  Term symbol:  9 (1) B2                                    R^2 =  7.73137e-08

  Total energy:                                            -78.3766637237 a.u.
  Excitation energy:                                              11.459333 eV

  Osc. strength:                                                      0.093876
  Trans. dip. moment [a.u.]:           [  -0.000008,   -0.578253,   -0.000000]
  <i|r^2|0> [a.u.]:                    [  -0.000000,   -0.000001,   -0.000001]

  Dip. moment [a.u.]:                  [  -0.000000,    0.000000,   -6.541914]
  Total dipole [Debye]:                                              16.627890
  <r^2> [a.u.]:                        [  55.934221,   46.389288,  131.706145]
  Total <r^2> [a.u.]:                                               234.029654

  V1^2 = 0.9286, V2^2 = 0.0714

  Important amplitudes:
      occ i      occ j       vir a       vir b          v   
    ---------------------------------------------------------
     3 (A1) A               2 (B2) A                 -0.6588
     3 (A1) A               3 (B2) A                 -0.1452
    ---------------------------------------------------------

  Density matrix analysis:
  ------------------------
  NOs
    Occupation of frontier NOs:
       0.9826   1.0148
    Number of electrons: 18.000000
    Number of unpaired electrons: n_u =  2.45544, n_u,nl =  2.06214
    NO participation ratio (PR_NO):  3.087463
  
  
  Mulliken Population Analysis
  Atom      Charge (e)              h+              e-           Del q
  --------------------------------------------------------------------
   1 C       -0.471398        0.429904       -0.604509       -0.174605
   2 C       -0.471398        0.429904       -0.604509       -0.174605
   3 H        0.174230        0.140352       -0.057292        0.083060
   4 H        0.174250        0.140333       -0.057284        0.083049
   5 H        0.174240        0.140334       -0.057284        0.083049
   6 H        0.174221        0.140352       -0.057293        0.083060
   7 H       -0.754146        0.021631       -0.004638        0.016993
  --------------------------------------------------------------------
  Sum:       -1.000000        1.442810       -1.442810       -0.000000
  
  Multipole moment analysis of the density matrix
    Molecular charge:                      -1.000000
    Number of electrons:                   18.000000
      Center of electronic charge [Ang]: [  0.000000,  -0.000000,   0.192324]
    Total nuclear charge:                  17.000000
      Center of nuclear charge [Ang]:    [ -0.000000,  -0.000000,  -0.000000]
    Dipole moment [D]:                     16.627885
      Cartesian components [D]:          [ -0.000000,   0.000000, -16.627885]
    RMS size of the density [Ang]:         1.898379
      Cartesian components [Ang]:        [  0.932833,   0.849520,   1.418444]
  
  Exciton analysis of the difference density matrix
    <r_h> [Ang]:                  [  0.000000,  -0.000000,  -0.230605]
    <r_e> [Ang]:                  [  0.000000,   0.000000,  -0.239855]
    |<r_e - r_h>| [Ang]:            0.009250
    Hole size [Ang]:                1.688640
      Cartesian components [Ang]: [  1.174056,   0.852952,   0.863464]
    Electron size [Ang]:            2.910210
      Cartesian components [Ang]: [  1.463336,   2.158411,   1.291989]

  Transition density matrix analysis:
  -----------------------------------
  
  CT numbers (Mulliken)
    omega =     0.9105
    <Phe> =    -0.0039
  
  Exciton analysis of the transition density matrix
    Trans. dipole moment [D]:             0.734886
      Cartesian components [D]:         [ -0.000010,  -0.734886,  -0.000000]
    <r_h> [Ang]:                        [ -0.000000,  -0.000000,  -0.256818]
    <r_e> [Ang]:                        [  0.000000,   0.000000,  -0.259407]
    |<r_e - r_h>| [Ang]:                  0.002589
    Hole size [Ang]:                      1.328283
      Cartesian components [Ang]:       [  1.103713,   0.615578,   0.408921]
    Electron size [Ang]:                  3.344103
      Cartesian components [Ang]:       [  1.647348,   2.536308,   1.427028]
    RMS electron-hole separation [Ang]:   3.555324
      Cartesian components [Ang]:       [  1.921624,   2.596934,   1.484461]
    Covariance(r_h, r_e) [Ang^2]:         0.153518
    Correlation coefficient:              0.034561
    Center-of-mass size [Ang]:            1.820329
      Cartesian components [Ang]:       [  1.021181,   1.311442,   0.742232]

  Decomposition into state-averaged NTOs
    H- 3 -> L+ 0:  0.6703 ( 89.9%)
                   omega =  91.0%
  ----------------------------------------------------------------------------


  Excited state 10 (singlet, B2)                                    [converged]
  ----------------------------------------------------------------------------
  Term symbol:  10 (1) B2                                   R^2 =  3.21077e-06

  Total energy:                                            -78.3695355391 a.u.
  Excitation energy:                                              11.653300 eV

  Osc. strength:                                                      0.000490
  Trans. dip. moment [a.u.]:           [  -0.000000,    0.041427,    0.000000]
  <i|r^2|0> [a.u.]:                    [   0.000000,    0.000000,    0.000000]

  Dip. moment [a.u.]:                  [  -0.000000,    0.000001,   10.133874]
  Total dipole [Debye]:                                              25.757742
  <r^2> [a.u.]:                        [  82.102637,   59.841036,   43.200580]
  Total <r^2> [a.u.]:                                               185.144253

  V1^2 = 0.0111, V2^2 = 0.9889

  Important amplitudes:
      occ i      occ j       vir a       vir b          v   
    ---------------------------------------------------------
     5 (A1) A   5 (A1) B    7 (A1) A    2 (B2) B      0.3497
     5 (A1) A               2 (B2) A                 -0.0682
    ---------------------------------------------------------

  Density matrix analysis:
  ------------------------
  NOs
    Occupation of frontier NOs:
       1.0000   1.0023
    Number of electrons: 18.000000
    Number of unpaired electrons: n_u =  2.41024, n_u,nl =  2.05690
    NO participation ratio (PR_NO):  2.890036
  
  
  Mulliken Population Analysis
  Atom      Charge (e)              h+              e-           Del q
  --------------------------------------------------------------------
   1 C       -1.161635        0.109026       -0.973869       -0.864843
   2 C       -1.161635        0.109026       -0.973869       -0.864843
   3 H        0.075391       -0.005637       -0.010143       -0.015780
   4 H        0.075421       -0.005637       -0.010142       -0.015779
   5 H        0.075412       -0.005637       -0.010142       -0.015779
   6 H        0.075381       -0.005637       -0.010143       -0.015780
   7 H        1.021666        1.798057       -0.005253        1.792805
  --------------------------------------------------------------------
  Sum:       -1.000000        1.993561       -1.993561       -0.000000
  
  Multipole moment analysis of the density matrix
    Molecular charge:                      -1.000000
    Number of electrons:                   18.000000
      Center of electronic charge [Ang]: [  0.000000,  -0.000000,  -0.297923]
    Total nuclear charge:                  17.000000
      Center of nuclear charge [Ang]:    [ -0.000000,  -0.000000,  -0.000000]
    Dipole moment [D]:                     25.757735
      Cartesian components [D]:          [ -0.000000,   0.000002,  25.757735]
    RMS size of the density [Ang]:         1.670795
      Cartesian components [Ang]:        [  1.130169,   0.964860,   0.763753]
  
  Exciton analysis of the difference density matrix
    <r_h> [Ang]:                  [ -0.000000,  -0.000000,   3.860755]
    <r_e> [Ang]:                  [  0.000000,   0.000000,  -0.572415]
    |<r_e - r_h>| [Ang]:            4.433170
    Hole size [Ang]:                1.352093
      Cartesian components [Ang]: [  0.710842,   0.716839,   0.899444]
    Electron size [Ang]:            3.688919
      Cartesian components [Ang]: [  2.175604,   2.290968,   1.904295]

  Transition density matrix analysis:
  -----------------------------------
  
  CT numbers (Mulliken)
    omega =     0.0114
    <Phe> =     0.0034
  
  Exciton analysis of the transition density matrix
    Trans. dipole moment [D]:             0.052649
      Cartesian components [D]:         [ -0.000000,   0.052649,   0.000000]
    <r_h> [Ang]:                        [ -0.000000,  -0.000000,   3.638272]
    <r_e> [Ang]:                        [ -0.000000,   0.000000,  -0.251962]
    |<r_e - r_h>| [Ang]:                  3.890234
    Hole size [Ang]:                      1.621516
      Cartesian components [Ang]:       [  0.647868,   0.603256,   1.358551]
    Electron size [Ang]:                  3.806303
      Cartesian components [Ang]:       [  1.804019,   2.918030,   1.648805]
    RMS electron-hole separation [Ang]:   5.676246
      Cartesian components [Ang]:       [  1.911087,   2.978888,   4.437763]
    Covariance(r_h, r_e) [Ang^2]:         0.015702
    Correlation coefficient:              0.002544
    Center-of-mass size [Ang]:            2.070547
      Cartesian components [Ang]:       [  0.961273,   1.490290,   1.068716]

  Decomposition into state-averaged NTOs
                   omega =   1.1%
  ----------------------------------------------------------------------------


--------------------------------------------------------------------------------
  Time of ADC calculation:  CPU 453.82 s  wall 103.43 s
================================================================================
 
 --------------------------------------------------------------
             Orbital Energies (a.u.) and Symmetries
 --------------------------------------------------------------
 
 Alpha MOs, Restricted
 -- Occupied --                  
-11.111 -11.109  -0.914  -0.656  -0.535  -0.442  -0.391  -0.247
  1 A1    1 B1    2 A1    2 B1    1 B2    3 A1    1 A2    4 A1                 
 -0.002
  5 A1                                                                         
 -- Virtual --                   
  0.172   0.186   0.197   0.223   0.223   0.224   0.300   0.314
  3 B1    6 A1    2 B2    2 A2    7 A1    4 B1    8 A1    5 B1                 
  0.336   0.404   0.440   0.445   0.478   0.487   0.488   0.507
  6 B1    9 A1    3 B2    7 B1   10 A1    4 B2    8 B1    3 A2                 
  0.516   0.592   0.672   0.744   0.963   0.971   1.057   1.081
 11 A1    9 B1    4 A2   10 B1   12 A1    5 B2   11 B1   13 A1                 
  1.099   1.145   1.197   1.207   1.242   1.269   1.286   1.325
 14 A1    5 A2   15 A1    6 B2    7 B2   12 B1   16 A1   13 B1                 
  1.411   1.423   1.433   1.593   1.750   1.835   1.859   1.926
  6 A2   17 A1   14 B1    7 A2   18 A1    8 A2    8 B2    9 B2                 
  1.932   1.942   2.004   2.071   2.089   2.143   2.207   2.224
 15 B1   19 A1   16 B1   20 A1   17 B1   10 B2   21 A1   11 B2                 
  2.311   2.461   2.539   2.603   2.687   2.705   2.976   2.977
 18 B1   19 B1    9 A2   22 A1   10 A2   20 B1   12 B2   23 A1                 
  3.397   3.470
 21 B1   11 A2                                                                 
 
 Beta MOs, Restricted
 -- Occupied --                  
-11.111 -11.109  -0.914  -0.656  -0.535  -0.442  -0.391  -0.247
  1 A1    1 B1    2 A1    2 B1    1 B2    3 A1    1 A2    4 A1                 
 -0.002
  5 A1                                                                         
 -- Virtual --                   
  0.172   0.186   0.197   0.223   0.223   0.224   0.300   0.314
  3 B1    6 A1    2 B2    2 A2    7 A1    4 B1    8 A1    5 B1                 
  0.336   0.404   0.440   0.445   0.478   0.487   0.488   0.507
  6 B1    9 A1    3 B2    7 B1   10 A1    4 B2    8 B1    3 A2                 
  0.516   0.592   0.672   0.744   0.963   0.971   1.057   1.081
 11 A1    9 B1    4 A2   10 B1   12 A1    5 B2   11 B1   13 A1                 
  1.099   1.145   1.197   1.207   1.242   1.269   1.286   1.325
 14 A1    5 A2   15 A1    6 B2    7 B2   12 B1   16 A1   13 B1                 
  1.411   1.423   1.433   1.593   1.750   1.835   1.859   1.926
  6 A2   17 A1   14 B1    7 A2   18 A1    8 A2    8 B2    9 B2                 
  1.932   1.942   2.004   2.071   2.089   2.143   2.207   2.224
 15 B1   19 A1   16 B1   20 A1   17 B1   10 B2   21 A1   11 B2                 
  2.311   2.461   2.539   2.603   2.687   2.705   2.976   2.977
 18 B1   19 B1    9 A2   22 A1   10 A2   20 B1   12 B2   23 A1                 
  3.397   3.470
 21 B1   11 A2                                                                 
 --------------------------------------------------------------
 
          Ground-State Mulliken Net Atomic Charges

     Atom                 Charge (a.u.)
  ----------------------------------------
      1 C                    -0.268581
      2 C                    -0.268581
      3 H                     0.082692
      4 H                     0.082720
      5 H                     0.082711
      6 H                     0.082683
      7 H                    -0.793643
  ----------------------------------------
  Sum of atomic charges =    -1.000000

 -----------------------------------------------------------------
                    Cartesian Multipole Moments
 -----------------------------------------------------------------
    Charge (ESU x 10^10)
                -4.8032
    Dipole Moment (Debye)
         X       0.0000      Y       0.0000      Z     -16.9115
       Tot      16.9115
    Quadrupole Moments (Debye-Ang)
        XX     -18.3687     XY       0.0000     YY     -17.1945
        XZ      -0.0000     YZ      -0.0000     ZZ     -88.9245
    Octopole Moments (Debye-Ang^2)
       XXX      -0.0000    XXY       0.0000    XYY      -0.0000
       YYY       0.0000    XXZ     -13.2709    XYZ      -0.0000
       YYZ     -13.4614    XZZ      -0.0000    YZZ       0.0000
       ZZZ    -294.3270
    Hexadecapole Moments (Debye-Ang^3)
      XXXX     -84.8999   XXXY       0.0000   XXYY     -18.4285
      XYYY       0.0000   YYYY     -41.1276   XXXZ       0.0000
      XXYZ      -0.0000   XYYZ       0.0000   YYYZ      -0.0000
      XXZZ     -86.0071   XYZZ       0.0000   YYZZ     -78.4453
      XZZZ       0.0000   YZZZ      -0.0000   ZZZZ   -1435.8392
 -----------------------------------------------------------------
 Total job time:  185.92s(wall), 497.34s(cpu) 
 Fri Mar 25 23:24:17 2022

        *************************************************************
        *                                                           *
        *  Thank you very much for using Q-Chem.  Have a nice day.  *
        *                                                           *
        *************************************************************


