/src/tsommerfeld/qchem/exe/qcprog.exe .input1.611111.2125.qcin.1 /src/jdavis/qchem.scratch/qchem2125/

                  Welcome to Q-Chem
     A Quantum Leap Into The Future Of Chemistry


 Q-Chem 5.4 (devel), Q-Chem, Inc., Pleasanton, CA (2021)

 E. Epifanovsky,  A. T. B. Gilbert,  Xintian Feng,  Joonho Lee,  Yuezhi Mao,  
 N. Mardirossian,  P. Pokhilko,  A. White,  M. Wormit,  M. P. Coons,  
 A. L. Dempwolff,  Zhengting Gan,  D. Hait,  P. R. Horn,  L. D. Jacobson,  
 I. Kaliman,  J. Kussmann,  A. W. Lange,  Ka Un Lao,  D. S. Levine,  Jie Liu,  
 S. C. McKenzie,  A. F. Morrison,  K. Nanda,  F. Plasser,  D. R. Rehn,  
 M. L. Vidal,  Zhi-Qiang You,  Ying Zhu,  B. Alam,  B. Albrecht,  
 A. Aldossary,  E. Alguire,  J. H. Andersen,  D. Barton,  K. Begam,  A. Behn,  
 Y. A. Bernard,  E. J. Berquist,  H. Burton,  A. Carreras,  K. Carter-Fenk,  
 R. Chakraborty,  A. D. Chien,  K. D. Closser,  V. Cofer-Shabica,  
 S. Dasgupta,  Jia Deng,  M. de Wergifosse,  M. Diedenhofen,  Hainam Do,  
 S. Ehlert,  Po-Tung Fang,  S. Fatehi,  Qingguo Feng,  T. Friedhoff,  
 J. Gayvert,  Qinghui Ge,  G. Gidofalvi,  M. Goldey,  J. Gomes,  
 C. Gonzalez-Espinoza,  S. Gulania,  A. Gunina,  M. W. D. Hanson-Heine,  
 P. H. P. Harbach,  A. W. Hauser,  M. F. Herbst,  M. Hernandez Vera,  
 M. Hodecker,  Z. C. Holden,  S. Houck,  Xunkun Huang,  Kerwin Hui,  
 B. C. Huynh,  M. Ivanov,  Hyunjun Ji,  Hanjie Jiang,  B. Kaduk,  S. Kaehler,  
 K. Khistyaev,  Jaehoon Kim,  P. Klunzinger,  Z. Koczor-Benda,  
 Joong Hoon Koh,  D. Kosenkov,  L. Koulias,  T. Kowalczyk,  C. M. Krauter,  
 K. Kue,  A. Kunitsa,  T. Kus,  A. Landau,  K. V. Lawler,  D. Lefrancois,  
 S. Lehtola,  Rain Li,  Yi-Pei Li,  Jiashu Liang,  M. Liebenthal,  
 Hung-Hsuan Lin,  You-Sheng Lin,  Fenglai Liu,  Kuan-Yu Liu,  
 M. Loipersberger,  A. Luenser,  A. Manjanath,  P. Manohar,  E. Mansoor,  
 S. F. Manzer,  Shan-Ping Mao,  A. V. Marenich,  T. Markovich,  S. Mason,  
 S. A. Maurer,  P. F. McLaughlin,  M. F. S. J. Menger,  J.-M. Mewes,  
 S. A. Mewes,  P. Morgante,  J. W. Mullinax,  K. J. Oosterbaan,  G. Paran,  
 Alexander C. Paul,  Suranjan K. Paul,  F. Pavosevic,  Zheng Pei,  S. Prager,  
 E. I. Proynov,  E. Ramos,  B. Rana,  A. E. Rask,  A. Rettig,  R. M. Richard,  
 F. Rob,  E. Rossomme,  T. Scheele,  M. Scheurer,  M. Schneider,  
 N. Sergueev,  S. M. Sharada,  W. Skomorowski,  D. W. Small,  C. J. Stein,  
 Yu-Chuan Su,  E. J. Sundstrom,  Zhen Tao,  J. Thirman,  T. Tsuchimochi,  
 N. M. Tubman,  S. P. Veccham,  O. Vydrov,  J. Wenzel,  J. Witte,  A. Yamada,  
 Kun Yao,  S. Yeganeh,  S. R. Yost,  A. Zech,  Igor Ying Zhang,  Xing Zhang,  
 Yu Zhang,  D. Zuev,  A. Aspuru-Guzik,  A. T. Bell,  N. A. Besley,  
 K. B. Bravaya,  B. R. Brooks,  D. Casanova,  Jeng-Da Chai,  S. Coriani,  
 C. J. Cramer,  A. E. DePrince, III,  R. A. DiStasio Jr.,  A. Dreuw,  
 B. D. Dunietz,  T. R. Furlani,  W. A. Goddard III,  S. Grimme,  
 S. Hammes-Schiffer,  T. Head-Gordon,  W. J. Hehre,  Chao-Ping Hsu,  
 T.-C. Jagau,  Yousung Jung,  A. Klamt,  Jing Kong,  D. S. Lambrecht,  
 WanZhen Liang,  N. J. Mayhall,  C. W. McCurdy,  J. B. Neaton,  
 C. Ochsenfeld,  J. A. Parkhill,  R. Peverati,  V. A. Rassolov,  Yihan Shao,  
 L. V. Slipchenko,  T. Stauch,  R. P. Steele,  J. E. Subotnik,  
 A. J. W. Thom,  A. Tkatchenko,  D. G. Truhlar,  T. Van Voorhis,  
 T. A. Wesolowski,  K. B. Whaley,  H. L. Woodcock III,  P. M. Zimmerman,  
 S. Faraji,  P. M. W. Gill,  M. Head-Gordon,  J. M. Herbert,  A. I. Krylov

 Additional authors for Version 5.4.1: 
 S. Kotaru,  Shaozhi Li,  Xiangyuan Li,  F. Matz,  A. Molle,  Haisheng Ren,  
 Yingli Su,  Hung-Yi Tsai,  C. Utku,  Fang Wang

 Contributors to earlier versions of Q-Chem not listed above: 
 R. D. Adamson,  B. Austin,  R. Baer,  J. Baker,  G. J. O. Beran,  
 K. Brandhorst,  S. T. Brown,  E. F. C. Byrd,  A. K. Chakraborty,  
 G. K. L. Chan,  Chun-Min Chang,  Yunqing Chen,  C.-L. Cheng,  
 Siu Hung Chien,  D. M. Chipman,  D. L. Crittenden,  H. Dachsel,  
 R. J. Doerksen,  A. D. Dutoi,  R. G. Edgar,  J. Fosso-Tande,  
 L. Fusti-Molnar,  D. Ghosh,  A. Ghysels,  A. Golubeva-Zadorozhnaya,  
 J. Gonthier,  M. S. Gordon,  S. R. Gwaltney,  G. Hawkins,  J. E. Herr,  
 A. Heyden,  S. Hirata,  E. G. Hohenstein,  G. Kedziora,  F. J. Keil,  
 C. Kelley,  Jihan Kim,  R. A. King,  R. Z. Khaliullin,  P. P. Korambath,  
 W. Kurlancheek,  A. Laurent,  A. M. Lee,  M. S. Lee,  S. V. Levchenko,  
 Ching Yeh Lin,  D. Liotard,  E. Livshits,  R. C. Lochan,  I. Lotan,  
 L. A. Martinez-Martinez,  P. E. Maslen,  N. Nair,  D. P. O'Neill,  
 D. Neuhauser,  E. Neuscamman,  C. M. Oana,  R. Olivares-Amaya,  R. Olson,  
 T. M. Perrine,  B. Peters,  P. A. Pieniazek,  A. Prociuk,  Y. M. Rhee,  
 J. Ritchie,  M. A. Rohrdanz,  E. Rosta,  N. J. Russ,  H. F. Schaefer III,  
 M. W. Schmidt,  N. E. Schultz,  S. Sharma,  N. Shenvi,  C. D. Sherrill,  
 A. C. Simmonett,  A. Sodt,  T. Stein,  D. Stuck,  K. S. Thanthiriwatte,  
 V. Vanovschi,  L. Vogt,  Tao Wang,  A. Warshel,  M. A. Watson,  
 C. F. Williams,  Q. Wu,  X. Xu,  Jun Yang,  W. Zhang,  Yan Zhao

 Please cite Q-Chem as follows:
 Y. Shao et al., Mol. Phys. 113, 184-215 (2015)
 DOI: 10.1080/00268976.2014.952696

 Q-Chem 5.4.1 for Intel X86 EM64T Linux

 Parts of Q-Chem use Armadillo 9.900.5 (Nocturnal Misbehaviour).
 http://arma.sourceforge.net/

 Q-Chem begins on Sun Mar 27 18:13:39 2022  

 Host: node01
0

     Scratch files written to /src/jdavis/qchem.scratch/qchem2125//
 Processing $rem in /src/tsommerfeld/qchem/config/preferences:
 Processing $rem in /home/jdavis/.qchemrc:

 Checking the input file for inconsistencies... 	...done.

--------------------------------------------------------------
User input:
--------------------------------------------------------------
$molecule
-1 1
C        -0.6645000000    0.0000000000   -0.1764707059
C         0.6645000000    0.0000000000   -0.1764707059
H        -1.1590800000    0.0000000000    0.7858782941
H         1.1590800000    0.0000000000    0.7858782941
H        -1.1590800000    0.0000000000   -1.1388187059
H         1.1590800000    0.0000000000   -1.1388187059
H         0.0000000000    0.0000000000    2.8235292941
$end

$rem
   METHOD adc(2)
   BASIS gen
   PURECART 11
   EE_STATES [0,10,0,0]
   scf_convergence 8
   ADC_DAVIDSON_MAXITER 120
   ADC_DAVIDSON_MAXSUBSPACE 200
   adc_nguess_singles 100
   THRESH 14
   S2THRESH 14
   adc_davidson_conv 5
   adc_davidson_thresh 14
   THREADS 10
   MEM_TOTAL 95000
   STATE_ANALYSIS TRUE
$end
$basis
C 1
S   9   1.00
      6.665000D+03           6.920000D-04
      1.000000D+03           5.329000D-03
      2.280000D+02           2.707700D-02
      6.471000D+01           1.017180D-01
      2.106000D+01           2.747400D-01
      7.495000D+00           4.485640D-01
      2.797000D+00           2.850740D-01
      5.215000D-01           1.520400D-02
      1.596000D-01          -3.191000D-03
S   9   1.00
      6.665000D+03          -1.460000D-04
      1.000000D+03          -1.154000D-03
      2.280000D+02          -5.725000D-03
      6.471000D+01          -2.331200D-02
      2.106000D+01          -6.395500D-02
      7.495000D+00          -1.499810D-01
      2.797000D+00          -1.272620D-01
      5.215000D-01           5.445290D-01
      1.596000D-01           5.804960D-01
S   1   1.00
      1.596000D-01           1.000000D+00
S   1   1.00
      0.0469000              1.0000000
P   4   1.00
      9.439000D+00           3.810900D-02
      2.002000D+00           2.094800D-01
      5.456000D-01           5.085570D-01
      1.517000D-01           4.688420D-01
P   1   1.00
      1.517000D-01           1.000000D+00
P   1   1.00
      0.0977622      1.0000000
P   1   1.00
      0.0488811      1.0000000
D   1   1.00
      5.500000D-01           1.0000000
****
C 2
S   9   1.00
      6.665000D+03           6.920000D-04
      1.000000D+03           5.329000D-03
      2.280000D+02           2.707700D-02
      6.471000D+01           1.017180D-01
      2.106000D+01           2.747400D-01
      7.495000D+00           4.485640D-01
      2.797000D+00           2.850740D-01
      5.215000D-01           1.520400D-02
      1.596000D-01          -3.191000D-03
S   9   1.00
      6.665000D+03          -1.460000D-04
      1.000000D+03          -1.154000D-03
      2.280000D+02          -5.725000D-03
      6.471000D+01          -2.331200D-02
      2.106000D+01          -6.395500D-02
      7.495000D+00          -1.499810D-01
      2.797000D+00          -1.272620D-01
      5.215000D-01           5.445290D-01
      1.596000D-01           5.804960D-01
S   1   1.00
      1.596000D-01           1.000000D+00
S   1   1.00
      0.0469000              1.0000000
P   4   1.00
      9.439000D+00           3.810900D-02
      2.002000D+00           2.094800D-01
      5.456000D-01           5.085570D-01
      1.517000D-01           4.688420D-01
P   1   1.00
      1.517000D-01           1.000000D+00
P   1   1.00
      0.0977622      1.0000000
P   1   1.00
      0.0488811      1.0000000
D   1   1.00
      5.500000D-01           1.0000000
****
H 3
cc-pVDZ
****
H 4
cc-pVDZ
****
H 5
cc-pVDZ
****
H 6
cc-pVDZ
****
H 7
aug-cc-pVDZ
****
$end
--------------------------------------------------------------
 ----------------------------------------------------------------
             Standard Nuclear Orientation (Angstroms)
    I     Atom           X                Y                Z
 ----------------------------------------------------------------
    1      C      -0.6645000000    -0.0000000000    -0.1764707059
    2      C       0.6645000000     0.0000000000    -0.1764707059
    3      H      -1.1590800000    -0.0000000000     0.7858782941
    4      H       1.1590800000     0.0000000000     0.7858782941
    5      H      -1.1590800000    -0.0000000000    -1.1388187059
    6      H       1.1590800000     0.0000000000    -1.1388187059
    7      H       0.0000000000     0.0000000000     2.8235292941
 ----------------------------------------------------------------
 Molecular Point Group                 C2v   NOp =  4
 Largest Abelian Subgroup              C2v   NOp =  4
 Nuclear Repulsion Energy =          36.36366470 hartrees
 There are        9 alpha and        9 beta electrons
 Requested basis set is non-standard
 There are 33 shells and 67 basis functions
 Total memory of 95000 MB is distributed as follows: 
   MEM_STATIC is set to 192 MB
   QALLOC/CCMAN JOB total memory use is  94808 MB
 Warning: actual memory use might exceed 95000 MB

 Total QAlloc Memory Limit  95000 MB
 Mega-Array Size       188 MB
 MEM_STATIC part       192 MB

                       Distance Matrix (Angstroms)
             C (  1)   C (  2)   H (  3)   H (  4)   H (  5)   H (  6)
   C (  2)  1.329000
   H (  3)  1.082000  2.061931
   H (  4)  2.061931  1.082000  2.318160
   H (  5)  1.082000  2.061931  1.924697  3.013026
   H (  6)  2.061931  1.082000  3.013026  1.924697  2.318160
   H (  7)  3.072712  3.072712  2.344246  2.344246  4.128398  4.128398

 
 A cutoff of  1.0D-14 yielded    561 shell pairs
 There are      2337 function pairs (      2484 Cartesian)
 Smallest overlap matrix eigenvalue = 1.72E-04

 Scale SEOQF with 1.000000e-01/1.000000e-01/1.000000e-01

 Standard Electronic Orientation quadrupole field applied
 Nucleus-field energy     =    -0.0000000009 hartrees
 ================ Generating on-the-fly SAD Guess ================
Attempting to make child job directory: /src/jdavis/qchem.scratch/qchem2125//Frg1/
Attempting to make child job directory: /src/jdavis/qchem.scratch/qchem2125//Frg2/
Creating input file /src/jdavis/qchem.scratch/qchem2125/Frg1.input
using default PutDataFrgm: nothing
calling putenv with: QCSCRATCH=/src/jdavis/qchem.scratch/qchem2125/ 
Spawning Job For Fragment 0
Done Job For Fragment 0
calling putenv with: QCSCRATCH=/src/jdavis/qchem.scratch 
calling putenv with: QCTHREADS=1 
Creating input file /src/jdavis/qchem.scratch/qchem2125/Frg2.input
using default PutDataFrgm: nothing
calling putenv with: QCSCRATCH=/src/jdavis/qchem.scratch/qchem2125/ 
Spawning Job For Fragment 1
Done Job For Fragment 1
calling putenv with: QCSCRATCH=/src/jdavis/qchem.scratch 
calling putenv with: QCTHREADS=1 
 Time for running child jobs:  CPU 1.81 s  wall 54.42 s
 ============= Method Specific SAD Guess Constructed =============
 Guess from on-the-fly superposition of atomic densities
 Warning: Energy on first SCF cycle will be non-variational
 A restricted Hartree-Fock SCF calculation will be
 performed using Pulay DIIS extrapolation
 SCF converges when DIIS error is below 1.0E-08
 using 10 threads for integral computing
 -------------------------------------------------------
 OpenMP Integral computing Module                
 Release: version 1.0, May 2013, Q-Chem Inc. Pittsburgh 
 -------------------------------------------------------
 ---------------------------------------
  Cycle       Energy         DIIS Error
 ---------------------------------------
    1     -78.8166570939      7.37E-02
    2     -78.4583799570      6.97E-03
    3     -78.5044973095      1.74E-03
    4     -78.5072065768      5.64E-04
    5     -78.5075365856      1.21E-04
    6     -78.5075637038      2.90E-05
    7     -78.5075662627      7.73E-06
    8     -78.5075664822      1.08E-06
    9     -78.5075664868      2.47E-07
   10     -78.5075664871      4.64E-08
   11     -78.5075664871      1.01E-08
   12     -78.5075664872      1.44E-09 Convergence criterion met
 ---------------------------------------
 SCF time:  CPU 11.20 s  wall 1.13 s
 SCF   energy in the final basis set = -78.50756649
 Total energy in the final basis set = -78.50756649
================================================================================
|                                                                              |
|                                 A D C  M A N                                 |
|                                                                              |
 ------------------------------------------------------------------------------ 
|                                                                              |
| Components:                                                                  |
|                                                                              |
| - libvmm - 1.3-trunk                                                         |
|   Authors:                                                                   |
|   Evgeny Epifanovsky, Ilya Kaliman                                           |
|                                                                              |
| - libtensor - 2.5-trunk                                                      |
|   Authors:                                                                   |
|   Evgeny Epifanovsky, Michael Wormit, Dmitry Zuev, Sam Manzer,               |
|   Ilya Kaliman                                                               |
|                                                                              |
| - libwfa - 1.1-trunk                                                         |
|   Authors:                                                                   |
|   Felix Plasser, Stefanie Mewes (Baeppler), Benjamin Thomitzni,              |
|   Michael Wormit, Feng Chen, Anna I. Krylov, Pavel Pokhilko                  |
|                                                                              |
| - libadc - 1.1-trunk                                                         |
|   Authors:                                                                   |
|   Michael Wormit, Adrian L. Dempwolff, Philipp H. P. Harbach,                |
|   Caroline Krauter, Dirk Rehn, Matthias Schneider, Jan Wenzel                |
|                                                                              |
| - adcman - 2.6-trunk                                                         |
|   Authors:                                                                   |
|   Michael Wormit, Adrian L. Dempwolff, Philipp H. P. Harbach,                |
|   Caroline Krauter, Daniel Lefrancois, Jan-Michael Mewes, Dirk Rehn,         |
|   Matthias Schneider, Jan Wenzel, Andreas Dreuw                              |
|                                                                              |
| Authors of earlier versions of ADCMAN:                                       |
| Andreas Dreuw, Jan Hendrik Starcke, Dirk Rehn, Michael Wormit                |
|                                                                              |
================================================================================

 
 Alpha MOs, Restricted
 -- Occupied --                  
-11.063 -11.062  -0.869  -0.612  -0.486  -0.397  -0.340  -0.206
  1 A1    1 B1    2 A1    2 B1    3 A1    4 A1    3 B1    1 B2                 
 -0.020
  5 A1                                                                         
 -- Virtual --                   
  0.208   0.210   0.241   0.244   0.252   0.275   0.327   0.350
  6 A1    4 B1    1 A2    2 B2    7 A1    5 B1    8 A1    6 B1                 
  0.355   0.454   0.492   0.498   0.510   0.544   0.570   0.587
  2 A2    9 A1   10 A1    7 B1    8 B1   11 A1    3 B2   12 A1                 
  0.605   0.655   0.704   0.781   0.987   1.011   1.085   1.088
  9 B1    3 A2   10 B1   11 B1   13 A1   14 A1   15 A1   12 B1                 
  1.210   1.212   1.287   1.292   1.316   1.364   1.376   1.429
 16 A1   13 B1    4 B2   17 A1   14 B1   18 A1    5 B2    4 A2                 
  1.459   1.475   1.533   1.670   1.798   1.911   1.922   1.947
  5 A2    6 B2   15 B1   16 B1   19 A1    7 B2   20 A1   17 B1                 
  1.966   2.053   2.056   2.115   2.153   2.195   2.266   2.290
 18 B1    6 A2   21 A1    8 B2   19 B1    9 B2   22 A1   23 A1                 
  2.355   2.502   2.586   2.673   2.726   2.766   3.047   3.077
  7 A2   20 B1    8 A2   24 A1   21 B1   22 B1   25 A1   26 A1                 
  3.475   3.532
 23 B1   24 B1                                                                 
 
 Beta MOs, Restricted
 -- Occupied --                  
-11.063 -11.062  -0.869  -0.612  -0.486  -0.397  -0.340  -0.206
  1 A1    1 B1    2 A1    2 B1    3 A1    4 A1    3 B1    1 B2                 
 -0.020
  5 A1                                                                         
 -- Virtual --                   
  0.208   0.210   0.241   0.244   0.252   0.275   0.327   0.350
  6 A1    4 B1    1 A2    2 B2    7 A1    5 B1    8 A1    6 B1                 
  0.355   0.454   0.492   0.498   0.510   0.544   0.570   0.587
  2 A2    9 A1   10 A1    7 B1    8 B1   11 A1    3 B2   12 A1                 
  0.605   0.655   0.704   0.781   0.987   1.011   1.085   1.088
  9 B1    3 A2   10 B1   11 B1   13 A1   14 A1   15 A1   12 B1                 
  1.210   1.212   1.287   1.292   1.316   1.364   1.376   1.429
 16 A1   13 B1    4 B2   17 A1   14 B1   18 A1    5 B2    4 A2                 
  1.459   1.475   1.533   1.670   1.798   1.911   1.922   1.947
  5 A2    6 B2   15 B1   16 B1   19 A1    7 B2   20 A1   17 B1                 
  1.966   2.053   2.056   2.115   2.153   2.195   2.266   2.290
 18 B1    6 A2   21 A1    8 B2   19 B1    9 B2   22 A1   23 A1                 
  2.355   2.502   2.586   2.673   2.726   2.766   3.047   3.077
  7 A2   20 B1    8 A2   24 A1   21 B1   22 B1   25 A1   26 A1                 
  3.475   3.532
 23 B1   24 B1                                                                 

--------------------------------------------------------------------------------
                                   HF Summary                                   
--------------------------------------------------------------------------------
  Energy:                                                  -78.5075664872 a.u.
  Dip. moment [a.u.]:                  [   0.000000,   -0.000000,   -4.364496]
  Total dipole [Debye]:                                              11.093443
  <r^2> [a.u.]:                        [  52.112412,   16.134618,   81.333810]
  Total <r^2> [a.u.]:                                               149.580840
--------------------------------------------------------------------------------

--------------------------------------------------------------------------------
                                 MP(2) Summary                                  
--------------------------------------------------------------------------------
  MP energy contribution:                                   -0.3068140608 a.u.
  Total energy:                                            -78.8143805480 a.u.
  Dip. moment [a.u.]:                  [   0.000000,   -0.000000,   -4.269812]
  Total dipole [Debye]:                                              10.852782
  <r^2> [a.u.]:                        [  52.395379,   16.061489,   80.745472]
  Total <r^2> [a.u.]:                                               149.202341

  Density matrix analysis:
  ------------------------
  NOs
    Occupation of frontier NOs:
       0.0449   1.9359
    Number of electrons: 18.000000
    Number of unpaired electrons: n_u =  0.45870, n_u,nl =  0.05022
    NO participation ratio (PR_NO): 16.081743
  
  
  Mulliken Population Analysis
  Atom      Charge (e)              h+              e-           Del q
  --------------------------------------------------------------------
   1 C       -0.417110        0.087972       -0.111136       -0.023164
   2 C       -0.417110        0.087972       -0.111136       -0.023164
   3 H        0.196637        0.016972       -0.018760       -0.001788
   4 H        0.196637        0.016972       -0.018760       -0.001788
   5 H        0.057984        0.019816       -0.011281        0.008535
   6 H        0.057984        0.019816       -0.011281        0.008535
   7 H       -0.675021        0.047485       -0.014650        0.032835
  --------------------------------------------------------------------
  Sum:       -1.000000        0.297004       -0.297004       -0.000000
  
  Multipole moment analysis of the density matrix
    Molecular charge:                      -1.000000
    Number of electrons:                   18.000000
      Center of electronic charge [Ang]: [ -0.000000,   0.000000,   0.125527]
    Total nuclear charge:                  17.000000
      Center of nuclear charge [Ang]:    [ -0.000000,   0.000000,   0.000000]
    Dipole moment [D]:                     10.852779
      Cartesian components [D]:          [  0.000000,  -0.000000, -10.852779]
    RMS size of the density [Ang]:         1.518356
      Cartesian components [Ang]:        [  0.902841,   0.499871,   1.113738]
  
  Exciton analysis of the difference density matrix
    <r_h> [Ang]:                  [ -0.000000,  -0.000000,   0.253588]
    <r_e> [Ang]:                  [ -0.000000,   0.000000,   0.084889]
    |<r_e - r_h>| [Ang]:            0.168699
    Hole size [Ang]:                1.807080
      Cartesian components [Ang]: [  0.956960,   0.757852,   1.332452]
    Electron size [Ang]:            1.722142
      Cartesian components [Ang]: [  1.087459,   0.710908,   1.130406]
--------------------------------------------------------------------------------
Less singles guess vectors found than requested: 85 (found), 100 (requested).
Adjusting number of doubles guess vectors to 15.
  Starting Davidson for singlet states of irrep A2 ... 
--------------------------------------------------------------------------------
   It NVec Conv  Avg. Norm  Max. Norm  Conv. states           Remark
--------------------------------------------------------------------------------
       100    0  9.455e-02  4.607e-01  0.1445 n n n n n n n n Guess.
    1  110    0  6.568e-03  3.501e-02  0.0951 n n n n n n n n 
    2  120    0  4.036e-03  3.442e-02  0.0949 n n n n n n n n 
    3  130    1  2.685e-03  2.327e-02  0.0949 y n n n n n n n 
    4  140    7  1.188e-04  1.014e-03  0.0949 y y y y y y y n 
    5  150    8  5.378e-06  4.497e-05  0.0949 y y y y y y y y 
    6  160   10  1.001e-07  7.931e-07  0.0949 y y y y y y y y Converged.
--------------------------------------------------------------------------------
  Davidson Summary: 
 ------------------------------------------------------------
  State  0: excitation energy =   0.0949 a.u.   (converged)
  State  1: excitation energy =   0.1837 a.u.   (converged)
  State  2: excitation energy =   0.2556 a.u.   (converged)
  State  3: excitation energy =   0.3260 a.u.   (converged)
  State  4: excitation energy =   0.3516 a.u.   (converged)
  State  5: excitation energy =   0.3800 a.u.   (converged)
  State  6: excitation energy =   0.3927 a.u.   (converged)
  State  7: excitation energy =   0.4442 a.u.   (converged)
  State  8: excitation energy =   0.4620 a.u.   (converged)
  State  9: excitation energy =   0.4729 a.u.   (converged)
 ------------------------------------------------------------


--------------------------------------------------------------------------------
                   State-averaged natural transition orbitals
--------------------------------------------------------------------------------
--------------------------------------------------------------------------------

--------------------------------------------------------------------------------
                             Excited State Summary
--------------------------------------------------------------------------------
--------------------------------------------------------------------------------

  Excited state 1 (singlet, A2)                                    [converged]
  ----------------------------------------------------------------------------
  Term symbol:  1 (1) A2                                    R^2 =  3.11600e-11

  Total energy:                                            -78.7194682826 a.u.
  Excitation energy:                                               2.582694 eV

  Osc. strength:                                                      0.000000
  Trans. dip. moment [a.u.]:           [  -0.000000,    0.000000,    0.000000]
  <i|r^2|0> [a.u.]:                    [   0.000000,    0.000000,   -0.000000]

  Dip. moment [a.u.]:                  [   0.000000,   -0.000000,    0.555381]
  Total dipole [Debye]:                                               1.411638
  <r^2> [a.u.]:                        [  61.172146,   23.831100,   58.026665]
  Total <r^2> [a.u.]:                                               143.029911

  V1^2 = 0.9342, V2^2 = 0.0658

  Important amplitudes:
      occ i      occ j       vir a       vir b          v   
    ---------------------------------------------------------
     5 (A1) A               1 (A2) A                  0.6249
     5 (A1) A               2 (A2) A                 -0.2730
    ---------------------------------------------------------

  Density matrix analysis:
  ------------------------
  NOs
    Occupation of frontier NOs:
       0.9926   0.9927
    Number of electrons: 18.000000
    Number of unpaired electrons: n_u =  2.41328, n_u,nl =  2.04334
    NO participation ratio (PR_NO):  2.938398
  
  
  Mulliken Population Analysis
  Atom      Charge (e)              h+              e-           Del q
  --------------------------------------------------------------------
   1 C       -0.700499        0.262592       -0.545980       -0.283388
   2 C       -0.700499        0.262592       -0.545980       -0.283388
   3 H        0.126262        0.014649       -0.085024       -0.070375
   4 H        0.126262        0.014649       -0.085024       -0.070375
   5 H        0.059993        0.011168       -0.009159        0.002009
   6 H        0.059993        0.011168       -0.009159        0.002009
   7 H        0.028488        0.727969       -0.024460        0.703509
  --------------------------------------------------------------------
  Sum:       -1.000000        1.304786       -1.304786        0.000000
  
  Multipole moment analysis of the density matrix
    Molecular charge:                      -1.000000
    Number of electrons:                   18.000000
      Center of electronic charge [Ang]: [ -0.000000,   0.000000,  -0.016328]
    Total nuclear charge:                  17.000000
      Center of nuclear charge [Ang]:    [ -0.000000,   0.000000,   0.000000]
    Dipole moment [D]:                     1.411638
      Cartesian components [D]:          [  0.000000,  -0.000000,   1.411638]
    RMS size of the density [Ang]:         1.491600
      Cartesian components [Ang]:        [  0.975532,   0.608887,   0.949980]
  
  Exciton analysis of the difference density matrix
    <r_h> [Ang]:                  [  0.000000,  -0.000000,   1.978859]
    <r_e> [Ang]:                  [  0.000000,   0.000000,   0.021924]
    |<r_e - r_h>| [Ang]:            1.956935
    Hole size [Ang]:                1.957643
      Cartesian components [Ang]: [  0.938275,   0.849724,   1.493311]
    Electron size [Ang]:            2.534377
      Cartesian components [Ang]: [  1.662528,   1.545806,   1.126743]

  Transition density matrix analysis:
  -----------------------------------
  
  CT numbers (Mulliken)
    omega =     0.9139
    <Phe> =     0.0000
  
  Exciton analysis of the transition density matrix
    Trans. dipole moment [D]:             0.000000
      Cartesian components [D]:         [ -0.000000,   0.000000,   0.000000]
    <r_h> [Ang]:                        [ -0.000000,  -0.000000,   2.644932]
    <r_e> [Ang]:                        [  0.000000,   0.000000,  -0.175261]
    |<r_e - r_h>| [Ang]:                  2.820193
    Hole size [Ang]:                      1.407268
      Cartesian components [Ang]:       [  0.761560,   0.742201,   0.921721]
    Electron size [Ang]:                  2.624765
      Cartesian components [Ang]:       [  1.766026,   1.678343,   0.976579]
    RMS electron-hole separation [Ang]:   4.098765
      Cartesian components [Ang]:       [  1.917940,   1.834432,   3.123497]
    Covariance(r_h, r_e) [Ang^2]:         0.011706
    Correlation coefficient:              0.003169
    Center-of-mass size [Ang]:            1.491074
      Cartesian components [Ang]:       [  0.964255,   0.917913,   0.671529]

  Decomposition into state-averaged NTOs
    H- 1 -> L+ 0:  0.6430 ( 82.7%)
    H- 1 -> L+ 1:  0.2065 (  8.5%)
                   omega =  91.4%
  ----------------------------------------------------------------------------


  Excited state 2 (singlet, A2)                                    [converged]
  ----------------------------------------------------------------------------
  Term symbol:  2 (1) A2                                    R^2 =  6.32360e-11

  Total energy:                                            -78.6307229249 a.u.
  Excitation energy:                                               4.997578 eV

  Osc. strength:                                                      0.000000
  Trans. dip. moment [a.u.]:           [   0.000000,    0.000000,    0.000000]
  <i|r^2|0> [a.u.]:                    [   0.000000,    0.000000,   -0.000000]

  Dip. moment [a.u.]:                  [   0.000000,    0.000000,    0.565949]
  Total dipole [Debye]:                                               1.438499
  <r^2> [a.u.]:                        [  66.607137,   29.509793,   59.710849]
  Total <r^2> [a.u.]:                                               155.827779

  V1^2 = 0.9319, V2^2 = 0.0681

  Important amplitudes:
      occ i      occ j       vir a       vir b          v   
    ---------------------------------------------------------
     5 (A1) A               2 (A2) A                  0.6132
     5 (A1) A               1 (A2) A                  0.2850
    ---------------------------------------------------------

  Density matrix analysis:
  ------------------------
  NOs
    Occupation of frontier NOs:
       0.9870   0.9920
    Number of electrons: 18.000000
    Number of unpaired electrons: n_u =  2.43105, n_u,nl =  2.04957
    NO participation ratio (PR_NO):  2.998061
  
  
  Mulliken Population Analysis
  Atom      Charge (e)              h+              e-           Del q
  --------------------------------------------------------------------
   1 C       -0.690869        0.251460       -0.525219       -0.273759
   2 C       -0.690869        0.251460       -0.525219       -0.273759
   3 H        0.119935        0.010465       -0.087166       -0.076701
   4 H        0.119935        0.010465       -0.087166       -0.076701
   5 H        0.056043        0.009352       -0.011292       -0.001940
   6 H        0.056043        0.009352       -0.011292       -0.001940
   7 H        0.029780        0.730313       -0.025512        0.704801
  --------------------------------------------------------------------
  Sum:       -1.000000        1.272866       -1.272866       -0.000000
  
  Multipole moment analysis of the density matrix
    Molecular charge:                      -1.000000
    Number of electrons:                   18.000000
      Center of electronic charge [Ang]: [ -0.000000,  -0.000000,  -0.016638]
    Total nuclear charge:                  17.000000
      Center of nuclear charge [Ang]:    [ -0.000000,   0.000000,   0.000000]
    Dipole moment [D]:                     1.438498
      Cartesian components [D]:          [  0.000000,   0.000000,   1.438498]
    RMS size of the density [Ang]:         1.556906
      Cartesian components [Ang]:        [  1.017947,   0.677560,   0.963667]
  
  Exciton analysis of the difference density matrix
    <r_h> [Ang]:                  [  0.000000,  -0.000000,   2.043851]
    <r_e> [Ang]:                  [  0.000000,  -0.000000,   0.033447]
    |<r_e - r_h>| [Ang]:            2.010403
    Hole size [Ang]:                1.926644
      Cartesian components [Ang]: [  0.933330,   0.839613,   1.461472]
    Electron size [Ang]:            3.057082
      Cartesian components [Ang]: [  1.999417,   1.914042,   1.297892]

  Transition density matrix analysis:
  -----------------------------------
  
  CT numbers (Mulliken)
    omega =     0.9148
    <Phe> =    -0.0002
  
  Exciton analysis of the transition density matrix
    Trans. dipole moment [D]:             0.000000
      Cartesian components [D]:         [  0.000000,   0.000000,   0.000000]
    <r_h> [Ang]:                        [ -0.000000,  -0.000000,   2.648007]
    <r_e> [Ang]:                        [  0.000000,  -0.000000,  -0.175693]
    |<r_e - r_h>| [Ang]:                  2.823700
    Hole size [Ang]:                      1.404811
      Cartesian components [Ang]:       [  0.761481,   0.742734,   0.917599]
    Electron size [Ang]:                  3.277049
      Cartesian components [Ang]:       [  2.172511,   2.123048,   1.229600]
    RMS electron-hole separation [Ang]:   4.546581
      Cartesian components [Ang]:       [  2.300053,   2.248248,   3.213493]
    Covariance(r_h, r_e) [Ang^2]:         0.007215
    Correlation coefficient:              0.001567
    Center-of-mass size [Ang]:            1.783744
      Cartesian components [Ang]:       [  1.152071,   1.125095,   0.767227]

  Decomposition into state-averaged NTOs
    H- 1 -> L+ 1:  0.6474 ( 83.8%)
    H- 1 -> L+ 0: -0.1901 (  7.2%)
                   omega =  91.5%
  ----------------------------------------------------------------------------


  Excited state 3 (singlet, A2)                                    [converged]
  ----------------------------------------------------------------------------
  Term symbol:  3 (1) A2                                    R^2 =  1.04727e-10

  Total energy:                                            -78.5587480136 a.u.
  Excitation energy:                                               6.956115 eV

  Osc. strength:                                                      0.000000
  Trans. dip. moment [a.u.]:           [   0.000000,   -0.000000,    0.000000]
  <i|r^2|0> [a.u.]:                    [   0.000000,   -0.000000,    0.000000]

  Dip. moment [a.u.]:                  [  -0.000000,   -0.000000,   -2.623349]
  Total dipole [Debye]:                                               6.667889
  <r^2> [a.u.]:                        [  76.642106,   20.106498,   87.610256]
  Total <r^2> [a.u.]:                                               184.358859

  V1^2 = 0.9440, V2^2 = 0.0560

  Important amplitudes:
      occ i      occ j       vir a       vir b          v   
    ---------------------------------------------------------
     1 (B2) A               4 (B1) A                  0.6774
     1 (B2) A               8 (B1) A                  0.0865
    ---------------------------------------------------------

  Density matrix analysis:
  ------------------------
  NOs
    Occupation of frontier NOs:
       0.9817   0.9918
    Number of electrons: 18.000000
    Number of unpaired electrons: n_u =  2.34211, n_u,nl =  2.02845
    NO participation ratio (PR_NO):  2.805947
  
  
  Mulliken Population Analysis
  Atom      Charge (e)              h+              e-           Del q
  --------------------------------------------------------------------
   1 C       -0.550136        0.541546       -0.674572       -0.133026
   2 C       -0.550136        0.541546       -0.674572       -0.133026
   3 H        0.245010        0.063420       -0.015046        0.048374
   4 H        0.245010        0.063420       -0.015046        0.048374
   5 H        0.132828        0.113913       -0.039069        0.074844
   6 H        0.132828        0.113913       -0.039069        0.074844
   7 H       -0.655404        0.036356       -0.016739        0.019617
  --------------------------------------------------------------------
  Sum:       -1.000000        1.474112       -1.474112       -0.000000
  
  Multipole moment analysis of the density matrix
    Molecular charge:                      -1.000000
    Number of electrons:                   18.000000
      Center of electronic charge [Ang]: [  0.000000,   0.000000,   0.077123]
    Total nuclear charge:                  17.000000
      Center of nuclear charge [Ang]:    [ -0.000000,   0.000000,   0.000000]
    Dipole moment [D]:                     6.667887
      Cartesian components [D]:          [ -0.000000,  -0.000000,  -6.667887]
    RMS size of the density [Ang]:         1.691789
      Cartesian components [Ang]:        [  1.091940,   0.559285,   1.164911]
  
  Exciton analysis of the difference density matrix
    <r_h> [Ang]:                  [ -0.000000,  -0.000000,  -0.139944]
    <r_e> [Ang]:                  [  0.000000,   0.000000,  -0.730992]
    |<r_e - r_h>| [Ang]:            0.591048
    Hole size [Ang]:                1.709306
      Cartesian components [Ang]: [  1.061417,   0.889697,   1.001779]
    Electron size [Ang]:            3.014207
      Cartesian components [Ang]: [  2.394288,   1.248987,   1.338977]

  Transition density matrix analysis:
  -----------------------------------
  
  CT numbers (Mulliken)
    omega =     0.9129
    <Phe> =    -0.0034
  
  Exciton analysis of the transition density matrix
    Trans. dipole moment [D]:             0.000000
      Cartesian components [D]:         [  0.000000,  -0.000000,   0.000000]
    <r_h> [Ang]:                        [ -0.000000,  -0.000000,  -0.184161]
    <r_e> [Ang]:                        [  0.000000,   0.000000,  -1.068061]
    |<r_e - r_h>| [Ang]:                  0.883900
    Hole size [Ang]:                      1.279799
      Cartesian components [Ang]:       [  0.765274,   0.883296,   0.521565]
    Electron size [Ang]:                  3.457872
      Cartesian components [Ang]:       [  2.824466,   1.458216,   1.361204]
    RMS electron-hole separation [Ang]:   3.781877
      Cartesian components [Ang]:       [  2.918453,   1.697366,   1.704164]
    Covariance(r_h, r_e) [Ang^2]:         0.036723
    Correlation coefficient:              0.008298
    Center-of-mass size [Ang]:            1.848527
      Cartesian components [Ang]:       [  1.467066,   0.856178,   0.729198]

  Decomposition into state-averaged NTOs
    H- 0 -> L+ 4: -0.5869 ( 68.9%)
    H- 0 -> L+ 5:  0.3025 ( 18.3%)
    H- 0 -> L+ 3: -0.1406 (  4.0%)
                   omega =  91.3%
  ----------------------------------------------------------------------------


  Excited state 4 (singlet, A2)                                    [converged]
  ----------------------------------------------------------------------------
  Term symbol:  4 (1) A2                                    R^2 =  1.87148e-10

  Total energy:                                            -78.4883548008 a.u.
  Excitation energy:                                               8.871612 eV

  Osc. strength:                                                      0.000000
  Trans. dip. moment [a.u.]:           [   0.000000,    0.000000,    0.000000]
  <i|r^2|0> [a.u.]:                    [   0.000000,    0.000000,    0.000000]

  Dip. moment [a.u.]:                  [   0.000000,    0.000000,   -4.511320]
  Total dipole [Debye]:                                              11.466633
  <r^2> [a.u.]:                        [  72.749010,   18.913672,   94.169918]
  Total <r^2> [a.u.]:                                               185.832599

  V1^2 = 0.9442, V2^2 = 0.0558

  Important amplitudes:
      occ i      occ j       vir a       vir b          v   
    ---------------------------------------------------------
     1 (B2) A               5 (B1) A                 -0.6795
     1 (B2) A               9 (B1) A                 -0.0846
    ---------------------------------------------------------

  Density matrix analysis:
  ------------------------
  NOs
    Occupation of frontier NOs:
       0.9831   0.9941
    Number of electrons: 18.000000
    Number of unpaired electrons: n_u =  2.34062, n_u,nl =  2.02784
    NO participation ratio (PR_NO):  2.792421
  
  
  Mulliken Population Analysis
  Atom      Charge (e)              h+              e-           Del q
  --------------------------------------------------------------------
   1 C       -0.592745        0.529848       -0.705482       -0.175634
   2 C       -0.592745        0.529848       -0.705482       -0.175634
   3 H        0.271000        0.083543       -0.009179        0.074363
   4 H        0.271000        0.083543       -0.009179        0.074363
   5 H        0.138105        0.102251       -0.022130        0.080121
   6 H        0.138105        0.102251       -0.022130        0.080121
   7 H       -0.632721        0.050088       -0.007788        0.042300
  --------------------------------------------------------------------
  Sum:       -1.000000        1.481370       -1.481370        0.000000
  
  Multipole moment analysis of the density matrix
    Molecular charge:                      -1.000000
    Number of electrons:                   18.000000
      Center of electronic charge [Ang]: [ -0.000000,  -0.000000,   0.132627]
    Total nuclear charge:                  17.000000
      Center of nuclear charge [Ang]:    [ -0.000000,   0.000000,   0.000000]
    Dipole moment [D]:                     11.466629
      Cartesian components [D]:          [  0.000000,   0.000000, -11.466629]
    RMS size of the density [Ang]:         1.695121
      Cartesian components [Ang]:        [  1.063845,   0.542441,   1.203090]
  
  Exciton analysis of the difference density matrix
    <r_h> [Ang]:                  [ -0.000000,  -0.000000,  -0.088151]
    <r_e> [Ang]:                  [ -0.000000,  -0.000000,  -0.001880]
    |<r_e - r_h>| [Ang]:            0.086272
    Hole size [Ang]:                1.706614
      Cartesian components [Ang]: [  1.051251,   0.880008,   1.016360]
    Electron size [Ang]:            3.137617
      Cartesian components [Ang]: [  2.225454,   1.146112,   1.891672]

  Transition density matrix analysis:
  -----------------------------------
  
  CT numbers (Mulliken)
    omega =     0.9129
    <Phe> =    -0.0009
  
  Exciton analysis of the transition density matrix
    Trans. dipole moment [D]:             0.000000
      Cartesian components [D]:         [  0.000000,   0.000000,   0.000000]
    <r_h> [Ang]:                        [ -0.000000,  -0.000000,  -0.183547]
    <r_e> [Ang]:                        [ -0.000000,  -0.000000,   0.008737]
    |<r_e - r_h>| [Ang]:                  0.192283
    Hole size [Ang]:                      1.279624
      Cartesian components [Ang]:       [  0.765119,   0.883476,   0.521058]
    Electron size [Ang]:                  3.676149
      Cartesian components [Ang]:       [  2.618130,   1.328984,   2.212073]
    RMS electron-hole separation [Ang]:   3.892275
      Cartesian components [Ang]:       [  2.721104,   1.595607,   2.280227]
    Covariance(r_h, r_e) [Ang^2]:         0.019338
    Correlation coefficient:              0.004111
    Center-of-mass size [Ang]:            1.948729
      Cartesian components [Ang]:       [  1.367078,   0.798044,   1.136560]

  Decomposition into state-averaged NTOs
    H- 0 -> L+ 5:  0.5130 ( 52.6%)
    H- 0 -> L+ 3:  0.4056 ( 32.9%)
    H- 0 -> L+ 4:  0.1679 (  5.6%)
                   omega =  91.3%
  ----------------------------------------------------------------------------


  Excited state 5 (singlet, A2)                                    [converged]
  ----------------------------------------------------------------------------
  Term symbol:  5 (1) A2                                    R^2 =  9.81622e-10

  Total energy:                                            -78.4627826129 a.u.
  Excitation energy:                                               9.567466 eV

  Osc. strength:                                                      0.000000
  Trans. dip. moment [a.u.]:           [   0.000000,    0.000000,   -0.000000]
  <i|r^2|0> [a.u.]:                    [   0.000000,    0.000000,   -0.000000]

  Dip. moment [a.u.]:                  [  -0.000000,   -0.000000,   -4.205709]
  Total dipole [Debye]:                                              10.689847
  <r^2> [a.u.]:                        [  53.354662,   19.567822,   80.384067]
  Total <r^2> [a.u.]:                                               153.306551

  V1^2 = 0.9537, V2^2 = 0.0463

  Important amplitudes:
      occ i      occ j       vir a       vir b          v   
    ---------------------------------------------------------
     4 (A1) A               1 (A2) A                 -0.4951
     4 (A1) A               2 (A2) A                  0.4603
    ---------------------------------------------------------

  Density matrix analysis:
  ------------------------
  NOs
    Occupation of frontier NOs:
       0.9905   1.0047
    Number of electrons: 18.000000
    Number of unpaired electrons: n_u =  2.39965, n_u,nl =  2.03871
    NO participation ratio (PR_NO):  2.905370
  
  
  Mulliken Population Analysis
  Atom      Charge (e)              h+              e-           Del q
  --------------------------------------------------------------------
   1 C       -0.548230        0.441056       -0.572176       -0.131120
   2 C       -0.548230        0.441056       -0.572176       -0.131120
   3 H        0.258493        0.070605       -0.008749        0.061856
   4 H        0.258493        0.070605       -0.008749        0.061856
   5 H        0.125374        0.073648       -0.006258        0.067390
   6 H        0.125374        0.073648       -0.006258        0.067390
   7 H       -0.671272        0.008561       -0.004812        0.003749
  --------------------------------------------------------------------
  Sum:       -1.000000        1.179177       -1.179177        0.000000
  
  Multipole moment analysis of the density matrix
    Molecular charge:                      -1.000000
    Number of electrons:                   18.000000
      Center of electronic charge [Ang]: [  0.000000,   0.000000,   0.123643]
    Total nuclear charge:                  17.000000
      Center of nuclear charge [Ang]:    [ -0.000000,   0.000000,   0.000000]
    Dipole moment [D]:                     10.689844
      Cartesian components [D]:          [ -0.000000,  -0.000000, -10.689844]
    RMS size of the density [Ang]:         1.539391
      Cartesian components [Ang]:        [  0.911069,   0.551742,   1.111422]
  
  Exciton analysis of the difference density matrix
    <r_h> [Ang]:                  [ -0.000000,   0.000000,  -0.140327]
    <r_e> [Ang]:                  [  0.000000,   0.000000,  -0.169094]
    |<r_e - r_h>| [Ang]:            0.028768
    Hole size [Ang]:                1.463439
      Cartesian components [Ang]: [  1.120214,   0.559287,   0.757610]
    Electron size [Ang]:            1.762786
      Cartesian components [Ang]: [  1.217657,   1.070270,   0.692276]

  Transition density matrix analysis:
  -----------------------------------
  
  CT numbers (Mulliken)
    omega =     0.9216
    <Phe> =    -0.0149
  
  Exciton analysis of the transition density matrix
    Trans. dipole moment [D]:             0.000000
      Cartesian components [D]:         [  0.000000,   0.000000,  -0.000000]
    <r_h> [Ang]:                        [ -0.000000,   0.000000,  -0.143896]
    <r_e> [Ang]:                        [  0.000000,   0.000000,  -0.183822]
    |<r_e - r_h>| [Ang]:                  0.039926
    Hole size [Ang]:                      1.299634
      Cartesian components [Ang]:       [  1.074107,   0.412254,   0.604475]
    Electron size [Ang]:                  1.831701
      Cartesian components [Ang]:       [  1.274937,   1.131055,   0.671102]
    RMS electron-hole separation [Ang]:   2.230824
      Cartesian components [Ang]:       [  1.644853,   1.205630,   0.904151]
    Covariance(r_h, r_e) [Ang^2]:         0.034598
    Correlation coefficient:              0.014534
    Center-of-mass size [Ang]:            1.130638
      Cartesian components [Ang]:       [  0.844512,   0.601027,   0.451563]

  Decomposition into state-averaged NTOs
    H- 2 -> L+ 0:  0.6748 ( 91.1%)
                   omega =  92.2%
  ----------------------------------------------------------------------------


  Excited state 6 (singlet, A2)                                    [converged]
  ----------------------------------------------------------------------------
  Term symbol:  6 (1) A2                                    R^2 =  1.80313e-09

  Total energy:                                            -78.4343598683 a.u.
  Excitation energy:                                              10.340889 eV

  Osc. strength:                                                      0.000000
  Trans. dip. moment [a.u.]:           [  -0.000000,    0.000000,   -0.000000]
  <i|r^2|0> [a.u.]:                    [  -0.000000,   -0.000000,   -0.000000]

  Dip. moment [a.u.]:                  [   0.000000,    0.000000,   -4.121483]
  Total dipole [Debye]:                                              10.475768
  <r^2> [a.u.]:                        [  55.473870,   38.229647,   83.523316]
  Total <r^2> [a.u.]:                                               177.226833

  V1^2 = 0.9364, V2^2 = 0.0636

  Important amplitudes:
      occ i      occ j       vir a       vir b          v   
    ---------------------------------------------------------
     3 (B1) A               2 (B2) A                 -0.6761
     3 (B1) A               3 (B2) A                 -0.0964
    ---------------------------------------------------------

  Density matrix analysis:
  ------------------------
  NOs
    Occupation of frontier NOs:
       0.9926   1.0210
    Number of electrons: 18.000000
    Number of unpaired electrons: n_u =  2.48256, n_u,nl =  2.07651
    NO participation ratio (PR_NO):  3.137455
  
  
  Mulliken Population Analysis
  Atom      Charge (e)              h+              e-           Del q
  --------------------------------------------------------------------
   1 C       -0.710270        0.325974       -0.619134       -0.293160
   2 C       -0.710270        0.325974       -0.619134       -0.293160
   3 H        0.323147        0.147665       -0.021155        0.126510
   4 H        0.323147        0.147665       -0.021155        0.126510
   5 H        0.213841        0.166178       -0.010321        0.155857
   6 H        0.213841        0.166178       -0.010321        0.155857
   7 H       -0.653435        0.036381       -0.014795        0.021585
  --------------------------------------------------------------------
  Sum:       -1.000000        1.316015       -1.316015        0.000000
  
  Multipole moment analysis of the density matrix
    Molecular charge:                      -1.000000
    Number of electrons:                   18.000000
      Center of electronic charge [Ang]: [ -0.000000,  -0.000000,   0.121166]
    Total nuclear charge:                  17.000000
      Center of nuclear charge [Ang]:    [ -0.000000,   0.000000,   0.000000]
    Dipole moment [D]:                     10.475765
      Cartesian components [D]:          [  0.000000,   0.000000, -10.475765]
    RMS size of the density [Ang]:         1.656038
      Cartesian components [Ang]:        [  0.928986,   0.771196,   1.133447]
  
  Exciton analysis of the difference density matrix
    <r_h> [Ang]:                  [ -0.000000,  -0.000000,  -0.061046]
    <r_e> [Ang]:                  [ -0.000000,  -0.000000,  -0.120689]
    |<r_e - r_h>| [Ang]:            0.059644
    Hole size [Ang]:                1.788449
      Cartesian components [Ang]: [  1.193856,   0.640086,   1.167710]
    Electron size [Ang]:            3.025047
      Cartesian components [Ang]: [  1.442342,   2.264236,   1.394199]

  Transition density matrix analysis:
  -----------------------------------
  
  CT numbers (Mulliken)
    omega =     0.9200
    <Phe> =    -0.0008
  
  Exciton analysis of the transition density matrix
    Trans. dipole moment [D]:             0.000000
      Cartesian components [D]:         [ -0.000000,   0.000000,  -0.000000]
    <r_h> [Ang]:                        [  0.000000,   0.000000,  -0.124416]
    <r_e> [Ang]:                        [ -0.000000,  -0.000000,  -0.176426]
    |<r_e - r_h>| [Ang]:                  0.052009
    Hole size [Ang]:                      1.522001
      Cartesian components [Ang]:       [  1.125760,   0.418872,   0.934717]
    Electron size [Ang]:                  3.345592
      Cartesian components [Ang]:       [  1.543093,   2.570702,   1.484366]
    RMS electron-hole separation [Ang]:   3.637919
      Cartesian components [Ang]:       [  1.837202,   2.603872,   1.754706]
    Covariance(r_h, r_e) [Ang^2]:         0.138862
    Correlation coefficient:              0.027271
    Center-of-mass size [Ang]:            1.856556
      Cartesian components [Ang]:       [  0.990156,   1.302668,   0.877181]

  Decomposition into state-averaged NTOs
    H- 3 -> L+ 2:  0.6771 ( 91.7%)
                   omega =  92.0%
  ----------------------------------------------------------------------------


  Excited state 7 (singlet, A2)                                    [converged]
  ----------------------------------------------------------------------------
  Term symbol:  7 (1) A2                                    R^2 =  2.62414e-09

  Total energy:                                            -78.4216766445 a.u.
  Excitation energy:                                              10.686017 eV

  Osc. strength:                                                      0.000000
  Trans. dip. moment [a.u.]:           [  -0.000000,   -0.000000,   -0.000000]
  <i|r^2|0> [a.u.]:                    [   0.000000,    0.000000,    0.000000]

  Dip. moment [a.u.]:                  [   0.000000,   -0.000000,   -5.183584]
  Total dipole [Debye]:                                              13.175358
  <r^2> [a.u.]:                        [  69.561425,   23.707738,   87.854753]
  Total <r^2> [a.u.]:                                               181.123916

  V1^2 = 0.9452, V2^2 = 0.0548

  Important amplitudes:
      occ i      occ j       vir a       vir b          v   
    ---------------------------------------------------------
     1 (B2) A               6 (B1) A                  0.6773
     1 (B2) A               7 (B1) A                 -0.0826
    ---------------------------------------------------------

  Density matrix analysis:
  ------------------------
  NOs
    Occupation of frontier NOs:
       0.9825   0.9934
    Number of electrons: 18.000000
    Number of unpaired electrons: n_u =  2.33880, n_u,nl =  2.02755
    NO participation ratio (PR_NO):  2.791704
  
  
  Mulliken Population Analysis
  Atom      Charge (e)              h+              e-           Del q
  --------------------------------------------------------------------
   1 C       -0.593637        0.539595       -0.716122       -0.176527
   2 C       -0.593637        0.539595       -0.716122       -0.176527
   3 H        0.249431        0.079933       -0.027139        0.052794
   4 H        0.249431        0.079933       -0.027139        0.052794
   5 H        0.158390        0.095469        0.004937        0.100406
   6 H        0.158390        0.095469        0.004937        0.100406
   7 H       -0.628367        0.052262       -0.005609        0.046653
  --------------------------------------------------------------------
  Sum:       -1.000000        1.482256       -1.482256       -0.000000
  
  Multipole moment analysis of the density matrix
    Molecular charge:                      -1.000000
    Number of electrons:                   18.000000
      Center of electronic charge [Ang]: [ -0.000000,   0.000000,   0.152391]
    Total nuclear charge:                  17.000000
      Center of nuclear charge [Ang]:    [ -0.000000,   0.000000,   0.000000]
    Dipole moment [D]:                     13.175354
      Cartesian components [D]:          [  0.000000,  -0.000000, -13.175354]
    RMS size of the density [Ang]:         1.671690
      Cartesian components [Ang]:        [  1.040277,   0.607309,   1.159114]
  
  Exciton analysis of the difference density matrix
    <r_h> [Ang]:                  [ -0.000000,   0.000000,  -0.083881]
    <r_e> [Ang]:                  [ -0.000000,   0.000000,   0.242343]
    |<r_e - r_h>| [Ang]:            0.326224
    Hole size [Ang]:                1.702497
      Cartesian components [Ang]: [  1.051225,   0.881123,   1.008487]
    Electron size [Ang]:            2.979504
      Cartesian components [Ang]: [  2.085208,   1.490272,   1.519355]

  Transition density matrix analysis:
  -----------------------------------
  
  CT numbers (Mulliken)
    omega =     0.9142
    <Phe> =    -0.0014
  
  Exciton analysis of the transition density matrix
    Trans. dipole moment [D]:             0.000000
      Cartesian components [D]:         [ -0.000000,  -0.000000,  -0.000000]
    <r_h> [Ang]:                        [ -0.000000,  -0.000000,  -0.183821]
    <r_e> [Ang]:                        [ -0.000000,   0.000000,   0.380360]
    |<r_e - r_h>| [Ang]:                  0.564180
    Hole size [Ang]:                      1.279753
      Cartesian components [Ang]:       [  0.765189,   0.883574,   0.521106]
    Electron size [Ang]:                  3.470232
      Cartesian components [Ang]:       [  2.441932,   1.764227,   1.722493]
    RMS electron-hole separation [Ang]:   3.734240
      Cartesian components [Ang]:       [  2.554118,   1.966169,   1.885527]
    Covariance(r_h, r_e) [Ang^2]:         0.027015
    Correlation coefficient:              0.006083
    Center-of-mass size [Ang]:            1.852992
      Cartesian components [Ang]:       [  1.281949,   0.990023,   0.900022]

  Decomposition into state-averaged NTOs
    H- 0 -> L+ 3:  0.5217 ( 54.4%)
    H- 0 -> L+ 5: -0.3169 ( 20.1%)
    H- 0 -> L+ 4: -0.2891 ( 16.7%)
                   omega =  91.4%
  ----------------------------------------------------------------------------


  Excited state 8 (singlet, A2)                                    [converged]
  ----------------------------------------------------------------------------
  Term symbol:  8 (1) A2                                    R^2 =  3.94415e-08

  Total energy:                                            -78.3701364932 a.u.
  Excitation energy:                                              12.088496 eV

  Osc. strength:                                                      0.000000
  Trans. dip. moment [a.u.]:           [   0.000000,    0.000000,   -0.000000]
  <i|r^2|0> [a.u.]:                    [  -0.000000,   -0.000000,   -0.000000]

  Dip. moment [a.u.]:                  [  -0.000000,   -0.000000,   -4.253088]
  Total dipole [Debye]:                                              10.810274
  <r^2> [a.u.]:                        [  55.187934,   20.166544,   79.209841]
  Total <r^2> [a.u.]:                                               154.564319

  V1^2 = 0.9366, V2^2 = 0.0634

  Important amplitudes:
      occ i      occ j       vir a       vir b          v   
    ---------------------------------------------------------
     3 (A1) A               1 (A2) A                 -0.5068
     3 (A1) A               2 (A2) A                  0.4434
    ---------------------------------------------------------

  Density matrix analysis:
  ------------------------
  NOs
    Occupation of frontier NOs:
       1.0009   1.0333
    Number of electrons: 18.000000
    Number of unpaired electrons: n_u =  2.45857, n_u,nl =  2.06122
    NO participation ratio (PR_NO):  3.100677
  
  
  Mulliken Population Analysis
  Atom      Charge (e)              h+              e-           Del q
  --------------------------------------------------------------------
   1 C       -0.601398        0.337453       -0.521741       -0.184288
   2 C       -0.601398        0.337453       -0.521741       -0.184288
   3 H        0.271154        0.084691       -0.010174        0.074517
   4 H        0.271154        0.084691       -0.010174        0.074517
   5 H        0.165160        0.118847       -0.011671        0.107176
   6 H        0.165160        0.118847       -0.011671        0.107176
   7 H       -0.669830        0.012122       -0.006931        0.005190
  --------------------------------------------------------------------
  Sum:       -1.000000        1.094104       -1.094104        0.000000
  
  Multipole moment analysis of the density matrix
    Molecular charge:                      -1.000000
    Number of electrons:                   18.000000
      Center of electronic charge [Ang]: [  0.000000,   0.000000,   0.125035]
    Total nuclear charge:                  17.000000
      Center of nuclear charge [Ang]:    [ -0.000000,   0.000000,   0.000000]
    Dipole moment [D]:                     10.810271
      Cartesian components [D]:          [ -0.000000,  -0.000000, -10.810271]
    RMS size of the density [Ang]:         1.545621
      Cartesian components [Ang]:        [  0.926589,   0.560119,   1.103016]
  
  Exciton analysis of the difference density matrix
    <r_h> [Ang]:                  [ -0.000000,  -0.000000,  -0.158743]
    <r_e> [Ang]:                  [  0.000000,   0.000000,  -0.166831]
    |<r_e - r_h>| [Ang]:            0.008089
    Hole size [Ang]:                1.503401
      Cartesian components [Ang]: [  0.996911,   0.543540,   0.985367]
    Electron size [Ang]:            1.905241
      Cartesian components [Ang]: [  1.307122,   1.160214,   0.758472]

  Transition density matrix analysis:
  -----------------------------------
  
  CT numbers (Mulliken)
    omega =     0.9078
    <Phe> =    -0.0120
  
  Exciton analysis of the transition density matrix
    Trans. dipole moment [D]:             0.000000
      Cartesian components [D]:         [  0.000000,   0.000000,  -0.000000]
    <r_h> [Ang]:                        [  0.000000,   0.000000,  -0.195624]
    <r_e> [Ang]:                        [  0.000000,   0.000000,  -0.190492]
    |<r_e - r_h>| [Ang]:                  0.005132
    Hole size [Ang]:                      1.380335
      Cartesian components [Ang]:       [  0.942056,   0.431044,   0.912171]
    Electron size [Ang]:                  1.917016
      Cartesian components [Ang]:       [  1.326816,   1.187891,   0.709522]
    RMS electron-hole separation [Ang]:   2.363679
      Cartesian components [Ang]:       [  1.633182,   1.261949,   1.152034]
    Covariance(r_h, r_e) [Ang^2]:        -0.003339
    Correlation coefficient:             -0.001262
    Center-of-mass size [Ang]:            1.180423
      Cartesian components [Ang]:       [  0.810639,   0.632704,   0.579612]

  Decomposition into state-averaged NTOs
    H- 4 -> L+ 0:  0.6700 ( 89.8%)
                   omega =  90.8%
  ----------------------------------------------------------------------------


  Excited state 9 (singlet, A2)                                    [converged]
  ----------------------------------------------------------------------------
  Term symbol:  9 (1) A2                                    R^2 =  7.93124e-07

  Total energy:                                            -78.3524174123 a.u.
  Excitation energy:                                              12.570656 eV

  Osc. strength:                                                      0.000000
  Trans. dip. moment [a.u.]:           [   0.000000,    0.000000,    0.000000]
  <i|r^2|0> [a.u.]:                    [  -0.000000,   -0.000000,   -0.000000]

  Dip. moment [a.u.]:                  [  -0.000000,   -0.000000,   -3.476193]
  Total dipole [Debye]:                                               8.835602
  <r^2> [a.u.]:                        [  58.891691,   21.027797,   85.742086]
  Total <r^2> [a.u.]:                                               165.661574

  V1^2 = 0.9421, V2^2 = 0.0579

  Important amplitudes:
      occ i      occ j       vir a       vir b          v   
    ---------------------------------------------------------
     1 (B2) A               7 (B1) A                 -0.6274
     4 (A1) A               1 (A2) A                 -0.1846
    ---------------------------------------------------------

  Density matrix analysis:
  ------------------------
  NOs
    Occupation of frontier NOs:
       0.8499   1.0988
    Number of electrons: 18.000000
    Number of unpaired electrons: n_u =  2.40903, n_u,nl =  2.09386
    NO participation ratio (PR_NO):  3.675626
  
  
  Mulliken Population Analysis
  Atom      Charge (e)              h+              e-           Del q
  --------------------------------------------------------------------
   1 C       -0.150489        0.542767       -0.276146        0.266621
   2 C       -0.150489        0.542767       -0.276146        0.266621
   3 H        0.133206        0.039042       -0.102472       -0.063431
   4 H        0.133206        0.039042       -0.102472       -0.063431
   5 H       -0.156601        0.046540       -0.261125       -0.214585
   6 H       -0.156601        0.046540       -0.261125       -0.214585
   7 H       -0.652232        0.027768       -0.004979        0.022788
  --------------------------------------------------------------------
  Sum:       -1.000000        1.284465       -1.284465       -0.000000
  
  Multipole moment analysis of the density matrix
    Molecular charge:                      -1.000000
    Number of electrons:                   18.000000
      Center of electronic charge [Ang]: [ -0.000000,   0.000000,   0.102196]
    Total nuclear charge:                  17.000000
      Center of nuclear charge [Ang]:    [ -0.000000,   0.000000,   0.000000]
    Dipole moment [D]:                     8.835599
      Cartesian components [D]:          [  0.000000,  -0.000000,  -8.835599]
    RMS size of the density [Ang]:         1.602116
      Cartesian components [Ang]:        [  0.957176,   0.571955,   1.150416]
  
  Exciton analysis of the difference density matrix
    <r_h> [Ang]:                  [ -0.000000,   0.000000,  -0.142310]
    <r_e> [Ang]:                  [  0.000000,   0.000000,  -0.469268]
    |<r_e - r_h>| [Ang]:            0.326957
    Hole size [Ang]:                1.635486
      Cartesian components [Ang]: [  1.031762,   0.876284,   0.917828]
    Electron size [Ang]:            2.462348
      Cartesian components [Ang]: [  1.575057,   1.360363,   1.315967]

  Transition density matrix analysis:
  -----------------------------------
  
  CT numbers (Mulliken)
    omega =     0.9114
    <Phe> =    -0.0074
  
  Exciton analysis of the transition density matrix
    Trans. dipole moment [D]:             0.000000
      Cartesian components [D]:         [  0.000000,   0.000000,   0.000000]
    <r_h> [Ang]:                        [ -0.000000,   0.000000,  -0.154316]
    <r_e> [Ang]:                        [  0.000000,   0.000000,  -0.593876]
    |<r_e - r_h>| [Ang]:                  0.439560
    Hole size [Ang]:                      1.315054
      Cartesian components [Ang]:       [  0.815064,   0.836073,   0.604996]
    Electron size [Ang]:                  2.668577
      Cartesian components [Ang]:       [  1.706953,   1.497467,   1.401859]
    RMS electron-hole separation [Ang]:   2.973112
      Cartesian components [Ang]:       [  1.864784,   1.695121,   1.577513]
    Covariance(r_h, r_e) [Ang^2]:         0.102243
    Correlation coefficient:              0.029135
    Center-of-mass size [Ang]:            1.504589
      Cartesian components [Ang]:       [  0.958986,   0.867384,   0.769273]

  Decomposition into state-averaged NTOs
    H- 0 -> L+ 6:  0.6282 ( 78.9%)
    H- 2 -> L+ 1:  0.2221 (  9.9%)
                   omega =  91.1%
  ----------------------------------------------------------------------------


  Excited state 10 (singlet, A2)                                    [converged]
  ----------------------------------------------------------------------------
  Term symbol:  10 (1) A2                                   R^2 =  6.09911e-07

  Total energy:                                            -78.3415025991 a.u.
  Excitation energy:                                              12.867663 eV

  Osc. strength:                                                      0.000000
  Trans. dip. moment [a.u.]:           [   0.000000,    0.000000,   -0.000000]
  <i|r^2|0> [a.u.]:                    [  -0.000000,    0.000000,   -0.000000]

  Dip. moment [a.u.]:                  [  -0.000000,    0.000000,   -1.572400]
  Total dipole [Debye]:                                               3.996643
  <r^2> [a.u.]:                        [  63.459677,   28.174342,   70.526611]
  Total <r^2> [a.u.]:                                               162.160631

  V1^2 = 0.9223, V2^2 = 0.0777

  Important amplitudes:
      occ i      occ j       vir a       vir b          v   
    ---------------------------------------------------------
     5 (A1) A               3 (A2) A                 -0.4828
     4 (A1) A               2 (A2) A                 -0.3015
    ---------------------------------------------------------

  Density matrix analysis:
  ------------------------
  NOs
    Occupation of frontier NOs:
       0.5205   1.4293
    Number of electrons: 18.000000
    Number of unpaired electrons: n_u =  2.52414, n_u,nl =  2.19613
    NO participation ratio (PR_NO):  6.773275
  
  
  Mulliken Population Analysis
  Atom      Charge (e)              h+              e-           Del q
  --------------------------------------------------------------------
   1 C       -0.617271        0.333615       -0.533775       -0.200161
   2 C       -0.617271        0.333615       -0.533775       -0.200161
   3 H        0.187752        0.017577       -0.026462       -0.008885
   4 H        0.187752        0.017577       -0.026462       -0.008885
   5 H        0.075876        0.038801       -0.020909        0.017892
   6 H        0.075876        0.038801       -0.020909        0.017892
   7 H       -0.292714        0.395759       -0.013452        0.382307
  --------------------------------------------------------------------
  Sum:       -1.000000        1.175745       -1.175745       -0.000000
  
  Multipole moment analysis of the density matrix
    Molecular charge:                      -1.000000
    Number of electrons:                   18.000000
      Center of electronic charge [Ang]: [  0.000000,  -0.000000,   0.046227]
    Total nuclear charge:                  17.000000
      Center of nuclear charge [Ang]:    [ -0.000000,   0.000000,   0.000000]
    Dipole moment [D]:                     3.996642
      Cartesian components [D]:          [ -0.000000,   0.000000,  -3.996642]
    RMS size of the density [Ang]:         1.587646
      Cartesian components [Ang]:        [  0.993605,   0.662051,   1.046449]
  
  Exciton analysis of the difference density matrix
    <r_h> [Ang]:                  [  0.000000,   0.000000,   1.053965]
    <r_e> [Ang]:                  [  0.000000,  -0.000000,  -0.160081]
    |<r_e - r_h>| [Ang]:            1.214047
    Hole size [Ang]:                2.147020
      Cartesian components [Ang]: [  1.042236,   0.808181,   1.694191]
    Electron size [Ang]:            2.963310
      Cartesian components [Ang]: [  1.929107,   1.880981,   1.233557]

  Transition density matrix analysis:
  -----------------------------------
  
  CT numbers (Mulliken)
    omega =     0.9056
    <Phe> =    -0.0027
  
  Exciton analysis of the transition density matrix
    Trans. dipole moment [D]:             0.000000
      Cartesian components [D]:         [  0.000000,   0.000000,  -0.000000]
    <r_h> [Ang]:                        [ -0.000000,  -0.000000,   1.324089]
    <r_e> [Ang]:                        [  0.000000,  -0.000000,  -0.226231]
    |<r_e - r_h>| [Ang]:                  1.550320
    Hole size [Ang]:                      1.944727
      Cartesian components [Ang]:       [  0.905943,   0.649096,   1.593707]
    Electron size [Ang]:                  3.108539
      Cartesian components [Ang]:       [  2.043191,   2.002333,   1.216162]
    RMS electron-hole separation [Ang]:   3.957211
      Cartesian components [Ang]:       [  2.216907,   2.115284,   2.504079]
    Covariance(r_h, r_e) [Ang^2]:         0.094476
    Correlation coefficient:              0.015628
    Center-of-mass size [Ang]:            1.846207
      Cartesian components [Ang]:       [  1.126504,   1.047246,   1.021149]

  Decomposition into state-averaged NTOs
    H- 1 -> L+ 7: -0.4888 ( 47.8%)
    H- 2 -> L+ 1:  0.4146 ( 34.4%)
    H- 0 -> L+ 6: -0.1991 (  7.9%)
                   omega =  90.6%
  ----------------------------------------------------------------------------


--------------------------------------------------------------------------------
  Time of ADC calculation:  CPU 134.37 s  wall 39.42 s
================================================================================
 
 --------------------------------------------------------------
             Orbital Energies (a.u.) and Symmetries
 --------------------------------------------------------------
 
 Alpha MOs, Restricted
 -- Occupied --                  
-11.063 -11.062  -0.869  -0.612  -0.486  -0.397  -0.340  -0.206
  1 A1    1 B1    2 A1    2 B1    3 A1    4 A1    3 B1    1 B2                 
 -0.020
  5 A1                                                                         
 -- Virtual --                   
  0.208   0.210   0.241   0.244   0.252   0.275   0.327   0.350
  6 A1    4 B1    1 A2    2 B2    7 A1    5 B1    8 A1    6 B1                 
  0.355   0.454   0.492   0.498   0.510   0.544   0.570   0.587
  2 A2    9 A1   10 A1    7 B1    8 B1   11 A1    3 B2   12 A1                 
  0.605   0.655   0.704   0.781   0.987   1.011   1.085   1.088
  9 B1    3 A2   10 B1   11 B1   13 A1   14 A1   15 A1   12 B1                 
  1.210   1.212   1.287   1.292   1.316   1.364   1.376   1.429
 16 A1   13 B1    4 B2   17 A1   14 B1   18 A1    5 B2    4 A2                 
  1.459   1.475   1.533   1.670   1.798   1.911   1.922   1.947
  5 A2    6 B2   15 B1   16 B1   19 A1    7 B2   20 A1   17 B1                 
  1.966   2.053   2.056   2.115   2.153   2.195   2.266   2.290
 18 B1    6 A2   21 A1    8 B2   19 B1    9 B2   22 A1   23 A1                 
  2.355   2.502   2.586   2.673   2.726   2.766   3.047   3.077
  7 A2   20 B1    8 A2   24 A1   21 B1   22 B1   25 A1   26 A1                 
  3.475   3.532
 23 B1   24 B1                                                                 
 
 Beta MOs, Restricted
 -- Occupied --                  
-11.063 -11.062  -0.869  -0.612  -0.486  -0.397  -0.340  -0.206
  1 A1    1 B1    2 A1    2 B1    3 A1    4 A1    3 B1    1 B2                 
 -0.020
  5 A1                                                                         
 -- Virtual --                   
  0.208   0.210   0.241   0.244   0.252   0.275   0.327   0.350
  6 A1    4 B1    1 A2    2 B2    7 A1    5 B1    8 A1    6 B1                 
  0.355   0.454   0.492   0.498   0.510   0.544   0.570   0.587
  2 A2    9 A1   10 A1    7 B1    8 B1   11 A1    3 B2   12 A1                 
  0.605   0.655   0.704   0.781   0.987   1.011   1.085   1.088
  9 B1    3 A2   10 B1   11 B1   13 A1   14 A1   15 A1   12 B1                 
  1.210   1.212   1.287   1.292   1.316   1.364   1.376   1.429
 16 A1   13 B1    4 B2   17 A1   14 B1   18 A1    5 B2    4 A2                 
  1.459   1.475   1.533   1.670   1.798   1.911   1.922   1.947
  5 A2    6 B2   15 B1   16 B1   19 A1    7 B2   20 A1   17 B1                 
  1.966   2.053   2.056   2.115   2.153   2.195   2.266   2.290
 18 B1    6 A2   21 A1    8 B2   19 B1    9 B2   22 A1   23 A1                 
  2.355   2.502   2.586   2.673   2.726   2.766   3.047   3.077
  7 A2   20 B1    8 A2   24 A1   21 B1   22 B1   25 A1   26 A1                 
  3.475   3.532
 23 B1   24 B1                                                                 
 --------------------------------------------------------------
 
          Ground-State Mulliken Net Atomic Charges

     Atom                 Charge (a.u.)
  ----------------------------------------
      1 C                    -0.393946
      2 C                    -0.393946
      3 H                     0.198425
      4 H                     0.198425
      5 H                     0.049449
      6 H                     0.049449
      7 H                    -0.707855
  ----------------------------------------
  Sum of atomic charges =    -1.000000

 -----------------------------------------------------------------
                    Cartesian Multipole Moments
 -----------------------------------------------------------------
    Charge (ESU x 10^10)
                -4.8032
    Dipole Moment (Debye)
         X       0.0000      Y      -0.0000      Z     -11.0934
       Tot      11.0934
    Quadrupole Moments (Debye-Ang)
        XX     -18.8304     XY       0.0000     YY     -21.7016
        XZ       0.0000     YZ      -0.0000     ZZ     -50.9175
    Octopole Moments (Debye-Ang^2)
       XXX       0.0000    XXY       0.0000    XYY       0.0000
       YYY       0.0000    XXZ      -8.4581    XYZ       0.0000
       YYZ      -9.1409    XZZ       0.0000    YZZ      -0.0000
       ZZZ    -114.6929
    Hexadecapole Moments (Debye-Ang^3)
      XXXX     -86.4886   XXXY       0.0000   XXYY     -21.1828
      XYYY       0.0000   YYYY     -37.3190   XXXZ       0.0000
      XXYZ       0.0000   XYYZ       0.0000   YYYZ       0.0000
      XXZZ     -52.9390   XYZZ       0.0000   YYZZ     -47.6511
      XZZZ       0.0000   YZZZ      -0.0000   ZZZZ    -477.0807
 -----------------------------------------------------------------
 Total job time:  122.18s(wall), 179.73s(cpu) 
 Sun Mar 27 18:15:41 2022

        *************************************************************
        *                                                           *
        *  Thank you very much for using Q-Chem.  Have a nice day.  *
        *                                                           *
        *************************************************************


