/src/tsommerfeld/qchem/exe/qcprog.exe .input0.805556.32458.qcin.1 /src/jdavis/qchem.scratch/qchem32458/

                  Welcome to Q-Chem
     A Quantum Leap Into The Future Of Chemistry


 Q-Chem 5.4 (devel), Q-Chem, Inc., Pleasanton, CA (2021)

 E. Epifanovsky,  A. T. B. Gilbert,  Xintian Feng,  Joonho Lee,  Yuezhi Mao,  
 N. Mardirossian,  P. Pokhilko,  A. White,  M. Wormit,  M. P. Coons,  
 A. L. Dempwolff,  Zhengting Gan,  D. Hait,  P. R. Horn,  L. D. Jacobson,  
 I. Kaliman,  J. Kussmann,  A. W. Lange,  Ka Un Lao,  D. S. Levine,  Jie Liu,  
 S. C. McKenzie,  A. F. Morrison,  K. Nanda,  F. Plasser,  D. R. Rehn,  
 M. L. Vidal,  Zhi-Qiang You,  Ying Zhu,  B. Alam,  B. Albrecht,  
 A. Aldossary,  E. Alguire,  J. H. Andersen,  D. Barton,  K. Begam,  A. Behn,  
 Y. A. Bernard,  E. J. Berquist,  H. Burton,  A. Carreras,  K. Carter-Fenk,  
 R. Chakraborty,  A. D. Chien,  K. D. Closser,  V. Cofer-Shabica,  
 S. Dasgupta,  Jia Deng,  M. de Wergifosse,  M. Diedenhofen,  Hainam Do,  
 S. Ehlert,  Po-Tung Fang,  S. Fatehi,  Qingguo Feng,  T. Friedhoff,  
 J. Gayvert,  Qinghui Ge,  G. Gidofalvi,  M. Goldey,  J. Gomes,  
 C. Gonzalez-Espinoza,  S. Gulania,  A. Gunina,  M. W. D. Hanson-Heine,  
 P. H. P. Harbach,  A. W. Hauser,  M. F. Herbst,  M. Hernandez Vera,  
 M. Hodecker,  Z. C. Holden,  S. Houck,  Xunkun Huang,  Kerwin Hui,  
 B. C. Huynh,  M. Ivanov,  Hyunjun Ji,  Hanjie Jiang,  B. Kaduk,  S. Kaehler,  
 K. Khistyaev,  Jaehoon Kim,  P. Klunzinger,  Z. Koczor-Benda,  
 Joong Hoon Koh,  D. Kosenkov,  L. Koulias,  T. Kowalczyk,  C. M. Krauter,  
 K. Kue,  A. Kunitsa,  T. Kus,  A. Landau,  K. V. Lawler,  D. Lefrancois,  
 S. Lehtola,  Rain Li,  Yi-Pei Li,  Jiashu Liang,  M. Liebenthal,  
 Hung-Hsuan Lin,  You-Sheng Lin,  Fenglai Liu,  Kuan-Yu Liu,  
 M. Loipersberger,  A. Luenser,  A. Manjanath,  P. Manohar,  E. Mansoor,  
 S. F. Manzer,  Shan-Ping Mao,  A. V. Marenich,  T. Markovich,  S. Mason,  
 S. A. Maurer,  P. F. McLaughlin,  M. F. S. J. Menger,  J.-M. Mewes,  
 S. A. Mewes,  P. Morgante,  J. W. Mullinax,  K. J. Oosterbaan,  G. Paran,  
 Alexander C. Paul,  Suranjan K. Paul,  F. Pavosevic,  Zheng Pei,  S. Prager,  
 E. I. Proynov,  E. Ramos,  B. Rana,  A. E. Rask,  A. Rettig,  R. M. Richard,  
 F. Rob,  E. Rossomme,  T. Scheele,  M. Scheurer,  M. Schneider,  
 N. Sergueev,  S. M. Sharada,  W. Skomorowski,  D. W. Small,  C. J. Stein,  
 Yu-Chuan Su,  E. J. Sundstrom,  Zhen Tao,  J. Thirman,  T. Tsuchimochi,  
 N. M. Tubman,  S. P. Veccham,  O. Vydrov,  J. Wenzel,  J. Witte,  A. Yamada,  
 Kun Yao,  S. Yeganeh,  S. R. Yost,  A. Zech,  Igor Ying Zhang,  Xing Zhang,  
 Yu Zhang,  D. Zuev,  A. Aspuru-Guzik,  A. T. Bell,  N. A. Besley,  
 K. B. Bravaya,  B. R. Brooks,  D. Casanova,  Jeng-Da Chai,  S. Coriani,  
 C. J. Cramer,  A. E. DePrince, III,  R. A. DiStasio Jr.,  A. Dreuw,  
 B. D. Dunietz,  T. R. Furlani,  W. A. Goddard III,  S. Grimme,  
 S. Hammes-Schiffer,  T. Head-Gordon,  W. J. Hehre,  Chao-Ping Hsu,  
 T.-C. Jagau,  Yousung Jung,  A. Klamt,  Jing Kong,  D. S. Lambrecht,  
 WanZhen Liang,  N. J. Mayhall,  C. W. McCurdy,  J. B. Neaton,  
 C. Ochsenfeld,  J. A. Parkhill,  R. Peverati,  V. A. Rassolov,  Yihan Shao,  
 L. V. Slipchenko,  T. Stauch,  R. P. Steele,  J. E. Subotnik,  
 A. J. W. Thom,  A. Tkatchenko,  D. G. Truhlar,  T. Van Voorhis,  
 T. A. Wesolowski,  K. B. Whaley,  H. L. Woodcock III,  P. M. Zimmerman,  
 S. Faraji,  P. M. W. Gill,  M. Head-Gordon,  J. M. Herbert,  A. I. Krylov

 Additional authors for Version 5.4.1: 
 S. Kotaru,  Shaozhi Li,  Xiangyuan Li,  F. Matz,  A. Molle,  Haisheng Ren,  
 Yingli Su,  Hung-Yi Tsai,  C. Utku,  Fang Wang

 Contributors to earlier versions of Q-Chem not listed above: 
 R. D. Adamson,  B. Austin,  R. Baer,  J. Baker,  G. J. O. Beran,  
 K. Brandhorst,  S. T. Brown,  E. F. C. Byrd,  A. K. Chakraborty,  
 G. K. L. Chan,  Chun-Min Chang,  Yunqing Chen,  C.-L. Cheng,  
 Siu Hung Chien,  D. M. Chipman,  D. L. Crittenden,  H. Dachsel,  
 R. J. Doerksen,  A. D. Dutoi,  R. G. Edgar,  J. Fosso-Tande,  
 L. Fusti-Molnar,  D. Ghosh,  A. Ghysels,  A. Golubeva-Zadorozhnaya,  
 J. Gonthier,  M. S. Gordon,  S. R. Gwaltney,  G. Hawkins,  J. E. Herr,  
 A. Heyden,  S. Hirata,  E. G. Hohenstein,  G. Kedziora,  F. J. Keil,  
 C. Kelley,  Jihan Kim,  R. A. King,  R. Z. Khaliullin,  P. P. Korambath,  
 W. Kurlancheek,  A. Laurent,  A. M. Lee,  M. S. Lee,  S. V. Levchenko,  
 Ching Yeh Lin,  D. Liotard,  E. Livshits,  R. C. Lochan,  I. Lotan,  
 L. A. Martinez-Martinez,  P. E. Maslen,  N. Nair,  D. P. O'Neill,  
 D. Neuhauser,  E. Neuscamman,  C. M. Oana,  R. Olivares-Amaya,  R. Olson,  
 T. M. Perrine,  B. Peters,  P. A. Pieniazek,  A. Prociuk,  Y. M. Rhee,  
 J. Ritchie,  M. A. Rohrdanz,  E. Rosta,  N. J. Russ,  H. F. Schaefer III,  
 M. W. Schmidt,  N. E. Schultz,  S. Sharma,  N. Shenvi,  C. D. Sherrill,  
 A. C. Simmonett,  A. Sodt,  T. Stein,  D. Stuck,  K. S. Thanthiriwatte,  
 V. Vanovschi,  L. Vogt,  Tao Wang,  A. Warshel,  M. A. Watson,  
 C. F. Williams,  Q. Wu,  X. Xu,  Jun Yang,  W. Zhang,  Yan Zhao

 Please cite Q-Chem as follows:
 Y. Shao et al., Mol. Phys. 113, 184-215 (2015)
 DOI: 10.1080/00268976.2014.952696

 Q-Chem 5.4.1 for Intel X86 EM64T Linux

 Parts of Q-Chem use Armadillo 9.900.5 (Nocturnal Misbehaviour).
 http://arma.sourceforge.net/

 Q-Chem begins on Sun Mar 27 17:14:55 2022  

 Host: node01
0

     Scratch files written to /src/jdavis/qchem.scratch/qchem32458//
 Processing $rem in /src/tsommerfeld/qchem/config/preferences:
 Processing $rem in /home/jdavis/.qchemrc:

 Checking the input file for inconsistencies... 	...done.

--------------------------------------------------------------
User input:
--------------------------------------------------------------
$molecule
-1 1
C        -0.6645000000    0.0000000000   -0.1764707059
C         0.6645000000    0.0000000000   -0.1764707059
H        -1.1590800000    0.0000000000    0.7858782941
H         1.1590800000    0.0000000000    0.7858782941
H        -1.1590800000    0.0000000000   -1.1388187059
H         1.1590800000    0.0000000000   -1.1388187059
H         0.0000000000    0.0000000000    2.8235292941
$end

$rem
   METHOD adc(2)
   BASIS gen
   PURECART 11
   EE_STATES [0,10,0,0]
   scf_convergence 8
   ADC_DAVIDSON_MAXITER 120
   ADC_DAVIDSON_MAXSUBSPACE 200
   adc_nguess_singles 100
   THRESH 14
   S2THRESH 14
   adc_davidson_conv 5
   adc_davidson_thresh 14
   THREADS 10
   MEM_TOTAL 95000
   STATE_ANALYSIS TRUE
$end
$basis
C 1
S   9   1.00
      6.665000D+03           6.920000D-04
      1.000000D+03           5.329000D-03
      2.280000D+02           2.707700D-02
      6.471000D+01           1.017180D-01
      2.106000D+01           2.747400D-01
      7.495000D+00           4.485640D-01
      2.797000D+00           2.850740D-01
      5.215000D-01           1.520400D-02
      1.596000D-01          -3.191000D-03
S   9   1.00
      6.665000D+03          -1.460000D-04
      1.000000D+03          -1.154000D-03
      2.280000D+02          -5.725000D-03
      6.471000D+01          -2.331200D-02
      2.106000D+01          -6.395500D-02
      7.495000D+00          -1.499810D-01
      2.797000D+00          -1.272620D-01
      5.215000D-01           5.445290D-01
      1.596000D-01           5.804960D-01
S   1   1.00
      1.596000D-01           1.000000D+00
S   1   1.00
      0.0469000              1.0000000
P   4   1.00
      9.439000D+00           3.810900D-02
      2.002000D+00           2.094800D-01
      5.456000D-01           5.085570D-01
      1.517000D-01           4.688420D-01
P   1   1.00
      1.517000D-01           1.000000D+00
P   1   1.00
      0.0488811      1.0000000
P   1   1.00
      0.0244406      1.0000000
D   1   1.00
      5.500000D-01           1.0000000
****
C 2
S   9   1.00
      6.665000D+03           6.920000D-04
      1.000000D+03           5.329000D-03
      2.280000D+02           2.707700D-02
      6.471000D+01           1.017180D-01
      2.106000D+01           2.747400D-01
      7.495000D+00           4.485640D-01
      2.797000D+00           2.850740D-01
      5.215000D-01           1.520400D-02
      1.596000D-01          -3.191000D-03
S   9   1.00
      6.665000D+03          -1.460000D-04
      1.000000D+03          -1.154000D-03
      2.280000D+02          -5.725000D-03
      6.471000D+01          -2.331200D-02
      2.106000D+01          -6.395500D-02
      7.495000D+00          -1.499810D-01
      2.797000D+00          -1.272620D-01
      5.215000D-01           5.445290D-01
      1.596000D-01           5.804960D-01
S   1   1.00
      1.596000D-01           1.000000D+00
S   1   1.00
      0.0469000              1.0000000
P   4   1.00
      9.439000D+00           3.810900D-02
      2.002000D+00           2.094800D-01
      5.456000D-01           5.085570D-01
      1.517000D-01           4.688420D-01
P   1   1.00
      1.517000D-01           1.000000D+00
P   1   1.00
      0.0488811      1.0000000
P   1   1.00
      0.0244406      1.0000000
D   1   1.00
      5.500000D-01           1.0000000
****
H 3
cc-pVDZ
****
H 4
cc-pVDZ
****
H 5
cc-pVDZ
****
H 6
cc-pVDZ
****
H 7
aug-cc-pVDZ
****
$end
--------------------------------------------------------------
 ----------------------------------------------------------------
             Standard Nuclear Orientation (Angstroms)
    I     Atom           X                Y                Z
 ----------------------------------------------------------------
    1      C      -0.6645000000    -0.0000000000    -0.1764707059
    2      C       0.6645000000     0.0000000000    -0.1764707059
    3      H      -1.1590800000    -0.0000000000     0.7858782941
    4      H       1.1590800000     0.0000000000     0.7858782941
    5      H      -1.1590800000    -0.0000000000    -1.1388187059
    6      H       1.1590800000     0.0000000000    -1.1388187059
    7      H       0.0000000000     0.0000000000     2.8235292941
 ----------------------------------------------------------------
 Molecular Point Group                 C2v   NOp =  4
 Largest Abelian Subgroup              C2v   NOp =  4
 Nuclear Repulsion Energy =          36.36366470 hartrees
 There are        9 alpha and        9 beta electrons
 Requested basis set is non-standard
 There are 33 shells and 67 basis functions
 Total memory of 95000 MB is distributed as follows: 
   MEM_STATIC is set to 192 MB
   QALLOC/CCMAN JOB total memory use is  94808 MB
 Warning: actual memory use might exceed 95000 MB

 Total QAlloc Memory Limit  95000 MB
 Mega-Array Size       188 MB
 MEM_STATIC part       192 MB

                       Distance Matrix (Angstroms)
             C (  1)   C (  2)   H (  3)   H (  4)   H (  5)   H (  6)
   C (  2)  1.329000
   H (  3)  1.082000  2.061931
   H (  4)  2.061931  1.082000  2.318160
   H (  5)  1.082000  2.061931  1.924697  3.013026
   H (  6)  2.061931  1.082000  3.013026  1.924697  2.318160
   H (  7)  3.072712  3.072712  2.344246  2.344246  4.128398  4.128398

 
 A cutoff of  1.0D-14 yielded    561 shell pairs
 There are      2337 function pairs (      2484 Cartesian)
 Smallest overlap matrix eigenvalue = 1.70E-04

 Scale SEOQF with 1.000000e-01/1.000000e-01/1.000000e-01

 Standard Electronic Orientation quadrupole field applied
 Nucleus-field energy     =    -0.0000000009 hartrees
 ================ Generating on-the-fly SAD Guess ================
Attempting to make child job directory: /src/jdavis/qchem.scratch/qchem32458//Frg1/
Attempting to make child job directory: /src/jdavis/qchem.scratch/qchem32458//Frg2/
Creating input file /src/jdavis/qchem.scratch/qchem32458/Frg1.input
using default PutDataFrgm: nothing
calling putenv with: QCSCRATCH=/src/jdavis/qchem.scratch/qchem32458/ 
Spawning Job For Fragment 0
Done Job For Fragment 0
calling putenv with: QCSCRATCH=/src/jdavis/qchem.scratch 
calling putenv with: QCTHREADS=1 
Creating input file /src/jdavis/qchem.scratch/qchem32458/Frg2.input
using default PutDataFrgm: nothing
calling putenv with: QCSCRATCH=/src/jdavis/qchem.scratch/qchem32458/ 
Spawning Job For Fragment 1
Done Job For Fragment 1
calling putenv with: QCSCRATCH=/src/jdavis/qchem.scratch 
calling putenv with: QCTHREADS=1 
 Time for running child jobs:  CPU 1.81 s  wall 54.61 s
 ============= Method Specific SAD Guess Constructed =============
 Guess from on-the-fly superposition of atomic densities
 Warning: Energy on first SCF cycle will be non-variational
 A restricted Hartree-Fock SCF calculation will be
 performed using Pulay DIIS extrapolation
 SCF converges when DIIS error is below 1.0E-08
 using 10 threads for integral computing
 -------------------------------------------------------
 OpenMP Integral computing Module                
 Release: version 1.0, May 2013, Q-Chem Inc. Pittsburgh 
 -------------------------------------------------------
 ---------------------------------------
  Cycle       Energy         DIIS Error
 ---------------------------------------
    1     -78.8139968550      7.37E-02
    2     -78.4603341218      6.97E-03
    3     -78.5103063097      1.75E-03
    4     -78.5129858915      5.52E-04
    5     -78.5133043301      1.22E-04
    6     -78.5133301339      2.87E-05
    7     -78.5133323919      7.71E-06
    8     -78.5133326079      1.16E-06
    9     -78.5133326138      2.72E-07
   10     -78.5133326143      5.72E-08
   11     -78.5133326143      1.20E-08
   12     -78.5133326143      1.75E-09 Convergence criterion met
 ---------------------------------------
 SCF time:  CPU 11.29 s  wall 1.14 s
 SCF   energy in the final basis set = -78.51333261
 Total energy in the final basis set = -78.51333261
================================================================================
|                                                                              |
|                                 A D C  M A N                                 |
|                                                                              |
 ------------------------------------------------------------------------------ 
|                                                                              |
| Components:                                                                  |
|                                                                              |
| - libvmm - 1.3-trunk                                                         |
|   Authors:                                                                   |
|   Evgeny Epifanovsky, Ilya Kaliman                                           |
|                                                                              |
| - libtensor - 2.5-trunk                                                      |
|   Authors:                                                                   |
|   Evgeny Epifanovsky, Michael Wormit, Dmitry Zuev, Sam Manzer,               |
|   Ilya Kaliman                                                               |
|                                                                              |
| - libwfa - 1.1-trunk                                                         |
|   Authors:                                                                   |
|   Felix Plasser, Stefanie Mewes (Baeppler), Benjamin Thomitzni,              |
|   Michael Wormit, Feng Chen, Anna I. Krylov, Pavel Pokhilko                  |
|                                                                              |
| - libadc - 1.1-trunk                                                         |
|   Authors:                                                                   |
|   Michael Wormit, Adrian L. Dempwolff, Philipp H. P. Harbach,                |
|   Caroline Krauter, Dirk Rehn, Matthias Schneider, Jan Wenzel                |
|                                                                              |
| - adcman - 2.6-trunk                                                         |
|   Authors:                                                                   |
|   Michael Wormit, Adrian L. Dempwolff, Philipp H. P. Harbach,                |
|   Caroline Krauter, Daniel Lefrancois, Jan-Michael Mewes, Dirk Rehn,         |
|   Matthias Schneider, Jan Wenzel, Andreas Dreuw                              |
|                                                                              |
| Authors of earlier versions of ADCMAN:                                       |
| Andreas Dreuw, Jan Hendrik Starcke, Dirk Rehn, Michael Wormit                |
|                                                                              |
================================================================================

 
 Alpha MOs, Restricted
 -- Occupied --                  
-11.071 -11.069  -0.877  -0.619  -0.494  -0.404  -0.348  -0.214
  1 A1    1 B1    2 A1    2 B1    3 A1    4 A1    3 B1    1 B2                 
 -0.034
  5 A1                                                                         
 -- Virtual --                   
  0.142   0.163   0.167   0.169   0.176   0.183   0.261   0.284
  4 B1    2 B2    6 A1    1 A2    7 A1    5 B1    8 A1    2 A2                 
  0.311   0.331   0.339   0.363   0.370   0.378   0.445   0.472
  6 B1    7 B1    9 A1    3 B2    8 B1   10 A1    3 A2   11 A1                 
  0.502   0.506   0.659   0.696   0.878   0.978   1.029   1.032
 12 A1    9 B1   10 B1   11 B1   13 A1   14 A1   15 A1   16 A1                 
  1.081   1.088   1.116   1.130   1.145   1.228   1.241   1.280
  4 B2   12 B1   17 A1    4 A2   13 B1   14 B1   18 A1    5 B2                 
  1.447   1.450   1.473   1.516   1.774   1.779   1.877   1.884
  6 B2    5 A2   15 B1   16 B1   19 A1   17 B1   20 A1    7 B2                 
  1.933   1.978   2.020   2.083   2.103   2.171   2.186   2.237
 18 B1   21 A1    6 A2   19 B1    8 B2   22 A1    9 B2   23 A1                 
  2.336   2.480   2.578   2.623   2.725   2.748   2.963   2.992
  7 A2   20 B1    8 A2   24 A1   21 B1   22 B1   25 A1   26 A1                 
  3.412   3.508
 23 B1   24 B1                                                                 
 
 Beta MOs, Restricted
 -- Occupied --                  
-11.071 -11.069  -0.877  -0.619  -0.494  -0.404  -0.348  -0.214
  1 A1    1 B1    2 A1    2 B1    3 A1    4 A1    3 B1    1 B2                 
 -0.034
  5 A1                                                                         
 -- Virtual --                   
  0.142   0.163   0.167   0.169   0.176   0.183   0.261   0.284
  4 B1    2 B2    6 A1    1 A2    7 A1    5 B1    8 A1    2 A2                 
  0.311   0.331   0.339   0.363   0.370   0.378   0.445   0.472
  6 B1    7 B1    9 A1    3 B2    8 B1   10 A1    3 A2   11 A1                 
  0.502   0.506   0.659   0.696   0.878   0.978   1.029   1.032
 12 A1    9 B1   10 B1   11 B1   13 A1   14 A1   15 A1   16 A1                 
  1.081   1.088   1.116   1.130   1.145   1.228   1.241   1.280
  4 B2   12 B1   17 A1    4 A2   13 B1   14 B1   18 A1    5 B2                 
  1.447   1.450   1.473   1.516   1.774   1.779   1.877   1.884
  6 B2    5 A2   15 B1   16 B1   19 A1   17 B1   20 A1    7 B2                 
  1.933   1.978   2.020   2.083   2.103   2.171   2.186   2.237
 18 B1   21 A1    6 A2   19 B1    8 B2   22 A1    9 B2   23 A1                 
  2.336   2.480   2.578   2.623   2.725   2.748   2.963   2.992
  7 A2   20 B1    8 A2   24 A1   21 B1   22 B1   25 A1   26 A1                 
  3.412   3.508
 23 B1   24 B1                                                                 

--------------------------------------------------------------------------------
                                   HF Summary                                   
--------------------------------------------------------------------------------
  Energy:                                                  -78.5133326143 a.u.
  Dip. moment [a.u.]:                  [   0.000000,    0.000000,   -4.250950]
  Total dipole [Debye]:                                              10.804839
  <r^2> [a.u.]:                        [  53.459612,   17.298720,   84.607625]
  Total <r^2> [a.u.]:                                               155.365956
--------------------------------------------------------------------------------

--------------------------------------------------------------------------------
                                 MP(2) Summary                                  
--------------------------------------------------------------------------------
  MP energy contribution:                                   -0.3055947005 a.u.
  Total energy:                                            -78.8189273148 a.u.
  Dip. moment [a.u.]:                  [   0.000000,    0.000000,   -4.067914]
  Total dipole [Debye]:                                              10.339607
  <r^2> [a.u.]:                        [  54.108501,   17.559025,   84.607105]
  Total <r^2> [a.u.]:                                               156.274631

  Density matrix analysis:
  ------------------------
  NOs
    Occupation of frontier NOs:
       0.0448   1.9361
    Number of electrons: 18.000000
    Number of unpaired electrons: n_u =  0.47007, n_u,nl =  0.05190
    NO participation ratio (PR_NO): 16.347488
  
  
  Mulliken Population Analysis
  Atom      Charge (e)              h+              e-           Del q
  --------------------------------------------------------------------
   1 C       -0.374224        0.089656       -0.120998       -0.031342
   2 C       -0.374224        0.089656       -0.120998       -0.031342
   3 H        0.136919        0.014978       -0.017433       -0.002455
   4 H        0.136919        0.014978       -0.017433       -0.002455
   5 H        0.028062        0.019181       -0.011569        0.007612
   6 H        0.028062        0.019181       -0.011569        0.007612
   7 H       -0.581514        0.065797       -0.013427        0.052370
  --------------------------------------------------------------------
  Sum:       -1.000000        0.313428       -0.313428       -0.000000
  
  Multipole moment analysis of the density matrix
    Molecular charge:                      -1.000000
    Number of electrons:                   18.000000
      Center of electronic charge [Ang]: [ -0.000000,  -0.000000,   0.119592]
    Total nuclear charge:                  17.000000
      Center of nuclear charge [Ang]:    [ -0.000000,   0.000000,   0.000000]
    Dipole moment [D]:                     10.339604
      Cartesian components [D]:          [  0.000000,   0.000000, -10.339604]
    RMS size of the density [Ang]:         1.554633
      Cartesian components [Ang]:        [  0.917482,   0.522655,   1.141027]
  
  Exciton analysis of the difference density matrix
    <r_h> [Ang]:                  [ -0.000000,   0.000000,   0.339889]
    <r_e> [Ang]:                  [ -0.000000,  -0.000000,   0.030859]
    |<r_e - r_h>| [Ang]:            0.309030
    Hole size [Ang]:                1.939843
      Cartesian components [Ang]: [  0.982239,   0.792566,   1.473104]
    Electron size [Ang]:            2.165504
      Cartesian components [Ang]: [  1.242793,   0.927754,   1.511338]
--------------------------------------------------------------------------------
Less singles guess vectors found than requested: 85 (found), 100 (requested).
Adjusting number of doubles guess vectors to 15.
  Starting Davidson for singlet states of irrep A2 ... 
--------------------------------------------------------------------------------
   It NVec Conv  Avg. Norm  Max. Norm  Conv. states           Remark
--------------------------------------------------------------------------------
       100    0  7.732e-02  3.278e-01  0.1013 n n n n n n n n Guess.
    1  110    0  9.488e-03  5.599e-02  0.0780 n n n n n n n n 
    2  120    0  9.372e-03  9.284e-02  0.0779 n n n n n n n n 
    3  130    1  1.695e-03  1.691e-02  0.0779 y n n n n n n n 
    4  140    6  1.233e-04  1.230e-03  0.0779 y y y y y n n n 
    5  150    9  4.396e-06  4.387e-05  0.0779 y y y y y y y y 
    6  160   10  8.169e-08  8.156e-07  0.0779 y y y y y y y y Converged.
--------------------------------------------------------------------------------
  Davidson Summary: 
 ------------------------------------------------------------
  State  0: excitation energy =   0.0779 a.u.   (converged)
  State  1: excitation energy =   0.1271 a.u.   (converged)
  State  2: excitation energy =   0.2297 a.u.   (converged)
  State  3: excitation energy =   0.2805 a.u.   (converged)
  State  4: excitation energy =   0.2881 a.u.   (converged)
  State  5: excitation energy =   0.3436 a.u.   (converged)
  State  6: excitation energy =   0.3509 a.u.   (converged)
  State  7: excitation energy =   0.3550 a.u.   (converged)
  State  8: excitation energy =   0.3743 a.u.   (converged)
  State  9: excitation energy =   0.3811 a.u.   (converged)
 ------------------------------------------------------------


--------------------------------------------------------------------------------
                   State-averaged natural transition orbitals
--------------------------------------------------------------------------------
--------------------------------------------------------------------------------

--------------------------------------------------------------------------------
                             Excited State Summary
--------------------------------------------------------------------------------
--------------------------------------------------------------------------------

  Excited state 1 (singlet, A2)                                    [converged]
  ----------------------------------------------------------------------------
  Term symbol:  1 (1) A2                                    R^2 =  2.22589e-11

  Total energy:                                            -78.7410346177 a.u.
  Excitation energy:                                               2.119568 eV

  Osc. strength:                                                      0.000000
  Trans. dip. moment [a.u.]:           [  -0.000000,   -0.000000,   -0.000000]
  <i|r^2|0> [a.u.]:                    [  -0.000000,   -0.000000,   -0.000000]

  Dip. moment [a.u.]:                  [  -0.000000,    0.000000,    0.582877]
  Total dipole [Debye]:                                               1.481525
  <r^2> [a.u.]:                        [  82.851970,   45.945417,   64.901592]
  Total <r^2> [a.u.]:                                               193.698979

  V1^2 = 0.9172, V2^2 = 0.0828

  Important amplitudes:
      occ i      occ j       vir a       vir b          v   
    ---------------------------------------------------------
     5 (A1) A               1 (A2) A                 -0.6485
     5 (A1) A               2 (A2) A                 -0.1928
    ---------------------------------------------------------

  Density matrix analysis:
  ------------------------
  NOs
    Occupation of frontier NOs:
       0.9855   0.9960
    Number of electrons: 18.000000
    Number of unpaired electrons: n_u =  2.41806, n_u,nl =  2.04762
    NO participation ratio (PR_NO):  2.959338
  
  
  Mulliken Population Analysis
  Atom      Charge (e)              h+              e-           Del q
  --------------------------------------------------------------------
   1 C       -0.675467        0.251202       -0.552445       -0.301243
   2 C       -0.675467        0.251202       -0.552445       -0.301243
   3 H        0.105501        0.025618       -0.057035       -0.031418
   4 H        0.105501        0.025618       -0.057035       -0.031418
   5 H        0.054126        0.026627       -0.000563        0.026064
   6 H        0.054126        0.026627       -0.000563        0.026064
   7 H        0.031680        0.665329       -0.052135        0.613194
  --------------------------------------------------------------------
  Sum:       -1.000000        1.272222       -1.272222        0.000000
  
  Multipole moment analysis of the density matrix
    Molecular charge:                      -1.000000
    Number of electrons:                   18.000000
      Center of electronic charge [Ang]: [ -0.000000,  -0.000000,  -0.017136]
    Total nuclear charge:                  17.000000
      Center of nuclear charge [Ang]:    [ -0.000000,   0.000000,   0.000000]
    Dipole moment [D]:                     1.481525
      Cartesian components [D]:          [  0.000000,   0.000000,   1.481525]
    RMS size of the density [Ang]:         1.735831
      Cartesian components [Ang]:        [  1.135315,   0.845446,   1.004684]
  
  Exciton analysis of the difference density matrix
    <r_h> [Ang]:                  [ -0.000000,  -0.000000,   1.949079]
    <r_e> [Ang]:                  [ -0.000000,  -0.000000,   0.014596]
    |<r_e - r_h>| [Ang]:            1.934483
    Hole size [Ang]:                2.584425
      Cartesian components [Ang]: [  1.204167,   1.101493,   2.003982]
    Electron size [Ang]:            4.326131
      Cartesian components [Ang]: [  2.788680,   2.731558,   1.864742]

  Transition density matrix analysis:
  -----------------------------------
  
  CT numbers (Mulliken)
    omega =     0.9034
    <Phe> =     0.0011
  
  Exciton analysis of the transition density matrix
    Trans. dipole moment [D]:             0.000000
      Cartesian components [D]:         [ -0.000000,  -0.000000,  -0.000000]
    <r_h> [Ang]:                        [ -0.000000,  -0.000000,   2.578594]
    <r_e> [Ang]:                        [  0.000000,  -0.000000,  -0.176248]
    |<r_e - r_h>| [Ang]:                  2.754842
    Hole size [Ang]:                      1.864277
      Cartesian components [Ang]:       [  0.926619,   0.895634,   1.347125]
    Electron size [Ang]:                  4.629123
      Cartesian components [Ang]:       [  3.051721,   3.014092,   1.740986]
    RMS electron-hole separation [Ang]:   5.699188
      Cartesian components [Ang]:       [  3.187697,   3.143966,   3.526301]
    Covariance(r_h, r_e) [Ang^2]:         0.006361
    Correlation coefficient:              0.000737
    Center-of-mass size [Ang]:            2.495848
      Cartesian components [Ang]:       [  1.595449,   1.572362,   1.100671]

  Decomposition into state-averaged NTOs
    H- 1 -> L+ 6:  0.4808 ( 46.2%)
    H- 1 -> L+ 0:  0.4316 ( 37.3%)
    H- 1 -> L+ 7: -0.1847 (  6.8%)
                   omega =  90.3%
  ----------------------------------------------------------------------------


  Excited state 2 (singlet, A2)                                    [converged]
  ----------------------------------------------------------------------------
  Term symbol:  2 (1) A2                                    R^2 =  1.01075e-10

  Total energy:                                            -78.6918650281 a.u.
  Excitation energy:                                               3.457541 eV

  Osc. strength:                                                      0.000000
  Trans. dip. moment [a.u.]:           [   0.000000,   -0.000000,   -0.000000]
  <i|r^2|0> [a.u.]:                    [   0.000000,    0.000000,    0.000000]

  Dip. moment [a.u.]:                  [  -0.000000,    0.000000,    0.577832]
  Total dipole [Debye]:                                               1.468702
  <r^2> [a.u.]:                        [  65.884250,   28.372386,   60.242659]
  Total <r^2> [a.u.]:                                               154.499296

  V1^2 = 0.9135, V2^2 = 0.0865

  Important amplitudes:
      occ i      occ j       vir a       vir b          v   
    ---------------------------------------------------------
     5 (A1) A               2 (A2) A                  0.6242
     5 (A1) A               1 (A2) A                 -0.1921
    ---------------------------------------------------------

  Density matrix analysis:
  ------------------------
  NOs
    Occupation of frontier NOs:
       0.9854   0.9917
    Number of electrons: 18.000000
    Number of unpaired electrons: n_u =  2.41189, n_u,nl =  2.04282
    NO participation ratio (PR_NO):  2.959371
  
  
  Mulliken Population Analysis
  Atom      Charge (e)              h+              e-           Del q
  --------------------------------------------------------------------
   1 C       -0.605644        0.313240       -0.544660       -0.231420
   2 C       -0.605644        0.313240       -0.544660       -0.231420
   3 H        0.073746        0.030169       -0.093342       -0.063173
   4 H        0.073746        0.030169       -0.093342       -0.063173
   5 H        0.009144        0.008198       -0.027116       -0.018918
   6 H        0.009144        0.008198       -0.027116       -0.018918
   7 H        0.045509        0.662872       -0.035849        0.627023
  --------------------------------------------------------------------
  Sum:       -1.000000        1.366085       -1.366085        0.000000
  
  Multipole moment analysis of the density matrix
    Molecular charge:                      -1.000000
    Number of electrons:                   18.000000
      Center of electronic charge [Ang]: [  0.000000,  -0.000000,  -0.016988]
    Total nuclear charge:                  17.000000
      Center of nuclear charge [Ang]:    [ -0.000000,   0.000000,   0.000000]
    Dipole moment [D]:                     1.468702
      Cartesian components [D]:          [ -0.000000,   0.000000,   1.468702]
    RMS size of the density [Ang]:         1.550251
      Cartesian components [Ang]:        [  1.012408,   0.664374,   0.967944]
  
  Exciton analysis of the difference density matrix
    <r_h> [Ang]:                  [ -0.000000,  -0.000000,   1.799964]
    <r_e> [Ang]:                  [ -0.000000,  -0.000000,   0.000353]
    |<r_e - r_h>| [Ang]:            1.799612
    Hole size [Ang]:                2.446974
      Cartesian components [Ang]: [  1.129692,   1.027410,   1.912042]
    Electron size [Ang]:            2.977185
      Cartesian components [Ang]: [  1.920955,   1.808911,   1.378914]

  Transition density matrix analysis:
  -----------------------------------
  
  CT numbers (Mulliken)
    omega =     0.8896
    <Phe> =    -0.0005
  
  Exciton analysis of the transition density matrix
    Trans. dipole moment [D]:             0.000000
      Cartesian components [D]:         [  0.000000,  -0.000000,  -0.000000]
    <r_h> [Ang]:                        [ -0.000000,  -0.000000,   2.569225]
    <r_e> [Ang]:                        [  0.000000,  -0.000000,  -0.175164]
    |<r_e - r_h>| [Ang]:                  2.744388
    Hole size [Ang]:                      1.860018
      Cartesian components [Ang]:       [  0.921248,   0.889124,   1.349232]
    Electron size [Ang]:                  3.110135
      Cartesian components [Ang]:       [  2.073424,   2.003886,   1.165459]
    RMS electron-hole separation [Ang]:   4.543164
      Cartesian components [Ang]:       [  2.264319,   2.191792,   3.272499]
    Covariance(r_h, r_e) [Ang^2]:         0.011967
    Correlation coefficient:              0.002069
    Center-of-mass size [Ang]:            1.813597
      Cartesian components [Ang]:       [  1.136709,   1.096386,   0.891608]

  Decomposition into state-averaged NTOs
    H- 1 -> L+ 0: -0.4993 ( 49.9%)
    H- 1 -> L+ 6:  0.4408 ( 38.9%)
                   omega =  89.0%
  ----------------------------------------------------------------------------


  Excited state 3 (singlet, A2)                                    [converged]
  ----------------------------------------------------------------------------
  Term symbol:  3 (1) A2                                    R^2 =  1.83579e-10

  Total energy:                                            -78.5892024258 a.u.
  Excitation energy:                                               6.251132 eV

  Osc. strength:                                                      0.000000
  Trans. dip. moment [a.u.]:           [   0.000000,    0.000000,   -0.000000]
  <i|r^2|0> [a.u.]:                    [  -0.000000,   -0.000000,   -0.000000]

  Dip. moment [a.u.]:                  [   0.000000,   -0.000000,   -1.408173]
  Total dipole [Debye]:                                               3.579219
  <r^2> [a.u.]:                        [  92.358667,   27.086624,   99.442205]
  Total <r^2> [a.u.]:                                               218.887496

  V1^2 = 0.9392, V2^2 = 0.0608

  Important amplitudes:
      occ i      occ j       vir a       vir b          v   
    ---------------------------------------------------------
     1 (B2) A               4 (B1) A                 -0.6613
     1 (B2) A               6 (B1) A                 -0.1303
    ---------------------------------------------------------

  Density matrix analysis:
  ------------------------
  NOs
    Occupation of frontier NOs:
       0.9824   0.9955
    Number of electrons: 18.000000
    Number of unpaired electrons: n_u =  2.36002, n_u,nl =  2.03085
    NO participation ratio (PR_NO):  2.835607
  
  
  Mulliken Population Analysis
  Atom      Charge (e)              h+              e-           Del q
  --------------------------------------------------------------------
   1 C       -0.509751        0.564334       -0.699861       -0.135527
   2 C       -0.509751        0.564334       -0.699861       -0.135527
   3 H        0.195049        0.071532       -0.013402        0.058130
   4 H        0.195049        0.071532       -0.013402        0.058130
   5 H        0.107689        0.117714       -0.038088        0.079627
   6 H        0.107689        0.117714       -0.038088        0.079627
   7 H       -0.585975        0.040298       -0.044759       -0.004461
  --------------------------------------------------------------------
  Sum:       -1.000000        1.547459       -1.547459       -0.000000
  
  Multipole moment analysis of the density matrix
    Molecular charge:                      -1.000000
    Number of electrons:                   18.000000
      Center of electronic charge [Ang]: [ -0.000000,   0.000000,   0.041399]
    Total nuclear charge:                  17.000000
      Center of nuclear charge [Ang]:    [ -0.000000,   0.000000,   0.000000]
    Dipole moment [D]:                     3.579218
      Cartesian components [D]:          [  0.000000,  -0.000000,  -3.579218]
    RMS size of the density [Ang]:         1.844871
      Cartesian components [Ang]:        [  1.198681,   0.649146,   1.243110]
  
  Exciton analysis of the difference density matrix
    <r_h> [Ang]:                  [ -0.000000,   0.000000,  -0.119227]
    <r_e> [Ang]:                  [ -0.000000,   0.000000,  -1.028766]
    |<r_e - r_h>| [Ang]:            0.909539
    Hole size [Ang]:                1.924666
      Cartesian components [Ang]: [  1.142648,   0.960874,   1.214668]
    Electron size [Ang]:            3.740406
      Cartesian components [Ang]: [  2.868345,   1.627082,   1.765173]

  Transition density matrix analysis:
  -----------------------------------
  
  CT numbers (Mulliken)
    omega =     0.9089
    <Phe> =    -0.0015
  
  Exciton analysis of the transition density matrix
    Trans. dipole moment [D]:             0.000000
      Cartesian components [D]:         [  0.000000,   0.000000,  -0.000000]
    <r_h> [Ang]:                        [  0.000000,   0.000000,  -0.183684]
    <r_e> [Ang]:                        [  0.000000,   0.000000,  -1.633945]
    |<r_e - r_h>| [Ang]:                  1.450261
    Hole size [Ang]:                      1.277730
      Cartesian components [Ang]:       [  0.764068,   0.881977,   0.520492]
    Electron size [Ang]:                  4.324719
      Cartesian components [Ang]:       [  3.471385,   1.947144,   1.691541]
    RMS electron-hole separation [Ang]:   4.731045
      Cartesian components [Ang]:       [  3.549946,   2.132243,   2.287839]
    Covariance(r_h, r_e) [Ang^2]:         0.028132
    Correlation coefficient:              0.005091
    Center-of-mass size [Ang]:            2.257878
      Cartesian components [Ang]:       [  1.779502,   1.071453,   0.885084]

  Decomposition into state-averaged NTOs
    H- 0 -> L+ 5:  0.5016 ( 50.3%)
    H- 0 -> L+ 2: -0.3725 ( 27.7%)
    H- 0 -> L+ 4: -0.2473 ( 12.2%)
                   omega =  90.9%
  ----------------------------------------------------------------------------


  Excited state 4 (singlet, A2)                                    [converged]
  ----------------------------------------------------------------------------
  Term symbol:  4 (1) A2                                    R^2 =  5.14842e-10

  Total energy:                                            -78.5384306017 a.u.
  Excitation energy:                                               7.632704 eV

  Osc. strength:                                                      0.000000
  Trans. dip. moment [a.u.]:           [   0.000000,    0.000000,   -0.000000]
  <i|r^2|0> [a.u.]:                    [   0.000000,    0.000000,    0.000000]

  Dip. moment [a.u.]:                  [   0.000000,   -0.000000,   -6.009751]
  Total dipole [Debye]:                                              15.275266
  <r^2> [a.u.]:                        [  91.091106,   26.237785,  113.343470]
  Total <r^2> [a.u.]:                                               230.672361

  V1^2 = 0.9391, V2^2 = 0.0609

  Important amplitudes:
      occ i      occ j       vir a       vir b          v   
    ---------------------------------------------------------
     1 (B2) A               5 (B1) A                 -0.6630
     1 (B2) A               4 (B1) A                  0.1009
    ---------------------------------------------------------

  Density matrix analysis:
  ------------------------
  NOs
    Occupation of frontier NOs:
       0.9843   0.9956
    Number of electrons: 18.000000
    Number of unpaired electrons: n_u =  2.35904, n_u,nl =  2.03058
    NO participation ratio (PR_NO):  2.827663
  
  
  Mulliken Population Analysis
  Atom      Charge (e)              h+              e-           Del q
  --------------------------------------------------------------------
   1 C       -0.513061        0.553604       -0.692442       -0.138837
   2 C       -0.513061        0.553604       -0.692442       -0.138837
   3 H        0.162848        0.087619       -0.061690        0.025929
   4 H        0.162848        0.087619       -0.061690        0.025929
   5 H        0.122968        0.102601       -0.007695        0.094906
   6 H        0.122968        0.102601       -0.007695        0.094906
   7 H       -0.545510        0.057598       -0.021594        0.036004
  --------------------------------------------------------------------
  Sum:       -1.000000        1.545249       -1.545249       -0.000000
  
  Multipole moment analysis of the density matrix
    Molecular charge:                      -1.000000
    Number of electrons:                   18.000000
      Center of electronic charge [Ang]: [ -0.000000,   0.000000,   0.176679]
    Total nuclear charge:                  17.000000
      Center of nuclear charge [Ang]:    [ -0.000000,   0.000000,   0.000000]
    Dipole moment [D]:                     15.275261
      Cartesian components [D]:          [  0.000000,  -0.000000, -15.275261]
    RMS size of the density [Ang]:         1.886104
      Cartesian components [Ang]:        [  1.190427,   0.638893,   1.316087]
  
  Exciton analysis of the difference density matrix
    <r_h> [Ang]:                  [ -0.000000,   0.000000,  -0.049528]
    <r_e> [Ang]:                  [ -0.000000,   0.000000,   0.615463]
    |<r_e - r_h>| [Ang]:            0.664991
    Hole size [Ang]:                1.862836
      Cartesian components [Ang]: [  1.117440,   0.925545,   1.168270]
    Electron size [Ang]:            4.071376
      Cartesian components [Ang]: [  2.819685,   1.558650,   2.489195]

  Transition density matrix analysis:
  -----------------------------------
  
  CT numbers (Mulliken)
    omega =     0.9087
    <Phe> =    -0.0006
  
  Exciton analysis of the transition density matrix
    Trans. dipole moment [D]:             0.000000
      Cartesian components [D]:         [  0.000000,   0.000000,  -0.000000]
    <r_h> [Ang]:                        [  0.000000,   0.000000,  -0.179894]
    <r_e> [Ang]:                        [ -0.000000,   0.000000,   0.926628]
    |<r_e - r_h>| [Ang]:                  1.106521
    Hole size [Ang]:                      1.282167
      Cartesian components [Ang]:       [  0.764318,   0.882300,   0.530393]
    Electron size [Ang]:                  4.870612
      Cartesian components [Ang]:       [  3.411287,   1.867446,   2.932342]
    RMS electron-hole separation [Ang]:   5.153970
      Cartesian components [Ang]:       [  3.491706,   2.064256,   3.179661]
    Covariance(r_h, r_e) [Ang^2]:         0.013896
    Correlation coefficient:              0.002225
    Center-of-mass size [Ang]:            2.519653
      Cartesian components [Ang]:       [  1.750008,   1.033255,   1.489466]

  Decomposition into state-averaged NTOs
    H- 0 -> L+ 4: -0.5613 ( 63.0%)
    H- 0 -> L+ 5: -0.3001 ( 18.0%)
    H- 0 -> L+ 1:  0.2206 (  9.7%)
                   omega =  90.9%
  ----------------------------------------------------------------------------


  Excited state 5 (singlet, A2)                                    [converged]
  ----------------------------------------------------------------------------
  Term symbol:  5 (1) A2                                    R^2 =  1.20757e-09

  Total energy:                                            -78.5308378312 a.u.
  Excitation energy:                                               7.839314 eV

  Osc. strength:                                                      0.000000
  Trans. dip. moment [a.u.]:           [  -0.000000,    0.000000,    0.000000]
  <i|r^2|0> [a.u.]:                    [   0.000000,    0.000000,   -0.000000]

  Dip. moment [a.u.]:                  [   0.000000,   -0.000000,    0.578653]
  Total dipole [Debye]:                                               1.470789
  <r^2> [a.u.]:                        [  67.969757,   31.123251,   60.711723]
  Total <r^2> [a.u.]:                                               159.804732

  V1^2 = 0.9105, V2^2 = 0.0895

  Important amplitudes:
      occ i      occ j       vir a       vir b          v   
    ---------------------------------------------------------
     5 (A1) A               3 (A2) A                 -0.6475
     5 (A1) A               2 (A2) A                  0.1799
    ---------------------------------------------------------

  Density matrix analysis:
  ------------------------
  NOs
    Occupation of frontier NOs:
       0.9780   0.9845
    Number of electrons: 18.000000
    Number of unpaired electrons: n_u =  2.44827, n_u,nl =  2.05700
    NO participation ratio (PR_NO):  3.088127
  
  
  Mulliken Population Analysis
  Atom      Charge (e)              h+              e-           Del q
  --------------------------------------------------------------------
   1 C       -0.631595        0.276044       -0.533415       -0.257371
   2 C       -0.631595        0.276044       -0.533415       -0.257371
   3 H        0.084925        0.024463       -0.076457       -0.051994
   4 H        0.084925        0.024463       -0.076457       -0.051994
   5 H        0.025457        0.006533       -0.009137       -0.002605
   6 H        0.025457        0.006533       -0.009137       -0.002605
   7 H        0.042424        0.663969       -0.040031        0.623938
  --------------------------------------------------------------------
  Sum:       -1.000000        1.278049       -1.278049        0.000000
  
  Multipole moment analysis of the density matrix
    Molecular charge:                      -1.000000
    Number of electrons:                   18.000000
      Center of electronic charge [Ang]: [ -0.000000,   0.000000,  -0.017012]
    Total nuclear charge:                  17.000000
      Center of nuclear charge [Ang]:    [ -0.000000,   0.000000,   0.000000]
    Dipole moment [D]:                     1.470788
      Cartesian components [D]:          [  0.000000,  -0.000000,   1.470788]
    RMS size of the density [Ang]:         1.576647
      Cartesian components [Ang]:        [  1.028307,   0.695837,   0.971705]
  
  Exciton analysis of the difference density matrix
    <r_h> [Ang]:                  [ -0.000000,  -0.000000,   1.948490]
    <r_e> [Ang]:                  [ -0.000000,   0.000000,   0.024576]
    |<r_e - r_h>| [Ang]:            1.923914
    Hole size [Ang]:                2.460247
      Cartesian components [Ang]: [  1.147022,   1.053787,   1.904387]
    Electron size [Ang]:            3.259186
      Cartesian components [Ang]: [  2.086323,   2.020513,   1.478875]

  Transition density matrix analysis:
  -----------------------------------
  
  CT numbers (Mulliken)
    omega =     0.8944
    <Phe> =    -0.0000
  
  Exciton analysis of the transition density matrix
    Trans. dipole moment [D]:             0.000000
      Cartesian components [D]:         [ -0.000000,   0.000000,   0.000000]
    <r_h> [Ang]:                        [ -0.000000,  -0.000000,   2.569492]
    <r_e> [Ang]:                        [ -0.000000,   0.000000,  -0.173965]
    |<r_e - r_h>| [Ang]:                  2.743458
    Hole size [Ang]:                      1.862280
      Cartesian components [Ang]:       [  0.922364,   0.890879,   1.350432]
    Electron size [Ang]:                  3.394922
      Cartesian components [Ang]:       [  2.238535,   2.208573,   1.279320]
    RMS electron-hole separation [Ang]:   4.745825
      Cartesian components [Ang]:       [  2.419682,   2.381125,   3.316360]
    Covariance(r_h, r_e) [Ang^2]:        -0.001357
    Correlation coefficient:             -0.000215
    Center-of-mass size [Ang]:            1.935902
      Cartesian components [Ang]:       [  1.211274,   1.190921,   0.928570]

  Decomposition into state-averaged NTOs
    H- 1 -> L+ 7:  0.6431 ( 82.7%)
    H- 1 -> L+ 6:  0.1587 (  5.0%)
    H- 1 -> L+ 0:  0.0867 (  1.5%)
                   omega =  89.4%
  ----------------------------------------------------------------------------


  Excited state 6 (singlet, A2)                                    [converged]
  ----------------------------------------------------------------------------
  Term symbol:  6 (1) A2                                    R^2 =  1.10139e-08

  Total energy:                                            -78.4752869660 a.u.
  Excitation energy:                                               9.350929 eV

  Osc. strength:                                                      0.000000
  Trans. dip. moment [a.u.]:           [  -0.000000,    0.000000,    0.000000]
  <i|r^2|0> [a.u.]:                    [  -0.000000,    0.000000,   -0.000000]

  Dip. moment [a.u.]:                  [   0.000000,    0.000000,   -3.966578]
  Total dipole [Debye]:                                              10.082039
  <r^2> [a.u.]:                        [  62.498760,   56.824094,   92.208869]
  Total <r^2> [a.u.]:                                               211.531723

  V1^2 = 0.9295, V2^2 = 0.0705

  Important amplitudes:
      occ i      occ j       vir a       vir b          v   
    ---------------------------------------------------------
     3 (B1) A               2 (B2) A                 -0.6684
     3 (B1) A               3 (B2) A                 -0.1294
    ---------------------------------------------------------

  Density matrix analysis:
  ------------------------
  NOs
    Occupation of frontier NOs:
       0.9962   1.0217
    Number of electrons: 18.000000
    Number of unpaired electrons: n_u =  2.50337, n_u,nl =  2.08013
    NO participation ratio (PR_NO):  3.179473
  
  
  Mulliken Population Analysis
  Atom      Charge (e)              h+              e-           Del q
  --------------------------------------------------------------------
   1 C       -0.713332        0.310356       -0.649463       -0.339107
   2 C       -0.713332        0.310356       -0.649463       -0.339107
   3 H        0.291971        0.178175       -0.023123        0.155052
   4 H        0.291971        0.178175       -0.023123        0.155052
   5 H        0.209755        0.192041       -0.010347        0.181694
   6 H        0.209755        0.192041       -0.010347        0.181694
   7 H       -0.576790        0.039802       -0.035078        0.004724
  --------------------------------------------------------------------
  Sum:       -1.000000        1.400945       -1.400945        0.000000
  
  Multipole moment analysis of the density matrix
    Molecular charge:                      -1.000000
    Number of electrons:                   18.000000
      Center of electronic charge [Ang]: [ -0.000000,  -0.000000,   0.116612]
    Total nuclear charge:                  17.000000
      Center of nuclear charge [Ang]:    [ -0.000000,   0.000000,   0.000000]
    Dipole moment [D]:                     10.082036
      Cartesian components [D]:          [  0.000000,   0.000000, -10.082036]
    RMS size of the density [Ang]:         1.810312
      Cartesian components [Ang]:        [  0.986054,   0.940224,   1.192018]
  
  Exciton analysis of the difference density matrix
    <r_h> [Ang]:                  [ -0.000000,   0.000000,  -0.042573]
    <r_e> [Ang]:                  [ -0.000000,   0.000000,  -0.080850]
    |<r_e - r_h>| [Ang]:            0.038277
    Hole size [Ang]:                1.987608
      Cartesian components [Ang]: [  1.258702,   0.787605,   1.321339]
    Electron size [Ang]:            3.871815
      Cartesian components [Ang]: [  1.805940,   2.910127,   1.805739]

  Transition density matrix analysis:
  -----------------------------------
  
  CT numbers (Mulliken)
    omega =     0.9142
    <Phe> =    -0.0003
  
  Exciton analysis of the transition density matrix
    Trans. dipole moment [D]:             0.000000
      Cartesian components [D]:         [ -0.000000,   0.000000,   0.000000]
    <r_h> [Ang]:                        [  0.000000,  -0.000000,  -0.124059]
    <r_e> [Ang]:                        [ -0.000000,   0.000000,  -0.176277]
    |<r_e - r_h>| [Ang]:                  0.052218
    Hole size [Ang]:                      1.523456
      Cartesian components [Ang]:       [  1.127813,   0.414348,   0.936629]
    Electron size [Ang]:                  4.402428
      Cartesian components [Ang]:       [  2.007852,   3.392912,   1.959097]
    RMS electron-hole separation [Ang]:   4.633118
      Cartesian components [Ang]:       [  2.250890,   3.417825,   2.172039]
    Covariance(r_h, r_e) [Ang^2]:         0.119619
    Correlation coefficient:              0.017835
    Center-of-mass size [Ang]:            2.342090
      Cartesian components [Ang]:       [  1.176898,   1.709206,   1.085776]

  Decomposition into state-averaged NTOs
    H- 3 -> L+ 3:  0.6755 ( 91.3%)
                   omega =  91.4%
  ----------------------------------------------------------------------------


  Excited state 7 (singlet, A2)                                    [converged]
  ----------------------------------------------------------------------------
  Term symbol:  7 (1) A2                                    R^2 =  3.29241e-08

  Total energy:                                            -78.4680082929 a.u.
  Excitation energy:                                               9.548992 eV

  Osc. strength:                                                      0.000000
  Trans. dip. moment [a.u.]:           [   0.000000,   -0.000000,   -0.000000]
  <i|r^2|0> [a.u.]:                    [   0.000000,    0.000000,   -0.000000]

  Dip. moment [a.u.]:                  [   0.000000,    0.000000,   -3.815312]
  Total dipole [Debye]:                                               9.697558
  <r^2> [a.u.]:                        [  62.639312,   22.803393,   86.606346]
  Total <r^2> [a.u.]:                                               172.049052

  V1^2 = 0.9500, V2^2 = 0.0500

  Important amplitudes:
      occ i      occ j       vir a       vir b          v   
    ---------------------------------------------------------
     4 (A1) A               2 (A2) A                 -0.5031
     1 (B2) A               6 (B1) A                  0.2864
    ---------------------------------------------------------

  Density matrix analysis:
  ------------------------
  NOs
    Occupation of frontier NOs:
       0.7650   1.2265
    Number of electrons: 18.000000
    Number of unpaired electrons: n_u =  2.41599, n_u,nl =  2.22355
    NO participation ratio (PR_NO):  4.409187
  
  
  Mulliken Population Analysis
  Atom      Charge (e)              h+              e-           Del q
  --------------------------------------------------------------------
   1 C       -0.519375        0.434762       -0.579913       -0.145151
   2 C       -0.519375        0.434762       -0.579913       -0.145151
   3 H        0.196582        0.070094       -0.010431        0.059663
   4 H        0.196582        0.070094       -0.010431        0.059663
   5 H        0.113035        0.082214        0.002760        0.084973
   6 H        0.113035        0.082214        0.002760        0.084973
   7 H       -0.580484        0.014039       -0.013009        0.001030
  --------------------------------------------------------------------
  Sum:       -1.000000        1.188178       -1.188178        0.000000
  
  Multipole moment analysis of the density matrix
    Molecular charge:                      -1.000000
    Number of electrons:                   18.000000
      Center of electronic charge [Ang]: [ -0.000000,  -0.000000,   0.112165]
    Total nuclear charge:                  17.000000
      Center of nuclear charge [Ang]:    [ -0.000000,   0.000000,   0.000000]
    Dipole moment [D]:                     9.697555
      Cartesian components [D]:          [  0.000000,   0.000000,  -9.697555]
    RMS size of the density [Ang]:         1.632180
      Cartesian components [Ang]:        [  0.987162,   0.595614,   1.155321]
  
  Exciton analysis of the difference density matrix
    <r_h> [Ang]:                  [ -0.000000,   0.000000,  -0.131012]
    <r_e> [Ang]:                  [ -0.000000,  -0.000000,  -0.243513]
    |<r_e - r_h>| [Ang]:            0.112501
    Hole size [Ang]:                1.646088
      Cartesian components [Ang]: [  1.150787,   0.722152,   0.929404]
    Electron size [Ang]:            2.526889
      Cartesian components [Ang]: [  1.826155,   1.325704,   1.137030]

  Transition density matrix analysis:
  -----------------------------------
  
  CT numbers (Mulliken)
    omega =     0.9183
    <Phe> =    -0.0100
  
  Exciton analysis of the transition density matrix
    Trans. dipole moment [D]:             0.000000
      Cartesian components [D]:         [  0.000000,  -0.000000,  -0.000000]
    <r_h> [Ang]:                        [ -0.000000,  -0.000000,  -0.155922]
    <r_e> [Ang]:                        [ -0.000000,  -0.000000,  -0.302222]
    |<r_e - r_h>| [Ang]:                  0.146300
    Hole size [Ang]:                      1.298058
      Cartesian components [Ang]:       [  1.014657,   0.555437,   0.588997]
    Electron size [Ang]:                  2.625141
      Cartesian components [Ang]:       [  1.929093,   1.395321,   1.105913]
    RMS electron-hole separation [Ang]:   2.919440
      Cartesian components [Ang]:       [  2.166260,   1.498688,   1.258722]
    Covariance(r_h, r_e) [Ang^2]:         0.037299
    Correlation coefficient:              0.010946
    Center-of-mass size [Ang]:            1.470622
      Cartesian components [Ang]:       [  1.096492,   0.752462,   0.627882]

  Decomposition into state-averaged NTOs
    H- 2 -> L+ 0:  0.5922 ( 70.1%)
    H- 0 -> L+ 2:  0.2553 ( 13.0%)
    H- 0 -> L+ 5:  0.1484 (  4.4%)
    H- 0 -> L+ 4: -0.1161 (  2.7%)
    H- 0 -> L+ 1: -0.0719 (  1.0%)
                   omega =  91.8%
  ----------------------------------------------------------------------------


  Excited state 8 (singlet, A2)                                    [converged]
  ----------------------------------------------------------------------------
  Term symbol:  8 (1) A2                                    R^2 =  3.21425e-08

  Total energy:                                            -78.4639070615 a.u.
  Excitation energy:                                               9.660592 eV

  Osc. strength:                                                      0.000000
  Trans. dip. moment [a.u.]:           [   0.000000,    0.000000,   -0.000000]
  <i|r^2|0> [a.u.]:                    [   0.000000,    0.000000,    0.000000]

  Dip. moment [a.u.]:                  [   0.000000,    0.000000,   -3.214091]
  Total dipole [Debye]:                                               8.169407
  <r^2> [a.u.]:                        [  78.486859,   24.996590,   91.558207]
  Total <r^2> [a.u.]:                                               195.041656

  V1^2 = 0.9457, V2^2 = 0.0543

  Important amplitudes:
      occ i      occ j       vir a       vir b          v   
    ---------------------------------------------------------
     1 (B2) A               6 (B1) A                 -0.5262
     4 (A1) A               2 (A2) A                 -0.2719
    ---------------------------------------------------------

  Density matrix analysis:
  ------------------------
  NOs
    Occupation of frontier NOs:
       0.7615   1.2038
    Number of electrons: 18.000000
    Number of unpaired electrons: n_u =  2.40686, n_u,nl =  2.22276
    NO participation ratio (PR_NO):  4.298042
  
  
  Mulliken Population Analysis
  Atom      Charge (e)              h+              e-           Del q
  --------------------------------------------------------------------
   1 C       -0.605836        0.484639       -0.716250       -0.231612
   2 C       -0.605836        0.484639       -0.716250       -0.231612
   3 H        0.202987        0.067458       -0.001390        0.066068
   4 H        0.202987        0.067458       -0.001390        0.066068
   5 H        0.193796        0.100687        0.065047        0.165734
   6 H        0.193796        0.100687        0.065047        0.165734
   7 H       -0.581893        0.026943       -0.027322       -0.000379
  --------------------------------------------------------------------
  Sum:       -1.000000        1.332510       -1.332510       -0.000000
  
  Multipole moment analysis of the density matrix
    Molecular charge:                      -1.000000
    Number of electrons:                   18.000000
      Center of electronic charge [Ang]: [ -0.000000,  -0.000000,   0.094490]
    Total nuclear charge:                  17.000000
      Center of nuclear charge [Ang]:    [ -0.000000,   0.000000,   0.000000]
    Dipole moment [D]:                     8.169405
      Cartesian components [D]:          [  0.000000,   0.000000,  -8.169405]
    RMS size of the density [Ang]:         1.739357
      Cartesian components [Ang]:        [  1.105003,   0.623599,   1.189729]
  
  Exciton analysis of the difference density matrix
    <r_h> [Ang]:                  [ -0.000000,   0.000000,  -0.125909]
    <r_e> [Ang]:                  [ -0.000000,  -0.000000,  -0.464985]
    |<r_e - r_h>| [Ang]:            0.339077
    Hole size [Ang]:                1.834000
      Cartesian components [Ang]: [  1.144157,   0.909508,   1.107816]
    Electron size [Ang]:            3.363054
      Cartesian components [Ang]: [  2.536185,   1.546033,   1.577238]

  Transition density matrix analysis:
  -----------------------------------
  
  CT numbers (Mulliken)
    omega =     0.9146
    <Phe> =    -0.0095
  
  Exciton analysis of the transition density matrix
    Trans. dipole moment [D]:             0.000000
      Cartesian components [D]:         [  0.000000,   0.000000,  -0.000000]
    <r_h> [Ang]:                        [ -0.000000,   0.000000,  -0.173475]
    <r_e> [Ang]:                        [ -0.000000,  -0.000000,  -0.655496]
    |<r_e - r_h>| [Ang]:                  0.482021
    Hole size [Ang]:                      1.276755
      Cartesian components [Ang]:       [  0.841678,   0.795412,   0.537589]
    Electron size [Ang]:                  3.687547
      Cartesian components [Ang]:       [  2.842304,   1.718809,   1.601563]
    RMS electron-hole separation [Ang]:   3.922218
      Cartesian components [Ang]:       [  2.956206,   1.889192,   1.753736]
    Covariance(r_h, r_e) [Ang^2]:         0.038331
    Correlation coefficient:              0.008141
    Center-of-mass size [Ang]:            1.956066
      Cartesian components [Ang]:       [  1.486193,   0.949332,   0.846281]

  Decomposition into state-averaged NTOs
    H- 0 -> L+ 2: -0.4778 ( 45.7%)
    H- 2 -> L+ 0:  0.3258 ( 21.2%)
    H- 0 -> L+ 5: -0.2670 ( 14.3%)
    H- 0 -> L+ 4:  0.1878 (  7.1%)
    H- 0 -> L+ 1:  0.1239 (  3.1%)
                   omega =  91.5%
  ----------------------------------------------------------------------------


  Excited state 9 (singlet, A2)                                    [converged]
  ----------------------------------------------------------------------------
  Term symbol:  9 (1) A2                                    R^2 =  8.18116e-10

  Total energy:                                            -78.4445980860 a.u.
  Excitation energy:                                              10.186016 eV

  Osc. strength:                                                      0.000000
  Trans. dip. moment [a.u.]:           [  -0.000000,   -0.000000,   -0.000000]
  <i|r^2|0> [a.u.]:                    [  -0.000000,    0.000000,    0.000000]

  Dip. moment [a.u.]:                  [   0.000000,   -0.000000,   10.242484]
  Total dipole [Debye]:                                              26.033803
  <r^2> [a.u.]:                        [ 114.901451,   75.928258,   66.576465]
  Total <r^2> [a.u.]:                                               257.406174

  V1^2 = 0.0000, V2^2 = 1.0000

  Important amplitudes:
      occ i      occ j       vir a       vir b          v   
    ---------------------------------------------------------
     5 (A1) A   5 (A1) B    4 (B1) A    2 (B2) B      0.3535
     5 (A1) A               3 (A2) A                  0.0030
    ---------------------------------------------------------

  Density matrix analysis:
  ------------------------
  NOs
    Occupation of frontier NOs:
       1.0003   1.0008
    Number of electrons: 18.000000
    Number of unpaired electrons: n_u =  2.41178, n_u,nl =  2.07168
    NO participation ratio (PR_NO):  2.885029
  
  
  Mulliken Population Analysis
  Atom      Charge (e)              h+              e-           Del q
  --------------------------------------------------------------------
   1 C       -1.184871        0.159741       -0.970388       -0.810647
   2 C       -1.184871        0.159741       -0.970388       -0.810647
   3 H        0.166135        0.025435        0.003781        0.029216
   4 H        0.166135        0.025435        0.003781        0.029216
   5 H       -0.004630        0.000674       -0.033365       -0.032692
   6 H       -0.004630        0.000674       -0.033365       -0.032692
   7 H        1.046732        1.628263       -0.000016        1.628246
  --------------------------------------------------------------------
  Sum:       -1.000000        1.999962       -1.999962        0.000000
  
  Multipole moment analysis of the density matrix
    Molecular charge:                      -1.000000
    Number of electrons:                   18.000000
      Center of electronic charge [Ang]: [ -0.000000,   0.000000,  -0.301116]
    Total nuclear charge:                  17.000000
      Center of nuclear charge [Ang]:    [ -0.000000,   0.000000,   0.000000]
    Dipole moment [D]:                     26.033795
      Cartesian components [D]:          [  0.000000,  -0.000000,  26.033795]
    RMS size of the density [Ang]:         1.978341
      Cartesian components [Ang]:        [  1.336988,   1.086842,   0.972146]
  
  Exciton analysis of the difference density matrix
    <r_h> [Ang]:                  [ -0.000000,  -0.000000,   2.646703]
    <r_e> [Ang]:                  [ -0.000000,   0.000000,  -1.139737]
    |<r_e - r_h>| [Ang]:            3.786440
    Hole size [Ang]:                1.697000
      Cartesian components [Ang]: [  0.862276,   0.838974,   1.196835]
    Electron size [Ang]:            4.769274
      Cartesian components [Ang]: [  3.042295,   2.979355,   2.147988]

  Transition density matrix analysis:
  -----------------------------------
  
  CT numbers (Mulliken)
    omega =     0.0001
    <Phe> =     0.1765
  
  Exciton analysis of the transition density matrix
    Trans. dipole moment [D]:             0.000000
      Cartesian components [D]:         [ -0.000000,  -0.000000,  -0.000000]
    <r_h> [Ang]:                        [  0.000000,   0.000000,   0.972012]
    <r_e> [Ang]:                        [  0.000000,   0.000000,  -0.873449]
    |<r_e - r_h>| [Ang]:                  1.845462
    Hole size [Ang]:                      2.974520
      Cartesian components [Ang]:       [  1.411847,   1.702088,   1.989310]
    Electron size [Ang]:                  4.553866
      Cartesian components [Ang]:       [  3.098751,   2.659517,   2.015543]
    RMS electron-hole separation [Ang]:   5.631218
      Cartesian components [Ang]:       [  3.393184,   3.081166,   3.271594]
    Covariance(r_h, r_e) [Ang^2]:         0.640294
    Correlation coefficient:              0.047270
    Center-of-mass size [Ang]:            2.777861
      Cartesian components [Ang]:       [  1.708614,   1.616066,   1.478338]

  Decomposition into state-averaged NTOs
                   omega =   0.0%
  ----------------------------------------------------------------------------


  Excited state 10 (singlet, A2)                                    [converged]
  ----------------------------------------------------------------------------
  Term symbol:  10 (1) A2                                   R^2 =  8.15575e-07

  Total energy:                                            -78.4377776717 a.u.
  Excitation energy:                                              10.371609 eV

  Osc. strength:                                                      0.000000
  Trans. dip. moment [a.u.]:           [  -0.000000,   -0.000000,    0.000000]
  <i|r^2|0> [a.u.]:                    [  -0.000000,   -0.000000,   -0.000000]

  Dip. moment [a.u.]:                  [  -0.000000,   -0.000000,   -3.815687]
  Total dipole [Debye]:                                               9.698512
  <r^2> [a.u.]:                        [  75.915692,   24.113938,   96.862205]
  Total <r^2> [a.u.]:                                               196.891836

  V1^2 = 0.9447, V2^2 = 0.0553

  Important amplitudes:
      occ i      occ j       vir a       vir b          v   
    ---------------------------------------------------------
     1 (B2) A               7 (B1) A                  0.6117
     1 (B2) A               6 (B1) A                 -0.2756
    ---------------------------------------------------------

  Density matrix analysis:
  ------------------------
  NOs
    Occupation of frontier NOs:
       0.9825   0.9936
    Number of electrons: 18.000000
    Number of unpaired electrons: n_u =  2.35663, n_u,nl =  2.03027
    NO participation ratio (PR_NO):  2.832599
  
  
  Mulliken Population Analysis
  Atom      Charge (e)              h+              e-           Del q
  --------------------------------------------------------------------
   1 C       -0.620705        0.543220       -0.789701       -0.246481
   2 C       -0.620705        0.543220       -0.789701       -0.246481
   3 H        0.229111        0.076464        0.015727        0.092191
   4 H        0.229111        0.076464        0.015727        0.092191
   5 H        0.180666        0.112906        0.039698        0.152604
   6 H        0.180666        0.112906        0.039698        0.152604
   7 H       -0.578143        0.034730       -0.031359        0.003371
  --------------------------------------------------------------------
  Sum:       -1.000000        1.499910       -1.499910        0.000000
  
  Multipole moment analysis of the density matrix
    Molecular charge:                      -1.000000
    Number of electrons:                   18.000000
      Center of electronic charge [Ang]: [  0.000000,   0.000000,   0.112176]
    Total nuclear charge:                  17.000000
      Center of nuclear charge [Ang]:    [ -0.000000,   0.000000,   0.000000]
    Dipole moment [D]:                     9.698509
      Cartesian components [D]:          [ -0.000000,  -0.000000,  -9.698509]
    RMS size of the density [Ang]:         1.746565
      Cartesian components [Ang]:        [  1.086753,   0.612490,   1.222422]
  
  Exciton analysis of the difference density matrix
    <r_h> [Ang]:                  [  0.000000,   0.000000,  -0.115882]
    <r_e> [Ang]:                  [  0.000000,   0.000000,  -0.204869]
    |<r_e - r_h>| [Ang]:            0.088987
    Hole size [Ang]:                1.841018
      Cartesian components [Ang]: [  1.110067,   0.935905,   1.131893]
    Electron size [Ang]:            3.308158
      Cartesian components [Ang]: [  2.302951,   1.449034,   1.881655]

  Transition density matrix analysis:
  -----------------------------------
  
  CT numbers (Mulliken)
    omega =     0.9139
    <Phe> =    -0.0013
  
  Exciton analysis of the transition density matrix
    Trans. dipole moment [D]:             0.000000
      Cartesian components [D]:         [ -0.000000,  -0.000000,   0.000000]
    <r_h> [Ang]:                        [ -0.000000,   0.000000,  -0.183722]
    <r_e> [Ang]:                        [  0.000000,   0.000000,  -0.342527]
    |<r_e - r_h>| [Ang]:                  0.158805
    Hole size [Ang]:                      1.276612
      Cartesian components [Ang]:       [  0.763771,   0.881016,   0.519810]
    Electron size [Ang]:                  3.851232
      Cartesian components [Ang]:       [  2.716495,   1.704091,   2.132772]
    RMS electron-hole separation [Ang]:   4.055985
      Cartesian components [Ang]:       [  2.817732,   1.915360,   2.200636]
    Covariance(r_h, r_e) [Ang^2]:         0.017964
    Correlation coefficient:              0.003654
    Center-of-mass size [Ang]:            2.030865
      Cartesian components [Ang]:       [  1.412955,   0.960681,   1.097754]

  Decomposition into state-averaged NTOs
    H- 0 -> L+ 1:  0.6205 ( 77.0%)
    H- 0 -> L+ 4:  0.1700 (  5.8%)
    H- 0 -> L+ 2:  0.1572 (  4.9%)
    H- 0 -> L+ 5:  0.1344 (  3.6%)
                   omega =  91.4%
  ----------------------------------------------------------------------------


--------------------------------------------------------------------------------
  Time of ADC calculation:  CPU 139.06 s  wall 40.31 s
================================================================================
 
 --------------------------------------------------------------
             Orbital Energies (a.u.) and Symmetries
 --------------------------------------------------------------
 
 Alpha MOs, Restricted
 -- Occupied --                  
-11.071 -11.069  -0.877  -0.619  -0.494  -0.404  -0.348  -0.214
  1 A1    1 B1    2 A1    2 B1    3 A1    4 A1    3 B1    1 B2                 
 -0.034
  5 A1                                                                         
 -- Virtual --                   
  0.142   0.163   0.167   0.169   0.176   0.183   0.261   0.284
  4 B1    2 B2    6 A1    1 A2    7 A1    5 B1    8 A1    2 A2                 
  0.311   0.331   0.339   0.363   0.370   0.378   0.445   0.472
  6 B1    7 B1    9 A1    3 B2    8 B1   10 A1    3 A2   11 A1                 
  0.502   0.506   0.659   0.696   0.878   0.978   1.029   1.032
 12 A1    9 B1   10 B1   11 B1   13 A1   14 A1   15 A1   16 A1                 
  1.081   1.088   1.116   1.130   1.145   1.228   1.241   1.280
  4 B2   12 B1   17 A1    4 A2   13 B1   14 B1   18 A1    5 B2                 
  1.447   1.450   1.473   1.516   1.774   1.779   1.877   1.884
  6 B2    5 A2   15 B1   16 B1   19 A1   17 B1   20 A1    7 B2                 
  1.933   1.978   2.020   2.083   2.103   2.171   2.186   2.237
 18 B1   21 A1    6 A2   19 B1    8 B2   22 A1    9 B2   23 A1                 
  2.336   2.480   2.578   2.623   2.725   2.748   2.963   2.992
  7 A2   20 B1    8 A2   24 A1   21 B1   22 B1   25 A1   26 A1                 
  3.412   3.508
 23 B1   24 B1                                                                 
 
 Beta MOs, Restricted
 -- Occupied --                  
-11.071 -11.069  -0.877  -0.619  -0.494  -0.404  -0.348  -0.214
  1 A1    1 B1    2 A1    2 B1    3 A1    4 A1    3 B1    1 B2                 
 -0.034
  5 A1                                                                         
 -- Virtual --                   
  0.142   0.163   0.167   0.169   0.176   0.183   0.261   0.284
  4 B1    2 B2    6 A1    1 A2    7 A1    5 B1    8 A1    2 A2                 
  0.311   0.331   0.339   0.363   0.370   0.378   0.445   0.472
  6 B1    7 B1    9 A1    3 B2    8 B1   10 A1    3 A2   11 A1                 
  0.502   0.506   0.659   0.696   0.878   0.978   1.029   1.032
 12 A1    9 B1   10 B1   11 B1   13 A1   14 A1   15 A1   16 A1                 
  1.081   1.088   1.116   1.130   1.145   1.228   1.241   1.280
  4 B2   12 B1   17 A1    4 A2   13 B1   14 B1   18 A1    5 B2                 
  1.447   1.450   1.473   1.516   1.774   1.779   1.877   1.884
  6 B2    5 A2   15 B1   16 B1   19 A1   17 B1   20 A1    7 B2                 
  1.933   1.978   2.020   2.083   2.103   2.171   2.186   2.237
 18 B1   21 A1    6 A2   19 B1    8 B2   22 A1    9 B2   23 A1                 
  2.336   2.480   2.578   2.623   2.725   2.748   2.963   2.992
  7 A2   20 B1    8 A2   24 A1   21 B1   22 B1   25 A1   26 A1                 
  3.412   3.508
 23 B1   24 B1                                                                 
 --------------------------------------------------------------
 
          Ground-State Mulliken Net Atomic Charges

     Atom                 Charge (a.u.)
  ----------------------------------------
      1 C                    -0.342882
      2 C                    -0.342882
      3 H                     0.139374
      4 H                     0.139374
      5 H                     0.020450
      6 H                     0.020450
      7 H                    -0.633884
  ----------------------------------------
  Sum of atomic charges =    -1.000000

 -----------------------------------------------------------------
                    Cartesian Multipole Moments
 -----------------------------------------------------------------
    Charge (ESU x 10^10)
                -4.8032
    Dipole Moment (Debye)
         X       0.0000      Y       0.0000      Z     -10.8048
       Tot      10.8048
    Quadrupole Moments (Debye-Ang)
        XX     -20.6424     XY      -0.0000     YY     -23.2674
        XZ       0.0000     YZ      -0.0000     ZZ     -55.3209
    Octopole Moments (Debye-Ang^2)
       XXX       0.0000    XXY       0.0000    XYY       0.0000
       YYY       0.0000    XXZ      -6.8588    XYZ       0.0000
       YYZ     -10.2378    XZZ       0.0000    YZZ       0.0000
       ZZZ    -118.0951
    Hexadecapole Moments (Debye-Ang^3)
      XXXX    -117.1434   XXXY      -0.0000   XXYY     -28.9145
      XYYY      -0.0000   YYYY     -58.1120   XXXZ      -0.0000
      XXYZ       0.0000   XYYZ       0.0000   YYYZ      -0.0000
      XXZZ     -77.1460   XYZZ      -0.0000   YYZZ     -69.4588
      XZZZ       0.0000   YZZZ      -0.0000   ZZZZ    -598.5259
 -----------------------------------------------------------------
 Total job time:  123.23s(wall), 184.42s(cpu) 
 Sun Mar 27 17:16:58 2022

        *************************************************************
        *                                                           *
        *  Thank you very much for using Q-Chem.  Have a nice day.  *
        *                                                           *
        *************************************************************


