/src/tsommerfeld/qchem/exe/qcprog.exe .input0.583333.31861.qcin.1 /src/jdavis/qchem.scratch/qchem31861/

                  Welcome to Q-Chem
     A Quantum Leap Into The Future Of Chemistry


 Q-Chem 5.4 (devel), Q-Chem, Inc., Pleasanton, CA (2021)

 E. Epifanovsky,  A. T. B. Gilbert,  Xintian Feng,  Joonho Lee,  Yuezhi Mao,  
 N. Mardirossian,  P. Pokhilko,  A. White,  M. Wormit,  M. P. Coons,  
 A. L. Dempwolff,  Zhengting Gan,  D. Hait,  P. R. Horn,  L. D. Jacobson,  
 I. Kaliman,  J. Kussmann,  A. W. Lange,  Ka Un Lao,  D. S. Levine,  Jie Liu,  
 S. C. McKenzie,  A. F. Morrison,  K. Nanda,  F. Plasser,  D. R. Rehn,  
 M. L. Vidal,  Zhi-Qiang You,  Ying Zhu,  B. Alam,  B. Albrecht,  
 A. Aldossary,  E. Alguire,  J. H. Andersen,  D. Barton,  K. Begam,  A. Behn,  
 Y. A. Bernard,  E. J. Berquist,  H. Burton,  A. Carreras,  K. Carter-Fenk,  
 R. Chakraborty,  A. D. Chien,  K. D. Closser,  V. Cofer-Shabica,  
 S. Dasgupta,  Jia Deng,  M. de Wergifosse,  M. Diedenhofen,  Hainam Do,  
 S. Ehlert,  Po-Tung Fang,  S. Fatehi,  Qingguo Feng,  T. Friedhoff,  
 J. Gayvert,  Qinghui Ge,  G. Gidofalvi,  M. Goldey,  J. Gomes,  
 C. Gonzalez-Espinoza,  S. Gulania,  A. Gunina,  M. W. D. Hanson-Heine,  
 P. H. P. Harbach,  A. W. Hauser,  M. F. Herbst,  M. Hernandez Vera,  
 M. Hodecker,  Z. C. Holden,  S. Houck,  Xunkun Huang,  Kerwin Hui,  
 B. C. Huynh,  M. Ivanov,  Hyunjun Ji,  Hanjie Jiang,  B. Kaduk,  S. Kaehler,  
 K. Khistyaev,  Jaehoon Kim,  P. Klunzinger,  Z. Koczor-Benda,  
 Joong Hoon Koh,  D. Kosenkov,  L. Koulias,  T. Kowalczyk,  C. M. Krauter,  
 K. Kue,  A. Kunitsa,  T. Kus,  A. Landau,  K. V. Lawler,  D. Lefrancois,  
 S. Lehtola,  Rain Li,  Yi-Pei Li,  Jiashu Liang,  M. Liebenthal,  
 Hung-Hsuan Lin,  You-Sheng Lin,  Fenglai Liu,  Kuan-Yu Liu,  
 M. Loipersberger,  A. Luenser,  A. Manjanath,  P. Manohar,  E. Mansoor,  
 S. F. Manzer,  Shan-Ping Mao,  A. V. Marenich,  T. Markovich,  S. Mason,  
 S. A. Maurer,  P. F. McLaughlin,  M. F. S. J. Menger,  J.-M. Mewes,  
 S. A. Mewes,  P. Morgante,  J. W. Mullinax,  K. J. Oosterbaan,  G. Paran,  
 Alexander C. Paul,  Suranjan K. Paul,  F. Pavosevic,  Zheng Pei,  S. Prager,  
 E. I. Proynov,  E. Ramos,  B. Rana,  A. E. Rask,  A. Rettig,  R. M. Richard,  
 F. Rob,  E. Rossomme,  T. Scheele,  M. Scheurer,  M. Schneider,  
 N. Sergueev,  S. M. Sharada,  W. Skomorowski,  D. W. Small,  C. J. Stein,  
 Yu-Chuan Su,  E. J. Sundstrom,  Zhen Tao,  J. Thirman,  T. Tsuchimochi,  
 N. M. Tubman,  S. P. Veccham,  O. Vydrov,  J. Wenzel,  J. Witte,  A. Yamada,  
 Kun Yao,  S. Yeganeh,  S. R. Yost,  A. Zech,  Igor Ying Zhang,  Xing Zhang,  
 Yu Zhang,  D. Zuev,  A. Aspuru-Guzik,  A. T. Bell,  N. A. Besley,  
 K. B. Bravaya,  B. R. Brooks,  D. Casanova,  Jeng-Da Chai,  S. Coriani,  
 C. J. Cramer,  A. E. DePrince, III,  R. A. DiStasio Jr.,  A. Dreuw,  
 B. D. Dunietz,  T. R. Furlani,  W. A. Goddard III,  S. Grimme,  
 S. Hammes-Schiffer,  T. Head-Gordon,  W. J. Hehre,  Chao-Ping Hsu,  
 T.-C. Jagau,  Yousung Jung,  A. Klamt,  Jing Kong,  D. S. Lambrecht,  
 WanZhen Liang,  N. J. Mayhall,  C. W. McCurdy,  J. B. Neaton,  
 C. Ochsenfeld,  J. A. Parkhill,  R. Peverati,  V. A. Rassolov,  Yihan Shao,  
 L. V. Slipchenko,  T. Stauch,  R. P. Steele,  J. E. Subotnik,  
 A. J. W. Thom,  A. Tkatchenko,  D. G. Truhlar,  T. Van Voorhis,  
 T. A. Wesolowski,  K. B. Whaley,  H. L. Woodcock III,  P. M. Zimmerman,  
 S. Faraji,  P. M. W. Gill,  M. Head-Gordon,  J. M. Herbert,  A. I. Krylov

 Additional authors for Version 5.4.1: 
 S. Kotaru,  Shaozhi Li,  Xiangyuan Li,  F. Matz,  A. Molle,  Haisheng Ren,  
 Yingli Su,  Hung-Yi Tsai,  C. Utku,  Fang Wang

 Contributors to earlier versions of Q-Chem not listed above: 
 R. D. Adamson,  B. Austin,  R. Baer,  J. Baker,  G. J. O. Beran,  
 K. Brandhorst,  S. T. Brown,  E. F. C. Byrd,  A. K. Chakraborty,  
 G. K. L. Chan,  Chun-Min Chang,  Yunqing Chen,  C.-L. Cheng,  
 Siu Hung Chien,  D. M. Chipman,  D. L. Crittenden,  H. Dachsel,  
 R. J. Doerksen,  A. D. Dutoi,  R. G. Edgar,  J. Fosso-Tande,  
 L. Fusti-Molnar,  D. Ghosh,  A. Ghysels,  A. Golubeva-Zadorozhnaya,  
 J. Gonthier,  M. S. Gordon,  S. R. Gwaltney,  G. Hawkins,  J. E. Herr,  
 A. Heyden,  S. Hirata,  E. G. Hohenstein,  G. Kedziora,  F. J. Keil,  
 C. Kelley,  Jihan Kim,  R. A. King,  R. Z. Khaliullin,  P. P. Korambath,  
 W. Kurlancheek,  A. Laurent,  A. M. Lee,  M. S. Lee,  S. V. Levchenko,  
 Ching Yeh Lin,  D. Liotard,  E. Livshits,  R. C. Lochan,  I. Lotan,  
 L. A. Martinez-Martinez,  P. E. Maslen,  N. Nair,  D. P. O'Neill,  
 D. Neuhauser,  E. Neuscamman,  C. M. Oana,  R. Olivares-Amaya,  R. Olson,  
 T. M. Perrine,  B. Peters,  P. A. Pieniazek,  A. Prociuk,  Y. M. Rhee,  
 J. Ritchie,  M. A. Rohrdanz,  E. Rosta,  N. J. Russ,  H. F. Schaefer III,  
 M. W. Schmidt,  N. E. Schultz,  S. Sharma,  N. Shenvi,  C. D. Sherrill,  
 A. C. Simmonett,  A. Sodt,  T. Stein,  D. Stuck,  K. S. Thanthiriwatte,  
 V. Vanovschi,  L. Vogt,  Tao Wang,  A. Warshel,  M. A. Watson,  
 C. F. Williams,  Q. Wu,  X. Xu,  Jun Yang,  W. Zhang,  Yan Zhao

 Please cite Q-Chem as follows:
 Y. Shao et al., Mol. Phys. 113, 184-215 (2015)
 DOI: 10.1080/00268976.2014.952696

 Q-Chem 5.4.1 for Intel X86 EM64T Linux

 Parts of Q-Chem use Armadillo 9.900.5 (Nocturnal Misbehaviour).
 http://arma.sourceforge.net/

 Q-Chem begins on Sun Mar 27 16:58:35 2022  

 Host: node01
0

     Scratch files written to /src/jdavis/qchem.scratch/qchem31861//
 Processing $rem in /src/tsommerfeld/qchem/config/preferences:
 Processing $rem in /home/jdavis/.qchemrc:

 Checking the input file for inconsistencies... 	...done.

--------------------------------------------------------------
User input:
--------------------------------------------------------------
$molecule
-1 1
C        -0.6645000000    0.0000000000   -0.1764707059
C         0.6645000000    0.0000000000   -0.1764707059
H        -1.1590800000    0.0000000000    0.7858782941
H         1.1590800000    0.0000000000    0.7858782941
H        -1.1590800000    0.0000000000   -1.1388187059
H         1.1590800000    0.0000000000   -1.1388187059
H         0.0000000000    0.0000000000    2.8235292941
$end

$rem
   METHOD adc(2)
   BASIS gen
   PURECART 11
   EE_STATES [0,10,0,0]
   scf_convergence 8
   ADC_DAVIDSON_MAXITER 120
   ADC_DAVIDSON_MAXSUBSPACE 200
   adc_nguess_singles 100
   THRESH 14
   S2THRESH 14
   adc_davidson_conv 5
   adc_davidson_thresh 14
   THREADS 10
   MEM_TOTAL 95000
   STATE_ANALYSIS TRUE
$end
$basis
C 1
S   9   1.00
      6.665000D+03           6.920000D-04
      1.000000D+03           5.329000D-03
      2.280000D+02           2.707700D-02
      6.471000D+01           1.017180D-01
      2.106000D+01           2.747400D-01
      7.495000D+00           4.485640D-01
      2.797000D+00           2.850740D-01
      5.215000D-01           1.520400D-02
      1.596000D-01          -3.191000D-03
S   9   1.00
      6.665000D+03          -1.460000D-04
      1.000000D+03          -1.154000D-03
      2.280000D+02          -5.725000D-03
      6.471000D+01          -2.331200D-02
      2.106000D+01          -6.395500D-02
      7.495000D+00          -1.499810D-01
      2.797000D+00          -1.272620D-01
      5.215000D-01           5.445290D-01
      1.596000D-01           5.804960D-01
S   1   1.00
      1.596000D-01           1.000000D+00
S   1   1.00
      0.0469000              1.0000000
P   4   1.00
      9.439000D+00           3.810900D-02
      2.002000D+00           2.094800D-01
      5.456000D-01           5.085570D-01
      1.517000D-01           4.688420D-01
P   1   1.00
      1.517000D-01           1.000000D+00
P   1   1.00
      0.0353967      1.0000000
P   1   1.00
      0.0176983      1.0000000
D   1   1.00
      5.500000D-01           1.0000000
****
C 2
S   9   1.00
      6.665000D+03           6.920000D-04
      1.000000D+03           5.329000D-03
      2.280000D+02           2.707700D-02
      6.471000D+01           1.017180D-01
      2.106000D+01           2.747400D-01
      7.495000D+00           4.485640D-01
      2.797000D+00           2.850740D-01
      5.215000D-01           1.520400D-02
      1.596000D-01          -3.191000D-03
S   9   1.00
      6.665000D+03          -1.460000D-04
      1.000000D+03          -1.154000D-03
      2.280000D+02          -5.725000D-03
      6.471000D+01          -2.331200D-02
      2.106000D+01          -6.395500D-02
      7.495000D+00          -1.499810D-01
      2.797000D+00          -1.272620D-01
      5.215000D-01           5.445290D-01
      1.596000D-01           5.804960D-01
S   1   1.00
      1.596000D-01           1.000000D+00
S   1   1.00
      0.0469000              1.0000000
P   4   1.00
      9.439000D+00           3.810900D-02
      2.002000D+00           2.094800D-01
      5.456000D-01           5.085570D-01
      1.517000D-01           4.688420D-01
P   1   1.00
      1.517000D-01           1.000000D+00
P   1   1.00
      0.0353967      1.0000000
P   1   1.00
      0.0176983      1.0000000
D   1   1.00
      5.500000D-01           1.0000000
****
H 3
cc-pVDZ
****
H 4
cc-pVDZ
****
H 5
cc-pVDZ
****
H 6
cc-pVDZ
****
H 7
aug-cc-pVDZ
****
$end
--------------------------------------------------------------
 ----------------------------------------------------------------
             Standard Nuclear Orientation (Angstroms)
    I     Atom           X                Y                Z
 ----------------------------------------------------------------
    1      C      -0.6645000000    -0.0000000000    -0.1764707059
    2      C       0.6645000000     0.0000000000    -0.1764707059
    3      H      -1.1590800000    -0.0000000000     0.7858782941
    4      H       1.1590800000     0.0000000000     0.7858782941
    5      H      -1.1590800000    -0.0000000000    -1.1388187059
    6      H       1.1590800000     0.0000000000    -1.1388187059
    7      H       0.0000000000     0.0000000000     2.8235292941
 ----------------------------------------------------------------
 Molecular Point Group                 C2v   NOp =  4
 Largest Abelian Subgroup              C2v   NOp =  4
 Nuclear Repulsion Energy =          36.36366470 hartrees
 There are        9 alpha and        9 beta electrons
 Requested basis set is non-standard
 There are 33 shells and 67 basis functions
 Total memory of 95000 MB is distributed as follows: 
   MEM_STATIC is set to 192 MB
   QALLOC/CCMAN JOB total memory use is  94808 MB
 Warning: actual memory use might exceed 95000 MB

 Total QAlloc Memory Limit  95000 MB
 Mega-Array Size       188 MB
 MEM_STATIC part       192 MB

                       Distance Matrix (Angstroms)
             C (  1)   C (  2)   H (  3)   H (  4)   H (  5)   H (  6)
   C (  2)  1.329000
   H (  3)  1.082000  2.061931
   H (  4)  2.061931  1.082000  2.318160
   H (  5)  1.082000  2.061931  1.924697  3.013026
   H (  6)  2.061931  1.082000  3.013026  1.924697  2.318160
   H (  7)  3.072712  3.072712  2.344246  2.344246  4.128398  4.128398

 
 A cutoff of  1.0D-14 yielded    561 shell pairs
 There are      2337 function pairs (      2484 Cartesian)
 Smallest overlap matrix eigenvalue = 5.34E-04

 Scale SEOQF with 1.000000e-01/1.000000e-01/1.000000e-01

 Standard Electronic Orientation quadrupole field applied
 Nucleus-field energy     =    -0.0000000009 hartrees
 ================ Generating on-the-fly SAD Guess ================
Attempting to make child job directory: /src/jdavis/qchem.scratch/qchem31861//Frg1/
Attempting to make child job directory: /src/jdavis/qchem.scratch/qchem31861//Frg2/
Creating input file /src/jdavis/qchem.scratch/qchem31861/Frg1.input
using default PutDataFrgm: nothing
calling putenv with: QCSCRATCH=/src/jdavis/qchem.scratch/qchem31861/ 
Spawning Job For Fragment 0
Done Job For Fragment 0
calling putenv with: QCSCRATCH=/src/jdavis/qchem.scratch 
calling putenv with: QCTHREADS=1 
Creating input file /src/jdavis/qchem.scratch/qchem31861/Frg2.input
using default PutDataFrgm: nothing
calling putenv with: QCSCRATCH=/src/jdavis/qchem.scratch/qchem31861/ 
Spawning Job For Fragment 1
Done Job For Fragment 1
calling putenv with: QCSCRATCH=/src/jdavis/qchem.scratch 
calling putenv with: QCTHREADS=1 
 Time for running child jobs:  CPU 1.81 s  wall 54.46 s
 ============= Method Specific SAD Guess Constructed =============
 Guess from on-the-fly superposition of atomic densities
 Warning: Energy on first SCF cycle will be non-variational
 A restricted Hartree-Fock SCF calculation will be
 performed using Pulay DIIS extrapolation
 SCF converges when DIIS error is below 1.0E-08
 using 10 threads for integral computing
 -------------------------------------------------------
 OpenMP Integral computing Module                
 Release: version 1.0, May 2013, Q-Chem Inc. Pittsburgh 
 -------------------------------------------------------
 ---------------------------------------
  Cycle       Energy         DIIS Error
 ---------------------------------------
    1     -78.8141451106      7.37E-02
    2     -78.4607391676      6.97E-03
    3     -78.5117460532      1.75E-03
    4     -78.5144241529      5.50E-04
    5     -78.5147398753      1.22E-04
    6     -78.5147650558      2.82E-05
    7     -78.5147671649      7.54E-06
    8     -78.5147673737      1.16E-06
    9     -78.5147673799      2.73E-07
   10     -78.5147673804      5.74E-08
   11     -78.5147673805      1.13E-08
   12     -78.5147673805      1.63E-09 Convergence criterion met
 ---------------------------------------
 SCF time:  CPU 11.25 s  wall 1.13 s
 SCF   energy in the final basis set = -78.51476738
 Total energy in the final basis set = -78.51476738
================================================================================
|                                                                              |
|                                 A D C  M A N                                 |
|                                                                              |
 ------------------------------------------------------------------------------ 
|                                                                              |
| Components:                                                                  |
|                                                                              |
| - libvmm - 1.3-trunk                                                         |
|   Authors:                                                                   |
|   Evgeny Epifanovsky, Ilya Kaliman                                           |
|                                                                              |
| - libtensor - 2.5-trunk                                                      |
|   Authors:                                                                   |
|   Evgeny Epifanovsky, Michael Wormit, Dmitry Zuev, Sam Manzer,               |
|   Ilya Kaliman                                                               |
|                                                                              |
| - libwfa - 1.1-trunk                                                         |
|   Authors:                                                                   |
|   Felix Plasser, Stefanie Mewes (Baeppler), Benjamin Thomitzni,              |
|   Michael Wormit, Feng Chen, Anna I. Krylov, Pavel Pokhilko                  |
|                                                                              |
| - libadc - 1.1-trunk                                                         |
|   Authors:                                                                   |
|   Michael Wormit, Adrian L. Dempwolff, Philipp H. P. Harbach,                |
|   Caroline Krauter, Dirk Rehn, Matthias Schneider, Jan Wenzel                |
|                                                                              |
| - adcman - 2.6-trunk                                                         |
|   Authors:                                                                   |
|   Michael Wormit, Adrian L. Dempwolff, Philipp H. P. Harbach,                |
|   Caroline Krauter, Daniel Lefrancois, Jan-Michael Mewes, Dirk Rehn,         |
|   Matthias Schneider, Jan Wenzel, Andreas Dreuw                              |
|                                                                              |
| Authors of earlier versions of ADCMAN:                                       |
| Andreas Dreuw, Jan Hendrik Starcke, Dirk Rehn, Michael Wormit                |
|                                                                              |
================================================================================

 
 Alpha MOs, Restricted
 -- Occupied --                  
-11.073 -11.071  -0.879  -0.621  -0.496  -0.407  -0.350  -0.216
  1 A1    1 B1    2 A1    2 B1    3 A1    4 A1    3 B1    1 B2                 
 -0.038
  5 A1                                                                         
 -- Virtual --                   
  0.114   0.136   0.138   0.140   0.151   0.163   0.221   0.221
  4 B1    2 B2    6 A1    1 A2    5 B1    7 A1    6 B1    8 A1                 
  0.254   0.281   0.291   0.295   0.341   0.386   0.419   0.453
  2 A2    9 A1    7 B1    3 B2   10 A1    3 A2    8 B1   11 A1                 
  0.494   0.499   0.596   0.658   0.809   0.904   0.995   1.013
 12 A1    9 B1   10 B1   11 B1   13 A1   14 A1    4 B2   15 A1                 
  1.032   1.056   1.087   1.114   1.153   1.191   1.227   1.278
 16 A1    4 A2   12 B1   17 A1   13 B1   14 B1   18 A1    5 B2                 
  1.444   1.448   1.460   1.512   1.768   1.777   1.860   1.875
  6 B2    5 A2   15 B1   16 B1   19 A1   17 B1   20 A1    7 B2                 
  1.923   1.959   2.007   2.084   2.098   2.135   2.184   2.213
 18 B1   21 A1    6 A2   19 B1    8 B2   22 A1    9 B2   23 A1                 
  2.330   2.435   2.576   2.609   2.700   2.744   2.963   2.986
  7 A2   20 B1    8 A2   24 A1   21 B1   22 B1   25 A1   26 A1                 
  3.423   3.506
 23 B1   24 B1                                                                 
 
 Beta MOs, Restricted
 -- Occupied --                  
-11.073 -11.071  -0.879  -0.621  -0.496  -0.407  -0.350  -0.216
  1 A1    1 B1    2 A1    2 B1    3 A1    4 A1    3 B1    1 B2                 
 -0.038
  5 A1                                                                         
 -- Virtual --                   
  0.114   0.136   0.138   0.140   0.151   0.163   0.221   0.221
  4 B1    2 B2    6 A1    1 A2    5 B1    7 A1    6 B1    8 A1                 
  0.254   0.281   0.291   0.295   0.341   0.386   0.419   0.453
  2 A2    9 A1    7 B1    3 B2   10 A1    3 A2    8 B1   11 A1                 
  0.494   0.499   0.596   0.658   0.809   0.904   0.995   1.013
 12 A1    9 B1   10 B1   11 B1   13 A1   14 A1    4 B2   15 A1                 
  1.032   1.056   1.087   1.114   1.153   1.191   1.227   1.278
 16 A1    4 A2   12 B1   17 A1   13 B1   14 B1   18 A1    5 B2                 
  1.444   1.448   1.460   1.512   1.768   1.777   1.860   1.875
  6 B2    5 A2   15 B1   16 B1   19 A1   17 B1   20 A1    7 B2                 
  1.923   1.959   2.007   2.084   2.098   2.135   2.184   2.213
 18 B1   21 A1    6 A2   19 B1    8 B2   22 A1    9 B2   23 A1                 
  2.330   2.435   2.576   2.609   2.700   2.744   2.963   2.986
  7 A2   20 B1    8 A2   24 A1   21 B1   22 B1   25 A1   26 A1                 
  3.423   3.506
 23 B1   24 B1                                                                 

--------------------------------------------------------------------------------
                                   HF Summary                                   
--------------------------------------------------------------------------------
  Energy:                                                  -78.5147673805 a.u.
  Dip. moment [a.u.]:                  [  -0.000000,   -0.000000,   -4.248510]
  Total dipole [Debye]:                                              10.798639
  <r^2> [a.u.]:                        [  54.773946,   18.001160,   85.616300]
  Total <r^2> [a.u.]:                                               158.391406
--------------------------------------------------------------------------------

--------------------------------------------------------------------------------
                                 MP(2) Summary                                  
--------------------------------------------------------------------------------
  MP energy contribution:                                   -0.3053842506 a.u.
  Total energy:                                            -78.8201516311 a.u.
  Dip. moment [a.u.]:                  [   0.000000,    0.000000,   -4.049510]
  Total dipole [Debye]:                                              10.292830
  <r^2> [a.u.]:                        [  55.828520,   18.517479,   86.072204]
  Total <r^2> [a.u.]:                                               160.418202

  Density matrix analysis:
  ------------------------
  NOs
    Occupation of frontier NOs:
       0.0448   1.9363
    Number of electrons: 18.000000
    Number of unpaired electrons: n_u =  0.47387, n_u,nl =  0.05265
    NO participation ratio (PR_NO): 16.379525
  
  
  Mulliken Population Analysis
  Atom      Charge (e)              h+              e-           Del q
  --------------------------------------------------------------------
   1 C       -0.383382        0.091665       -0.125398       -0.033734
   2 C       -0.383382        0.091665       -0.125398       -0.033734
   3 H        0.137109        0.014308       -0.016773       -0.002465
   4 H        0.137109        0.014308       -0.016773       -0.002465
   5 H        0.024050        0.018870       -0.011561        0.007309
   6 H        0.024050        0.018870       -0.011561        0.007309
   7 H       -0.555554        0.071907       -0.014128        0.057778
  --------------------------------------------------------------------
  Sum:       -1.000000        0.321592       -0.321592        0.000000
  
  Multipole moment analysis of the density matrix
    Molecular charge:                      -1.000000
    Number of electrons:                   18.000000
      Center of electronic charge [Ang]: [ -0.000000,  -0.000000,   0.119050]
    Total nuclear charge:                  17.000000
      Center of nuclear charge [Ang]:    [ -0.000000,   0.000000,   0.000000]
    Dipole moment [D]:                     10.292827
      Cartesian components [D]:          [  0.000000,   0.000000, -10.292827]
    RMS size of the density [Ang]:         1.575270
      Cartesian components [Ang]:        [  0.931951,   0.536730,   1.151027]
  
  Exciton analysis of the difference density matrix
    <r_h> [Ang]:                  [ -0.000000,   0.000000,   0.399711]
    <r_e> [Ang]:                  [ -0.000000,  -0.000000,   0.072257]
    |<r_e - r_h>| [Ang]:            0.327454
    Hole size [Ang]:                2.035357
      Cartesian components [Ang]: [  1.013387,   0.830121,   1.557763]
    Electron size [Ang]:            2.462128
      Cartesian components [Ang]: [  1.394716,   1.067094,   1.725733]
--------------------------------------------------------------------------------
Less singles guess vectors found than requested: 85 (found), 100 (requested).
Adjusting number of doubles guess vectors to 15.
  Starting Davidson for singlet states of irrep A2 ... 
--------------------------------------------------------------------------------
   It NVec Conv  Avg. Norm  Max. Norm  Conv. states           Remark
--------------------------------------------------------------------------------
       100    0  7.547e-02  4.003e-01  0.0852 n n n n n n n n Guess.
    1  110    0  9.758e-03  8.352e-02  0.0638 n n n n n n n n 
    2  120    0  5.472e-03  5.233e-02  0.0638 n n n n n n n n 
    3  130    2  2.937e-03  2.925e-02  0.0638 y n n n n n y n 
    4  140    7  1.246e-04  1.239e-03  0.0638 y y y y y y y n 
    5  150    9  5.446e-06  5.397e-05  0.0638 y y y y y y y y 
    6  160   10  9.232e-08  9.140e-07  0.0638 y y y y y y y y Converged.
--------------------------------------------------------------------------------
  Davidson Summary: 
 ------------------------------------------------------------
  State  0: excitation energy =   0.0638 a.u.   (converged)
  State  1: excitation energy =   0.1151 a.u.   (converged)
  State  2: excitation energy =   0.2227 a.u.   (converged)
  State  3: excitation energy =   0.2291 a.u.   (converged)
  State  4: excitation energy =   0.2667 a.u.   (converged)
  State  5: excitation energy =   0.2932 a.u.   (converged)
  State  6: excitation energy =   0.3268 a.u.   (converged)
  State  7: excitation energy =   0.3335 a.u.   (converged)
  State  8: excitation energy =   0.3523 a.u.   (converged)
  State  9: excitation energy =   0.3559 a.u.   (converged)
 ------------------------------------------------------------


--------------------------------------------------------------------------------
                   State-averaged natural transition orbitals
--------------------------------------------------------------------------------
--------------------------------------------------------------------------------

--------------------------------------------------------------------------------
                             Excited State Summary
--------------------------------------------------------------------------------
--------------------------------------------------------------------------------

  Excited state 1 (singlet, A2)                                    [converged]
  ----------------------------------------------------------------------------
  Term symbol:  1 (1) A2                                    R^2 =  1.61194e-11

  Total energy:                                            -78.7563845628 a.u.
  Excitation energy:                                               1.735190 eV

  Osc. strength:                                                      0.000000
  Trans. dip. moment [a.u.]:           [  -0.000000,    0.000000,   -0.000000]
  <i|r^2|0> [a.u.]:                    [   0.000000,   -0.000000,   -0.000000]

  Dip. moment [a.u.]:                  [  -0.000000,    0.000000,    0.608142]
  Total dipole [Debye]:                                               1.545743
  <r^2> [a.u.]:                        [ 100.569920,   63.669132,   70.712913]
  Total <r^2> [a.u.]:                                               234.951965

  V1^2 = 0.9030, V2^2 = 0.0970

  Important amplitudes:
      occ i      occ j       vir a       vir b          v   
    ---------------------------------------------------------
     5 (A1) A               1 (A2) A                 -0.6609
     5 (A1) A               2 (A2) A                 -0.1203
    ---------------------------------------------------------

  Density matrix analysis:
  ------------------------
  NOs
    Occupation of frontier NOs:
       0.9818   0.9983
    Number of electrons: 18.000000
    Number of unpaired electrons: n_u =  2.41674, n_u,nl =  2.04808
    NO participation ratio (PR_NO):  2.959948
  
  
  Mulliken Population Analysis
  Atom      Charge (e)              h+              e-           Del q
  --------------------------------------------------------------------
   1 C       -0.680993        0.273980       -0.571591       -0.297611
   2 C       -0.680993        0.273980       -0.571591       -0.297611
   3 H        0.106709        0.018473       -0.048873       -0.030400
   4 H        0.106709        0.018473       -0.048873       -0.030400
   5 H        0.056076        0.033317       -0.001291        0.032026
   6 H        0.056076        0.033317       -0.001291        0.032026
   7 H        0.036417        0.657668       -0.065698        0.591970
  --------------------------------------------------------------------
  Sum:       -1.000000        1.309208       -1.309208       -0.000000
  
  Multipole moment analysis of the density matrix
    Molecular charge:                      -1.000000
    Number of electrons:                   18.000000
      Center of electronic charge [Ang]: [  0.000000,  -0.000000,  -0.017879]
    Total nuclear charge:                  17.000000
      Center of nuclear charge [Ang]:    [ -0.000000,   0.000000,   0.000000]
    Dipole moment [D]:                     1.545742
      Cartesian components [D]:          [ -0.000000,   0.000000,   1.545742]
    RMS size of the density [Ang]:         1.911769
      Cartesian components [Ang]:        [  1.250832,   0.995243,   1.048700]
  
  Exciton analysis of the difference density matrix
    <r_h> [Ang]:                  [ -0.000000,   0.000000,   1.921373]
    <r_e> [Ang]:                  [ -0.000000,   0.000000,   0.038766]
    |<r_e - r_h>| [Ang]:            1.882607
    Hole size [Ang]:                2.870024
      Cartesian components [Ang]: [  1.428446,   1.243629,   2.156378]
    Electron size [Ang]:            5.279143
      Cartesian components [Ang]: [  3.407385,   3.347263,   2.248314]

  Transition density matrix analysis:
  -----------------------------------
  
  CT numbers (Mulliken)
    omega =     0.8908
    <Phe> =     0.0011
  
  Exciton analysis of the transition density matrix
    Trans. dipole moment [D]:             0.000000
      Cartesian components [D]:         [ -0.000000,   0.000000,  -0.000000]
    <r_h> [Ang]:                        [ -0.000000,   0.000000,   2.569148]
    <r_e> [Ang]:                        [  0.000000,  -0.000000,  -0.176421]
    |<r_e - r_h>| [Ang]:                  2.745568
    Hole size [Ang]:                      2.053009
      Cartesian components [Ang]:       [  1.068056,   0.982182,   1.452385]
    Electron size [Ang]:                  5.736530
      Cartesian components [Ang]:       [  3.771109,   3.743594,   2.161485]
    RMS electron-hole separation [Ang]:   6.682292
      Cartesian components [Ang]:       [  3.918711,   3.870034,   3.784121]
    Covariance(r_h, r_e) [Ang^2]:         0.003871
    Correlation coefficient:              0.000329
    Center-of-mass size [Ang]:            3.046735
      Cartesian components [Ang]:       [  1.960084,   1.935278,   1.302061]

  Decomposition into state-averaged NTOs
    H- 1 -> L+ 6: -0.4846 ( 47.0%)
    H- 1 -> L+ 5: -0.3540 ( 25.1%)
    H- 1 -> L+ 0: -0.2917 ( 17.0%)
                   omega =  89.1%
  ----------------------------------------------------------------------------


  Excited state 2 (singlet, A2)                                    [converged]
  ----------------------------------------------------------------------------
  Term symbol:  2 (1) A2                                    R^2 =  1.18471e-10

  Total energy:                                            -78.7050938022 a.u.
  Excitation energy:                                               3.130883 eV

  Osc. strength:                                                      0.000000
  Trans. dip. moment [a.u.]:           [   0.000000,   -0.000000,    0.000000]
  <i|r^2|0> [a.u.]:                    [  -0.000000,   -0.000000,    0.000000]

  Dip. moment [a.u.]:                  [   0.000000,   -0.000000,    0.579450]
  Total dipole [Debye]:                                               1.472817
  <r^2> [a.u.]:                        [  66.363747,   28.828934,   60.487074]
  Total <r^2> [a.u.]:                                               155.679755

  V1^2 = 0.9117, V2^2 = 0.0883

  Important amplitudes:
      occ i      occ j       vir a       vir b          v   
    ---------------------------------------------------------
     5 (A1) A               2 (A2) A                 -0.6246
     5 (A1) A               3 (A2) A                 -0.2274
    ---------------------------------------------------------

  Density matrix analysis:
  ------------------------
  NOs
    Occupation of frontier NOs:
       0.9833   0.9923
    Number of electrons: 18.000000
    Number of unpaired electrons: n_u =  2.41043, n_u,nl =  2.04277
    NO participation ratio (PR_NO):  2.960152
  
  
  Mulliken Population Analysis
  Atom      Charge (e)              h+              e-           Del q
  --------------------------------------------------------------------
   1 C       -0.612595        0.319698       -0.548911       -0.229212
   2 C       -0.612595        0.319698       -0.548911       -0.229212
   3 H        0.075744        0.025451       -0.086815       -0.061364
   4 H        0.075744        0.025451       -0.086815       -0.061364
   5 H        0.011281        0.009065       -0.021834       -0.012769
   6 H        0.011281        0.009065       -0.021834       -0.012769
   7 H        0.051139        0.647217       -0.040524        0.606693
  --------------------------------------------------------------------
  Sum:       -1.000000        1.355644       -1.355644       -0.000000
  
  Multipole moment analysis of the density matrix
    Molecular charge:                      -1.000000
    Number of electrons:                   18.000000
      Center of electronic charge [Ang]: [ -0.000000,   0.000000,  -0.017035]
    Total nuclear charge:                  17.000000
      Center of nuclear charge [Ang]:    [ -0.000000,   0.000000,   0.000000]
    Dipole moment [D]:                     1.472816
      Cartesian components [D]:          [  0.000000,  -0.000000,   1.472816]
    RMS size of the density [Ang]:         1.556162
      Cartesian components [Ang]:        [  1.016086,   0.669698,   0.969905]
  
  Exciton analysis of the difference density matrix
    <r_h> [Ang]:                  [ -0.000000,   0.000000,   1.829048]
    <r_e> [Ang]:                  [ -0.000000,   0.000000,   0.022129]
    |<r_e - r_h>| [Ang]:            1.806920
    Hole size [Ang]:                2.647560
      Cartesian components [Ang]: [  1.305100,   1.142503,   2.000244]
    Electron size [Ang]:            3.061977
      Cartesian components [Ang]: [  1.969643,   1.853456,   1.435588]

  Transition density matrix analysis:
  -----------------------------------
  
  CT numbers (Mulliken)
    omega =     0.8880
    <Phe> =    -0.0005
  
  Exciton analysis of the transition density matrix
    Trans. dipole moment [D]:             0.000000
      Cartesian components [D]:         [  0.000000,  -0.000000,   0.000000]
    <r_h> [Ang]:                        [ -0.000000,   0.000000,   2.560858]
    <r_e> [Ang]:                        [  0.000000,   0.000000,  -0.175285]
    |<r_e - r_h>| [Ang]:                  2.736143
    Hole size [Ang]:                      2.036984
      Cartesian components [Ang]:       [  1.055905,   0.970402,   1.446613]
    Electron size [Ang]:                  3.136061
      Cartesian components [Ang]:       [  2.090579,   2.021046,   1.174619]
    RMS electron-hole separation [Ang]:   4.630957
      Cartesian components [Ang]:       [  2.337397,   2.241534,   3.310266]
    Covariance(r_h, r_e) [Ang^2]:         0.012451
    Correlation coefficient:              0.001949
    Center-of-mass size [Ang]:            1.871436
      Cartesian components [Ang]:       [  1.173402,   1.121176,   0.931860]

  Decomposition into state-averaged NTOs
    H- 1 -> L+ 0: -0.5750 ( 66.1%)
    H- 1 -> L+ 6:  0.3360 ( 22.6%)
                   omega =  88.8%
  ----------------------------------------------------------------------------


  Excited state 3 (singlet, A2)                                    [converged]
  ----------------------------------------------------------------------------
  Term symbol:  3 (1) A2                                    R^2 =  2.83540e-10

  Total energy:                                            -78.5974996398 a.u.
  Excitation energy:                                               6.058669 eV

  Osc. strength:                                                      0.000000
  Trans. dip. moment [a.u.]:           [  -0.000000,    0.000000,    0.000000]
  <i|r^2|0> [a.u.]:                    [   0.000000,   -0.000000,   -0.000000]

  Dip. moment [a.u.]:                  [  -0.000000,    0.000000,   -0.842925]
  Total dipole [Debye]:                                               2.142503
  <r^2> [a.u.]:                        [ 107.835622,   33.355801,  107.226679]
  Total <r^2> [a.u.]:                                               248.418101

  V1^2 = 0.9361, V2^2 = 0.0639

  Important amplitudes:
      occ i      occ j       vir a       vir b          v   
    ---------------------------------------------------------
     1 (B2) A               4 (B1) A                 -0.6459
     1 (B2) A               6 (B1) A                 -0.2116
    ---------------------------------------------------------

  Density matrix analysis:
  ------------------------
  NOs
    Occupation of frontier NOs:
       0.9838   0.9955
    Number of electrons: 18.000000
    Number of unpaired electrons: n_u =  2.37134, n_u,nl =  2.03307
    NO participation ratio (PR_NO):  2.857820
  
  
  Mulliken Population Analysis
  Atom      Charge (e)              h+              e-           Del q
  --------------------------------------------------------------------
   1 C       -0.544924        0.573789       -0.735330       -0.161542
   2 C       -0.544924        0.573789       -0.735330       -0.161542
   3 H        0.199664        0.074183       -0.011628        0.062555
   4 H        0.199664        0.074183       -0.011628        0.062555
   5 H        0.128529        0.117716       -0.013237        0.104479
   6 H        0.128529        0.117716       -0.013237        0.104479
   7 H       -0.566539        0.044865       -0.055851       -0.010986
  --------------------------------------------------------------------
  Sum:       -1.000000        1.576242       -1.576242       -0.000000
  
  Multipole moment analysis of the density matrix
    Molecular charge:                      -1.000000
    Number of electrons:                   18.000000
      Center of electronic charge [Ang]: [  0.000000,  -0.000000,   0.024781]
    Total nuclear charge:                  17.000000
      Center of nuclear charge [Ang]:    [ -0.000000,   0.000000,   0.000000]
    Dipole moment [D]:                     2.142502
      Cartesian components [D]:          [ -0.000000,   0.000000,  -2.142502]
    RMS size of the density [Ang]:         1.965722
      Cartesian components [Ang]:        [  1.295227,   0.720362,   1.291327]
  
  Exciton analysis of the difference density matrix
    <r_h> [Ang]:                  [ -0.000000,  -0.000000,  -0.089744]
    <r_e> [Ang]:                  [  0.000000,  -0.000000,  -1.166261]
    |<r_e - r_h>| [Ang]:            1.076517
    Hole size [Ang]:                2.069781
      Cartesian components [Ang]: [  1.221239,   1.015970,   1.326790]
    Electron size [Ang]:            4.308778
      Cartesian components [Ang]: [  3.275788,   1.915283,   2.041195]

  Transition density matrix analysis:
  -----------------------------------
  
  CT numbers (Mulliken)
    omega =     0.9061
    <Phe> =    -0.0010
  
  Exciton analysis of the transition density matrix
    Trans. dipole moment [D]:             0.000000
      Cartesian components [D]:         [ -0.000000,   0.000000,   0.000000]
    <r_h> [Ang]:                        [ -0.000000,  -0.000000,  -0.180039]
    <r_e> [Ang]:                        [  0.000000,  -0.000000,  -1.916246]
    |<r_e - r_h>| [Ang]:                  1.736207
    Hole size [Ang]:                      1.282840
      Cartesian components [Ang]:       [  0.764542,   0.882208,   0.531850]
    Electron size [Ang]:                  5.023359
      Cartesian components [Ang]:       [  4.007017,   2.318086,   1.950493]
    RMS electron-hole separation [Ang]:   5.461940
      Cartesian components [Ang]:       [  4.076189,   2.475700,   2.662401]
    Covariance(r_h, r_e) [Ang^2]:         0.030719
    Correlation coefficient:              0.004767
    Center-of-mass size [Ang]:            2.595248
      Cartesian components [Ang]:       [  2.041207,   1.242431,   1.012498]

  Decomposition into state-averaged NTOs
    H- 0 -> L+ 4: -0.5186 ( 53.8%)
    H- 0 -> L+ 1: -0.4245 ( 36.0%)
                   omega =  90.6%
  ----------------------------------------------------------------------------


  Excited state 4 (singlet, A2)                                    [converged]
  ----------------------------------------------------------------------------
  Term symbol:  4 (1) A2                                    R^2 =  8.38649e-10

  Total energy:                                            -78.5910435213 a.u.
  Excitation energy:                                               6.234349 eV

  Osc. strength:                                                      0.000000
  Trans. dip. moment [a.u.]:           [  -0.000000,    0.000000,   -0.000000]
  <i|r^2|0> [a.u.]:                    [   0.000000,    0.000000,   -0.000000]

  Dip. moment [a.u.]:                  [   0.000000,   -0.000000,    0.597375]
  Total dipole [Debye]:                                               1.518376
  <r^2> [a.u.]:                        [  70.743172,   33.561929,   61.806132]
  Total <r^2> [a.u.]:                                               166.111232

  V1^2 = 0.9052, V2^2 = 0.0948

  Important amplitudes:
      occ i      occ j       vir a       vir b          v   
    ---------------------------------------------------------
     5 (A1) A               3 (A2) A                 -0.6290
     5 (A1) A               2 (A2) A                  0.2303
    ---------------------------------------------------------

  Density matrix analysis:
  ------------------------
  NOs
    Occupation of frontier NOs:
       0.9815   0.9818
    Number of electrons: 18.000000
    Number of unpaired electrons: n_u =  2.43823, n_u,nl =  2.05285
    NO participation ratio (PR_NO):  3.062237
  
  
  Mulliken Population Analysis
  Atom      Charge (e)              h+              e-           Del q
  --------------------------------------------------------------------
   1 C       -0.618714        0.300494       -0.535826       -0.235332
   2 C       -0.618714        0.300494       -0.535826       -0.235332
   3 H        0.077566        0.020334       -0.079878       -0.059543
   4 H        0.077566        0.020334       -0.079878       -0.059543
   5 H        0.016135        0.006740       -0.014656       -0.007916
   6 H        0.016135        0.006740       -0.014656       -0.007916
   7 H        0.050028        0.650017       -0.044435        0.605582
  --------------------------------------------------------------------
  Sum:       -1.000000        1.305154       -1.305154       -0.000000
  
  Multipole moment analysis of the density matrix
    Molecular charge:                      -1.000000
    Number of electrons:                   18.000000
      Center of electronic charge [Ang]: [ -0.000000,   0.000000,  -0.017562]
    Total nuclear charge:                  17.000000
      Center of nuclear charge [Ang]:    [ -0.000000,   0.000000,   0.000000]
    Dipole moment [D]:                     1.518375
      Cartesian components [D]:          [  0.000000,  -0.000000,   1.518375]
    RMS size of the density [Ang]:         1.607454
      Cartesian components [Ang]:        [  1.049076,   0.722584,   0.980417]
  
  Exciton analysis of the difference density matrix
    <r_h> [Ang]:                  [ -0.000000,   0.000000,   1.922624]
    <r_e> [Ang]:                  [ -0.000000,   0.000000,   0.038536]
    |<r_e - r_h>| [Ang]:            1.884088
    Hole size [Ang]:                2.662379
      Cartesian components [Ang]: [  1.321979,   1.154380,   2.002009]
    Electron size [Ang]:            3.464785
      Cartesian components [Ang]: [  2.224333,   2.135525,   1.580066]

  Transition density matrix analysis:
  -----------------------------------
  
  CT numbers (Mulliken)
    omega =     0.8865
    <Phe> =    -0.0004
  
  Exciton analysis of the transition density matrix
    Trans. dipole moment [D]:             0.000000
      Cartesian components [D]:         [ -0.000000,   0.000000,  -0.000000]
    <r_h> [Ang]:                        [ -0.000000,   0.000000,   2.559259]
    <r_e> [Ang]:                        [ -0.000000,   0.000000,  -0.179259]
    |<r_e - r_h>| [Ang]:                  2.738518
    Hole size [Ang]:                      2.041095
      Cartesian components [Ang]:       [  1.057588,   0.972414,   1.449823]
    Electron size [Ang]:                  3.609239
      Cartesian components [Ang]:       [  2.383177,   2.345375,   1.358782]
    RMS electron-hole separation [Ang]:   4.966161
      Cartesian components [Ang]:       [  2.605769,   2.538538,   3.380614]
    Covariance(r_h, r_e) [Ang^2]:         0.014699
    Correlation coefficient:              0.001995
    Center-of-mass size [Ang]:            2.074974
      Cartesian components [Ang]:       [  1.304417,   1.269702,   0.995927]

  Decomposition into state-averaged NTOs
    H- 1 -> L+ 5:  0.5664 ( 64.2%)
    H- 1 -> L+ 6: -0.3100 ( 19.2%)
    H- 1 -> L+ 0: -0.1594 (  5.1%)
                   omega =  88.7%
  ----------------------------------------------------------------------------


  Excited state 5 (singlet, A2)                                    [converged]
  ----------------------------------------------------------------------------
  Term symbol:  5 (1) A2                                    R^2 =  2.90822e-10

  Total energy:                                            -78.5534558890 a.u.
  Excitation energy:                                               7.257160 eV

  Osc. strength:                                                      0.000000
  Trans. dip. moment [a.u.]:           [   0.000000,   -0.000000,    0.000000]
  <i|r^2|0> [a.u.]:                    [  -0.000000,   -0.000000,   -0.000000]

  Dip. moment [a.u.]:                  [  -0.000000,   -0.000000,   -6.725978]
  Total dipole [Debye]:                                              17.095734
  <r^2> [a.u.]:                        [ 105.431710,   32.257529,  127.492223]
  Total <r^2> [a.u.]:                                               265.181462

  V1^2 = 0.9362, V2^2 = 0.0638

  Important amplitudes:
      occ i      occ j       vir a       vir b          v   
    ---------------------------------------------------------
     1 (B2) A               5 (B1) A                 -0.6569
     1 (B2) A               6 (B1) A                  0.1236
    ---------------------------------------------------------

  Density matrix analysis:
  ------------------------
  NOs
    Occupation of frontier NOs:
       0.9832   0.9976
    Number of electrons: 18.000000
    Number of unpaired electrons: n_u =  2.36484, n_u,nl =  2.03181
    NO participation ratio (PR_NO):  2.838532
  
  
  Mulliken Population Analysis
  Atom      Charge (e)              h+              e-           Del q
  --------------------------------------------------------------------
   1 C       -0.547075        0.565341       -0.729034       -0.163693
   2 C       -0.547075        0.565341       -0.729034       -0.163693
   3 H        0.189106        0.089621       -0.037624        0.051997
   4 H        0.189106        0.089621       -0.037624        0.051997
   5 H        0.124788        0.104288       -0.003550        0.100738
   6 H        0.124788        0.104288       -0.003550        0.100738
   7 H       -0.533637        0.057731       -0.035814        0.021917
  --------------------------------------------------------------------
  Sum:       -1.000000        1.576230       -1.576230       -0.000000
  
  Multipole moment analysis of the density matrix
    Molecular charge:                      -1.000000
    Number of electrons:                   18.000000
      Center of electronic charge [Ang]: [  0.000000,   0.000000,   0.197735]
    Total nuclear charge:                  17.000000
      Center of nuclear charge [Ang]:    [ -0.000000,   0.000000,   0.000000]
    Dipole moment [D]:                     17.095728
      Cartesian components [D]:          [ -0.000000,  -0.000000, -17.095728]
    RMS size of the density [Ang]:         2.021476
      Cartesian components [Ang]:        [  1.280709,   0.708403,   1.394387]
  
  Exciton analysis of the difference density matrix
    <r_h> [Ang]:                  [ -0.000000,  -0.000000,  -0.036749]
    <r_e> [Ang]:                  [  0.000000,   0.000000,   0.861804]
    |<r_e - r_h>| [Ang]:            0.898553
    Hole size [Ang]:                2.000837
      Cartesian components [Ang]: [  1.198570,   0.979980,   1.267445]
    Electron size [Ang]:            4.676958
      Cartesian components [Ang]: [  3.201395,   1.844283,   2.867686]

  Transition density matrix analysis:
  -----------------------------------
  
  CT numbers (Mulliken)
    omega =     0.9062
    <Phe> =    -0.0003
  
  Exciton analysis of the transition density matrix
    Trans. dipole moment [D]:             0.000000
      Cartesian components [D]:         [  0.000000,  -0.000000,   0.000000]
    <r_h> [Ang]:                        [  0.000000,  -0.000000,  -0.183027]
    <r_e> [Ang]:                        [  0.000000,   0.000000,   1.297326]
    |<r_e - r_h>| [Ang]:                  1.480352
    Hole size [Ang]:                      1.278094
      Cartesian components [Ang]:       [  0.764161,   0.882351,   0.520613]
    Electron size [Ang]:                  5.640074
      Cartesian components [Ang]:       [  3.915888,   2.237906,   3.386448]
    RMS electron-hole separation [Ang]:   5.967230
      Cartesian components [Ang]:       [  3.986982,   2.404508,   3.732313]
    Covariance(r_h, r_e) [Ang^2]:         0.013780
    Correlation coefficient:              0.001912
    Center-of-mass size [Ang]:            2.892729
      Cartesian components [Ang]:       [  1.996260,   1.203316,   1.713142]

  Decomposition into state-averaged NTOs
    H- 0 -> L+ 3: -0.6223 ( 77.4%)
    H- 0 -> L+ 4: -0.1989 (  7.9%)
    H- 0 -> L+ 1:  0.1620 (  5.3%)
                   omega =  90.6%
  ----------------------------------------------------------------------------


  Excited state 6 (singlet, A2)                                    [converged]
  ----------------------------------------------------------------------------
  Term symbol:  6 (1) A2                                    R^2 =  2.86444e-09

  Total energy:                                            -78.5269174456 a.u.
  Excitation energy:                                               7.979308 eV

  Osc. strength:                                                      0.000000
  Trans. dip. moment [a.u.]:           [   0.000000,   -0.000000,   -0.000000]
  <i|r^2|0> [a.u.]:                    [   0.000000,    0.000000,    0.000000]

  Dip. moment [a.u.]:                  [  -0.000000,    0.000000,   -2.935195]
  Total dipole [Debye]:                                               7.460524
  <r^2> [a.u.]:                        [ 108.866603,   32.627019,  101.933066]
  Total <r^2> [a.u.]:                                               243.426688

  V1^2 = 0.9387, V2^2 = 0.0613

  Important amplitudes:
      occ i      occ j       vir a       vir b          v   
    ---------------------------------------------------------
     1 (B2) A               6 (B1) A                  0.6203
     1 (B2) A               4 (B1) A                 -0.2027
    ---------------------------------------------------------

  Density matrix analysis:
  ------------------------
  NOs
    Occupation of frontier NOs:
       0.9829   0.9917
    Number of electrons: 18.000000
    Number of unpaired electrons: n_u =  2.37086, n_u,nl =  2.03338
    NO participation ratio (PR_NO):  2.870364
  
  
  Mulliken Population Analysis
  Atom      Charge (e)              h+              e-           Del q
  --------------------------------------------------------------------
   1 C       -0.475982        0.567435       -0.660034       -0.092599
   2 C       -0.475982        0.567435       -0.660034       -0.092599
   3 H        0.165368        0.070097       -0.041838        0.028259
   4 H        0.165368        0.070097       -0.041838        0.028259
   5 H        0.092316        0.107684       -0.039418        0.068265
   6 H        0.092316        0.107684       -0.039418        0.068265
   7 H       -0.563403        0.039974       -0.047823       -0.007850
  --------------------------------------------------------------------
  Sum:       -1.000000        1.530405       -1.530405       -0.000000
  
  Multipole moment analysis of the density matrix
    Molecular charge:                      -1.000000
    Number of electrons:                   18.000000
      Center of electronic charge [Ang]: [  0.000000,  -0.000000,   0.086291]
    Total nuclear charge:                  17.000000
      Center of nuclear charge [Ang]:    [ -0.000000,   0.000000,   0.000000]
    Dipole moment [D]:                     7.460522
      Cartesian components [D]:          [ -0.000000,   0.000000,  -7.460522]
    RMS size of the density [Ang]:         1.944113
      Cartesian components [Ang]:        [  1.301404,   0.712449,   1.256320]
  
  Exciton analysis of the difference density matrix
    <r_h> [Ang]:                  [ -0.000000,   0.000000,  -0.093464]
    <r_e> [Ang]:                  [  0.000000,   0.000000,  -0.478767]
    |<r_e - r_h>| [Ang]:            0.385303
    Hole size [Ang]:                2.030104
      Cartesian components [Ang]: [  1.218438,   1.006813,   1.273994]
    Electron size [Ang]:            4.369149
      Cartesian components [Ang]: [  3.345045,   1.896151,   2.074788]

  Transition density matrix analysis:
  -----------------------------------
  
  CT numbers (Mulliken)
    omega =     0.9081
    <Phe> =    -0.0026
  
  Exciton analysis of the transition density matrix
    Trans. dipole moment [D]:             0.000000
      Cartesian components [D]:         [  0.000000,  -0.000000,  -0.000000]
    <r_h> [Ang]:                        [  0.000000,  -0.000000,  -0.183505]
    <r_e> [Ang]:                        [  0.000000,  -0.000000,  -0.807948]
    |<r_e - r_h>| [Ang]:                  0.624443
    Hole size [Ang]:                      1.277179
      Cartesian components [Ang]:       [  0.764536,   0.880763,   0.520505]
    Electron size [Ang]:                  5.153442
      Cartesian components [Ang]:       [  4.031434,   2.258786,   2.281093]
    RMS electron-hole separation [Ang]:   5.340672
      Cartesian components [Ang]:       [  4.099114,   2.420254,   2.421242]
    Covariance(r_h, r_e) [Ang^2]:         0.028150
    Correlation coefficient:              0.004277
    Center-of-mass size [Ang]:            2.657322
      Cartesian components [Ang]:       [  2.053730,   1.214298,   1.170057]

  Decomposition into state-averaged NTOs
    H- 0 -> L+ 1:  0.4985 ( 49.7%)
    H- 0 -> L+ 4: -0.3770 ( 28.4%)
    H- 0 -> L+ 3:  0.2503 ( 12.5%)
                   omega =  90.8%
  ----------------------------------------------------------------------------


  Excited state 7 (singlet, A2)                                    [converged]
  ----------------------------------------------------------------------------
  Term symbol:  7 (1) A2                                    R^2 =  5.23739e-10

  Total energy:                                            -78.4933452912 a.u.
  Excitation energy:                                               8.892853 eV

  Osc. strength:                                                      0.000000
  Trans. dip. moment [a.u.]:           [   0.000000,    0.000000,    0.000000]
  <i|r^2|0> [a.u.]:                    [  -0.000000,    0.000000,    0.000000]

  Dip. moment [a.u.]:                  [   0.000000,    0.000000,   10.838545]
  Total dipole [Debye]:                                              27.548838
  <r^2> [a.u.]:                        [ 143.079892,  101.303308,   82.287873]
  Total <r^2> [a.u.]:                                               326.671073

  V1^2 = 0.0001, V2^2 = 0.9999

  Important amplitudes:
      occ i      occ j       vir a       vir b          v   
    ---------------------------------------------------------
     5 (A1) A   5 (A1) B    4 (B1) A    2 (B2) B      0.3535
     3 (B1) A               2 (B2) A                 -0.0064
    ---------------------------------------------------------

  Density matrix analysis:
  ------------------------
  NOs
    Occupation of frontier NOs:
       1.0000   1.0003
    Number of electrons: 18.000000
    Number of unpaired electrons: n_u =  2.41284, n_u,nl =  2.07982
    NO participation ratio (PR_NO):  2.882640
  
  
  Mulliken Population Analysis
  Atom      Charge (e)              h+              e-           Del q
  --------------------------------------------------------------------
   1 C       -1.209410        0.175163       -1.001191       -0.826028
   2 C       -1.209410        0.175163       -1.001191       -0.826028
   3 H        0.160993        0.019610        0.004274        0.023884
   4 H        0.160993        0.019610        0.004274        0.023884
   5 H        0.022400        0.001386       -0.003036       -0.001650
   6 H        0.022400        0.001386       -0.003036       -0.001650
   7 H        1.052034        1.607606       -0.000018        1.607588
  --------------------------------------------------------------------
  Sum:       -1.000000        1.999924       -1.999924       -0.000000
  
  Multipole moment analysis of the density matrix
    Molecular charge:                      -1.000000
    Number of electrons:                   18.000000
      Center of electronic charge [Ang]: [ -0.000000,  -0.000000,  -0.318639]
    Total nuclear charge:                  17.000000
      Center of nuclear charge [Ang]:    [ -0.000000,   0.000000,   0.000000]
    Dipole moment [D]:                     27.548830
      Cartesian components [D]:          [  0.000000,   0.000000,  27.548830]
    RMS size of the density [Ang]:         2.231712
      Cartesian components [Ang]:        [  1.491950,   1.255384,   1.085649]
  
  Exciton analysis of the difference density matrix
    <r_h> [Ang]:                  [  0.000000,   0.000000,   2.643741]
    <r_e> [Ang]:                  [ -0.000000,  -0.000000,  -1.295618]
    |<r_e - r_h>| [Ang]:            3.939359
    Hole size [Ang]:                1.822581
      Cartesian components [Ang]: [  0.963578,   0.896484,   1.260807]
    Electron size [Ang]:            5.648999
      Cartesian components [Ang]: [  3.625656,   3.520699,   2.523983]

  Transition density matrix analysis:
  -----------------------------------
  
  CT numbers (Mulliken)
    omega =     0.0001
    <Phe> =     0.1082
  
  Exciton analysis of the transition density matrix
    Trans. dipole moment [D]:             0.000000
      Cartesian components [D]:         [  0.000000,   0.000000,   0.000000]
    <r_h> [Ang]:                        [ -0.000000,  -0.000000,   0.077460]
    <r_e> [Ang]:                        [  0.000000,   0.000000,  -0.528205]
    |<r_e - r_h>| [Ang]:                  0.605665
    Hole size [Ang]:                      2.588070
      Cartesian components [Ang]:       [  1.524094,   1.288452,   1.647766]
    Electron size [Ang]:                  5.431980
      Cartesian components [Ang]:       [  3.046263,   3.795225,   2.413080]
    RMS electron-hole separation [Ang]:   6.048040
      Cartesian components [Ang]:       [  3.468081,   3.940442,   3.004017]
    Covariance(r_h, r_e) [Ang^2]:        -0.003726
    Correlation coefficient:             -0.000265
    Center-of-mass size [Ang]:            3.008200
      Cartesian components [Ang]:       [  1.671644,   2.037191,   1.450766]

  Decomposition into state-averaged NTOs
                   omega =   0.0%
  ----------------------------------------------------------------------------


  Excited state 8 (singlet, A2)                                    [converged]
  ----------------------------------------------------------------------------
  Term symbol:  8 (1) A2                                    R^2 =  7.30865e-08

  Total energy:                                            -78.4866918509 a.u.
  Excitation energy:                                               9.073902 eV

  Osc. strength:                                                      0.000000
  Trans. dip. moment [a.u.]:           [  -0.000000,   -0.000000,    0.000000]
  <i|r^2|0> [a.u.]:                    [  -0.000000,   -0.000000,   -0.000000]

  Dip. moment [a.u.]:                  [   0.000000,   -0.000000,   -3.956229]
  Total dipole [Debye]:                                              10.055732
  <r^2> [a.u.]:                        [  68.193342,   70.967880,   97.630786]
  Total <r^2> [a.u.]:                                               236.792008

  V1^2 = 0.9255, V2^2 = 0.0745

  Important amplitudes:
      occ i      occ j       vir a       vir b          v   
    ---------------------------------------------------------
     3 (B1) A               2 (B2) A                 -0.6640
     3 (B1) A               3 (B2) A                 -0.1452
    ---------------------------------------------------------

  Density matrix analysis:
  ------------------------
  NOs
    Occupation of frontier NOs:
       0.9975   1.0219
    Number of electrons: 18.000000
    Number of unpaired electrons: n_u =  2.51367, n_u,nl =  2.08243
    NO participation ratio (PR_NO):  3.201234
  
  
  Mulliken Population Analysis
  Atom      Charge (e)              h+              e-           Del q
  --------------------------------------------------------------------
   1 C       -0.724659        0.317614       -0.658891       -0.341277
   2 C       -0.724659        0.317614       -0.658891       -0.341277
   3 H        0.294186        0.182662       -0.025584        0.157077
   4 H        0.294186        0.182662       -0.025584        0.157077
   5 H        0.210060        0.196411       -0.010401        0.186010
   6 H        0.210060        0.196411       -0.010401        0.186010
   7 H       -0.559173        0.042402       -0.046022       -0.003620
  --------------------------------------------------------------------
  Sum:       -1.000000        1.435774       -1.435774       -0.000000
  
  Multipole moment analysis of the density matrix
    Molecular charge:                      -1.000000
    Number of electrons:                   18.000000
      Center of electronic charge [Ang]: [ -0.000000,   0.000000,   0.116308]
    Total nuclear charge:                  17.000000
      Center of nuclear charge [Ang]:    [ -0.000000,   0.000000,   0.000000]
    Dipole moment [D]:                     10.055729
      Cartesian components [D]:          [  0.000000,  -0.000000, -10.055729]
    RMS size of the density [Ang]:         1.915797
      Cartesian components [Ang]:        [  1.029997,   1.050741,   1.226918]
  
  Exciton analysis of the difference density matrix
    <r_h> [Ang]:                  [ -0.000000,   0.000000,  -0.023014]
    <r_e> [Ang]:                  [ -0.000000,   0.000000,  -0.057395]
    |<r_e - r_h>| [Ang]:            0.034380
    Hole size [Ang]:                2.129615
      Cartesian components [Ang]: [  1.327467,   0.884993,   1.410631]
    Electron size [Ang]:            4.407741
      Cartesian components [Ang]: [  2.042979,   3.318578,   2.059481]

  Transition density matrix analysis:
  -----------------------------------
  
  CT numbers (Mulliken)
    omega =     0.9106
    <Phe> =    -0.0001
  
  Exciton analysis of the transition density matrix
    Trans. dipole moment [D]:             0.000000
      Cartesian components [D]:         [ -0.000000,  -0.000000,   0.000000]
    <r_h> [Ang]:                        [  0.000000,  -0.000000,  -0.123459]
    <r_e> [Ang]:                        [ -0.000000,   0.000000,  -0.176275]
    |<r_e - r_h>| [Ang]:                  0.052816
    Hole size [Ang]:                      1.523788
      Cartesian components [Ang]:       [  1.128065,   0.414072,   0.936986]
    Electron size [Ang]:                  5.067846
      Cartesian components [Ang]:       [  2.301170,   3.910250,   2.257792]
    RMS electron-hole separation [Ang]:   5.272125
      Cartesian components [Ang]:       [  2.521311,   3.931934,   2.445032]
    Covariance(r_h, r_e) [Ang^2]:         0.106242
    Correlation coefficient:              0.013758
    Center-of-mass size [Ang]:            2.656006
      Cartesian components [Ang]:       [  1.301808,   1.966146,   1.222267]

  Decomposition into state-averaged NTOs
    H- 3 -> L+ 2: -0.6744 ( 91.0%)
                   omega =  91.1%
  ----------------------------------------------------------------------------


  Excited state 9 (singlet, A2)                                    [converged]
  ----------------------------------------------------------------------------
  Term symbol:  9 (1) A2                                    R^2 =  9.13988e-07

  Total energy:                                            -78.4678209054 a.u.
  Excitation energy:                                               9.587407 eV

  Osc. strength:                                                      0.000000
  Trans. dip. moment [a.u.]:           [  -0.000000,   -0.000000,   -0.000000]
  <i|r^2|0> [a.u.]:                    [   0.000000,    0.000000,    0.000000]

  Dip. moment [a.u.]:                  [   0.000000,    0.000000,   -3.943395]
  Total dipole [Debye]:                                              10.023111
  <r^2> [a.u.]:                        [  58.488213,   23.540797,   86.141101]
  Total <r^2> [a.u.]:                                               168.170111

  V1^2 = 0.9485, V2^2 = 0.0515

  Important amplitudes:
      occ i      occ j       vir a       vir b          v   
    ---------------------------------------------------------
     4 (A1) A               2 (A2) A                 -0.5333
     4 (A1) A               3 (A2) A                 -0.3737
    ---------------------------------------------------------

  Density matrix analysis:
  ------------------------
  NOs
    Occupation of frontier NOs:
       0.9817   1.0137
    Number of electrons: 18.000000
    Number of unpaired electrons: n_u =  2.42809, n_u,nl =  2.04673
    NO participation ratio (PR_NO):  3.024922
  
  
  Mulliken Population Analysis
  Atom      Charge (e)              h+              e-           Del q
  --------------------------------------------------------------------
   1 C       -0.521150        0.440603       -0.578371       -0.137768
   2 C       -0.521150        0.440603       -0.578371       -0.137768
   3 H        0.201589        0.073313       -0.008832        0.064480
   4 H        0.201589        0.073313       -0.008832        0.064480
   5 H        0.094582        0.076934       -0.006402        0.070532
   6 H        0.094582        0.076934       -0.006402        0.070532
   7 H       -0.550043        0.012046       -0.006536        0.005510
  --------------------------------------------------------------------
  Sum:       -1.000000        1.193745       -1.193745       -0.000000
  
  Multipole moment analysis of the density matrix
    Molecular charge:                      -1.000000
    Number of electrons:                   18.000000
      Center of electronic charge [Ang]: [ -0.000000,  -0.000000,   0.115931]
    Total nuclear charge:                  17.000000
      Center of nuclear charge [Ang]:    [ -0.000000,   0.000000,   0.000000]
    Dipole moment [D]:                     10.023109
      Cartesian components [D]:          [  0.000000,   0.000000, -10.023109]
    RMS size of the density [Ang]:         1.613321
      Cartesian components [Ang]:        [  0.953892,   0.605167,   1.151811]
  
  Exciton analysis of the difference density matrix
    <r_h> [Ang]:                  [ -0.000000,  -0.000000,  -0.125204]
    <r_e> [Ang]:                  [  0.000000,  -0.000000,  -0.172244]
    |<r_e - r_h>| [Ang]:            0.047040
    Hole size [Ang]:                1.551957
      Cartesian components [Ang]: [  1.146744,   0.604349,   0.853411]
    Electron size [Ang]:            2.052564
      Cartesian components [Ang]: [  1.392455,   1.242420,   0.854681]

  Transition density matrix analysis:
  -----------------------------------
  
  CT numbers (Mulliken)
    omega =     0.9171
    <Phe> =    -0.0146
  
  Exciton analysis of the transition density matrix
    Trans. dipole moment [D]:             0.000000
      Cartesian components [D]:         [ -0.000000,  -0.000000,  -0.000000]
    <r_h> [Ang]:                        [ -0.000000,   0.000000,  -0.145382]
    <r_e> [Ang]:                        [  0.000000,  -0.000000,  -0.186893]
    |<r_e - r_h>| [Ang]:                  0.041510
    Hole size [Ang]:                      1.297565
      Cartesian components [Ang]:       [  1.071589,   0.415135,   0.602524]
    Electron size [Ang]:                  2.084707
      Cartesian components [Ang]:       [  1.430792,   1.290351,   0.796135]
    RMS electron-hole separation [Ang]:   2.441127
      Cartesian components [Ang]:       [  1.767036,   1.355820,   0.999217]
    Covariance(r_h, r_e) [Ang^2]:         0.036150
    Correlation coefficient:              0.013364
    Center-of-mass size [Ang]:            1.235109
      Cartesian components [Ang]:       [  0.903952,   0.677576,   0.499255]

  Decomposition into state-averaged NTOs
    H- 2 -> L+ 0:  0.6725 ( 90.4%)
                   omega =  91.7%
  ----------------------------------------------------------------------------


  Excited state 10 (singlet, A2)                                    [converged]
  ----------------------------------------------------------------------------
  Term symbol:  10 (1) A2                                   R^2 =  1.07737e-07

  Total energy:                                            -78.4642588384 a.u.
  Excitation energy:                                               9.684335 eV

  Osc. strength:                                                      0.000000
  Trans. dip. moment [a.u.]:           [  -0.000000,   -0.000000,   -0.000000]
  <i|r^2|0> [a.u.]:                    [  -0.000000,   -0.000000,    0.000000]

  Dip. moment [a.u.]:                  [   0.000000,    0.000000,    7.889878]
  Total dipole [Debye]:                                              20.054074
  <r^2> [a.u.]:                        [ 165.223504,   89.321114,   79.378359]
  Total <r^2> [a.u.]:                                               333.922977

  V1^2 = 0.0070, V2^2 = 0.9930

  Important amplitudes:
      occ i      occ j       vir a       vir b          v   
    ---------------------------------------------------------
     5 (A1) A   5 (A1) B    6 (A1) A    1 (A2) B     -0.3463
     5 (A1) A   5 (A1) B    7 (A1) A    1 (A2) B     -0.0620
    ---------------------------------------------------------

  Density matrix analysis:
  ------------------------
  NOs
    Occupation of frontier NOs:
       0.9953   0.9977
    Number of electrons: 18.000000
    Number of unpaired electrons: n_u =  2.42078, n_u,nl =  2.07776
    NO participation ratio (PR_NO):  2.921546
  
  
  Mulliken Population Analysis
  Atom      Charge (e)              h+              e-           Del q
  --------------------------------------------------------------------
   1 C       -1.195107        0.175600       -0.987325       -0.811725
   2 C       -1.195107        0.175600       -0.987325       -0.811725
   3 H        0.156365        0.019656       -0.000400        0.019256
   4 H        0.156365        0.019656       -0.000400        0.019256
   5 H        0.016127        0.002213       -0.010137       -0.007924
   6 H        0.016127        0.002213       -0.010137       -0.007924
   7 H        1.045231        1.600563        0.000222        1.600785
  --------------------------------------------------------------------
  Sum:       -1.000000        1.995500       -1.995500       -0.000000
  
  Multipole moment analysis of the density matrix
    Molecular charge:                      -1.000000
    Number of electrons:                   18.000000
      Center of electronic charge [Ang]: [ -0.000000,  -0.000000,  -0.231952]
    Total nuclear charge:                  17.000000
      Center of nuclear charge [Ang]:    [ -0.000000,   0.000000,   0.000000]
    Dipole moment [D]:                     20.054068
      Cartesian components [D]:          [  0.000000,   0.000000,  20.054068]
    RMS size of the density [Ang]:         2.267396
      Cartesian components [Ang]:        [  1.603248,   1.178805,   1.086783]
  
  Exciton analysis of the difference density matrix
    <r_h> [Ang]:                  [ -0.000000,   0.000000,   2.641327]
    <r_e> [Ang]:                  [ -0.000000,   0.000000,  -0.524823]
    |<r_e - r_h>| [Ang]:            3.166150
    Hole size [Ang]:                1.816226
      Cartesian components [Ang]: [  0.984321,   0.894628,   1.236701]
    Electron size [Ang]:            5.860698
      Cartesian components [Ang]: [  4.039838,   3.276620,   2.700232]

  Transition density matrix analysis:
  -----------------------------------
  
  CT numbers (Mulliken)
    omega =     0.0070
    <Phe> =    -0.0062
  
  Exciton analysis of the transition density matrix
    Trans. dipole moment [D]:             0.000000
      Cartesian components [D]:         [ -0.000000,  -0.000000,  -0.000000]
    <r_h> [Ang]:                        [  0.000000,  -0.000000,   1.260149]
    <r_e> [Ang]:                        [  0.000000,  -0.000000,  -0.175722]
    |<r_e - r_h>| [Ang]:                  1.435872
    Hole size [Ang]:                      1.903620
      Cartesian components [Ang]:       [  0.874313,   0.527055,   1.606722]
    Electron size [Ang]:                  4.582178
      Cartesian components [Ang]:       [  3.022820,   2.966032,   1.749734]
    RMS electron-hole separation [Ang]:   5.161566
      Cartesian components [Ang]:       [  3.140469,   3.012047,   2.776111]
    Covariance(r_h, r_e) [Ang^2]:         0.020044
    Correlation coefficient:              0.002298
    Center-of-mass size [Ang]:            2.482952
      Cartesian components [Ang]:       [  1.576482,   1.506473,   1.187559]

  Decomposition into state-averaged NTOs
                   omega =   0.7%
  ----------------------------------------------------------------------------


--------------------------------------------------------------------------------
  Time of ADC calculation:  CPU 137.00 s  wall 39.68 s
================================================================================
 
 --------------------------------------------------------------
             Orbital Energies (a.u.) and Symmetries
 --------------------------------------------------------------
 
 Alpha MOs, Restricted
 -- Occupied --                  
-11.073 -11.071  -0.879  -0.621  -0.496  -0.407  -0.350  -0.216
  1 A1    1 B1    2 A1    2 B1    3 A1    4 A1    3 B1    1 B2                 
 -0.038
  5 A1                                                                         
 -- Virtual --                   
  0.114   0.136   0.138   0.140   0.151   0.163   0.221   0.221
  4 B1    2 B2    6 A1    1 A2    5 B1    7 A1    6 B1    8 A1                 
  0.254   0.281   0.291   0.295   0.341   0.386   0.419   0.453
  2 A2    9 A1    7 B1    3 B2   10 A1    3 A2    8 B1   11 A1                 
  0.494   0.499   0.596   0.658   0.809   0.904   0.995   1.013
 12 A1    9 B1   10 B1   11 B1   13 A1   14 A1    4 B2   15 A1                 
  1.032   1.056   1.087   1.114   1.153   1.191   1.227   1.278
 16 A1    4 A2   12 B1   17 A1   13 B1   14 B1   18 A1    5 B2                 
  1.444   1.448   1.460   1.512   1.768   1.777   1.860   1.875
  6 B2    5 A2   15 B1   16 B1   19 A1   17 B1   20 A1    7 B2                 
  1.923   1.959   2.007   2.084   2.098   2.135   2.184   2.213
 18 B1   21 A1    6 A2   19 B1    8 B2   22 A1    9 B2   23 A1                 
  2.330   2.435   2.576   2.609   2.700   2.744   2.963   2.986
  7 A2   20 B1    8 A2   24 A1   21 B1   22 B1   25 A1   26 A1                 
  3.423   3.506
 23 B1   24 B1                                                                 
 
 Beta MOs, Restricted
 -- Occupied --                  
-11.073 -11.071  -0.879  -0.621  -0.496  -0.407  -0.350  -0.216
  1 A1    1 B1    2 A1    2 B1    3 A1    4 A1    3 B1    1 B2                 
 -0.038
  5 A1                                                                         
 -- Virtual --                   
  0.114   0.136   0.138   0.140   0.151   0.163   0.221   0.221
  4 B1    2 B2    6 A1    1 A2    5 B1    7 A1    6 B1    8 A1                 
  0.254   0.281   0.291   0.295   0.341   0.386   0.419   0.453
  2 A2    9 A1    7 B1    3 B2   10 A1    3 A2    8 B1   11 A1                 
  0.494   0.499   0.596   0.658   0.809   0.904   0.995   1.013
 12 A1    9 B1   10 B1   11 B1   13 A1   14 A1    4 B2   15 A1                 
  1.032   1.056   1.087   1.114   1.153   1.191   1.227   1.278
 16 A1    4 A2   12 B1   17 A1   13 B1   14 B1   18 A1    5 B2                 
  1.444   1.448   1.460   1.512   1.768   1.777   1.860   1.875
  6 B2    5 A2   15 B1   16 B1   19 A1   17 B1   20 A1    7 B2                 
  1.923   1.959   2.007   2.084   2.098   2.135   2.184   2.213
 18 B1   21 A1    6 A2   19 B1    8 B2   22 A1    9 B2   23 A1                 
  2.330   2.435   2.576   2.609   2.700   2.744   2.963   2.986
  7 A2   20 B1    8 A2   24 A1   21 B1   22 B1   25 A1   26 A1                 
  3.423   3.506
 23 B1   24 B1                                                                 
 --------------------------------------------------------------
 
          Ground-State Mulliken Net Atomic Charges

     Atom                 Charge (a.u.)
  ----------------------------------------
      1 C                    -0.349649
      2 C                    -0.349649
      3 H                     0.139573
      4 H                     0.139573
      5 H                     0.016741
      6 H                     0.016741
      7 H                    -0.613332
  ----------------------------------------
  Sum of atomic charges =    -1.000000

 -----------------------------------------------------------------
                    Cartesian Multipole Moments
 -----------------------------------------------------------------
    Charge (ESU x 10^10)
                -4.8032
    Dipole Moment (Debye)
         X      -0.0000      Y      -0.0000      Z     -10.7986
       Tot      10.7986
    Quadrupole Moments (Debye-Ang)
        XX     -22.4102     XY       0.0000     YY     -24.2122
        XZ       0.0000     YZ       0.0000     ZZ     -56.6776
    Octopole Moments (Debye-Ang^2)
       XXX      -0.0000    XXY      -0.0000    XYY      -0.0000
       YYY       0.0000    XXZ      -4.1064    XYZ      -0.0000
       YYZ     -11.7168    XZZ      -0.0000    YZZ       0.0000
       ZZZ    -120.6470
    Hexadecapole Moments (Debye-Ang^3)
      XXXX    -182.8579   XXXY      -0.0000   XXYY     -39.6165
      XYYY       0.0000   YYYY     -78.0722   XXXZ       0.0000
      XXYZ       0.0000   XYYZ       0.0000   YYYZ      -0.0000
      XXZZ     -97.1700   XYZZ       0.0000   YYZZ     -83.9985
      XZZZ       0.0000   YZZZ       0.0000   ZZZZ    -663.2781
 -----------------------------------------------------------------
 Total job time:  122.65s(wall), 182.56s(cpu) 
 Sun Mar 27 17:00:38 2022

        *************************************************************
        *                                                           *
        *  Thank you very much for using Q-Chem.  Have a nice day.  *
        *                                                           *
        *************************************************************


