/src/tsommerfeld/qchem/exe/qcprog.exe .input1.527778.1904.qcin.1 /src/jdavis/qchem.scratch/qchem1904/

                  Welcome to Q-Chem
     A Quantum Leap Into The Future Of Chemistry


 Q-Chem 5.4 (devel), Q-Chem, Inc., Pleasanton, CA (2021)

 E. Epifanovsky,  A. T. B. Gilbert,  Xintian Feng,  Joonho Lee,  Yuezhi Mao,  
 N. Mardirossian,  P. Pokhilko,  A. White,  M. Wormit,  M. P. Coons,  
 A. L. Dempwolff,  Zhengting Gan,  D. Hait,  P. R. Horn,  L. D. Jacobson,  
 I. Kaliman,  J. Kussmann,  A. W. Lange,  Ka Un Lao,  D. S. Levine,  Jie Liu,  
 S. C. McKenzie,  A. F. Morrison,  K. Nanda,  F. Plasser,  D. R. Rehn,  
 M. L. Vidal,  Zhi-Qiang You,  Ying Zhu,  B. Alam,  B. Albrecht,  
 A. Aldossary,  E. Alguire,  J. H. Andersen,  D. Barton,  K. Begam,  A. Behn,  
 Y. A. Bernard,  E. J. Berquist,  H. Burton,  A. Carreras,  K. Carter-Fenk,  
 R. Chakraborty,  A. D. Chien,  K. D. Closser,  V. Cofer-Shabica,  
 S. Dasgupta,  Jia Deng,  M. de Wergifosse,  M. Diedenhofen,  Hainam Do,  
 S. Ehlert,  Po-Tung Fang,  S. Fatehi,  Qingguo Feng,  T. Friedhoff,  
 J. Gayvert,  Qinghui Ge,  G. Gidofalvi,  M. Goldey,  J. Gomes,  
 C. Gonzalez-Espinoza,  S. Gulania,  A. Gunina,  M. W. D. Hanson-Heine,  
 P. H. P. Harbach,  A. W. Hauser,  M. F. Herbst,  M. Hernandez Vera,  
 M. Hodecker,  Z. C. Holden,  S. Houck,  Xunkun Huang,  Kerwin Hui,  
 B. C. Huynh,  M. Ivanov,  Hyunjun Ji,  Hanjie Jiang,  B. Kaduk,  S. Kaehler,  
 K. Khistyaev,  Jaehoon Kim,  P. Klunzinger,  Z. Koczor-Benda,  
 Joong Hoon Koh,  D. Kosenkov,  L. Koulias,  T. Kowalczyk,  C. M. Krauter,  
 K. Kue,  A. Kunitsa,  T. Kus,  A. Landau,  K. V. Lawler,  D. Lefrancois,  
 S. Lehtola,  Rain Li,  Yi-Pei Li,  Jiashu Liang,  M. Liebenthal,  
 Hung-Hsuan Lin,  You-Sheng Lin,  Fenglai Liu,  Kuan-Yu Liu,  
 M. Loipersberger,  A. Luenser,  A. Manjanath,  P. Manohar,  E. Mansoor,  
 S. F. Manzer,  Shan-Ping Mao,  A. V. Marenich,  T. Markovich,  S. Mason,  
 S. A. Maurer,  P. F. McLaughlin,  M. F. S. J. Menger,  J.-M. Mewes,  
 S. A. Mewes,  P. Morgante,  J. W. Mullinax,  K. J. Oosterbaan,  G. Paran,  
 Alexander C. Paul,  Suranjan K. Paul,  F. Pavosevic,  Zheng Pei,  S. Prager,  
 E. I. Proynov,  E. Ramos,  B. Rana,  A. E. Rask,  A. Rettig,  R. M. Richard,  
 F. Rob,  E. Rossomme,  T. Scheele,  M. Scheurer,  M. Schneider,  
 N. Sergueev,  S. M. Sharada,  W. Skomorowski,  D. W. Small,  C. J. Stein,  
 Yu-Chuan Su,  E. J. Sundstrom,  Zhen Tao,  J. Thirman,  T. Tsuchimochi,  
 N. M. Tubman,  S. P. Veccham,  O. Vydrov,  J. Wenzel,  J. Witte,  A. Yamada,  
 Kun Yao,  S. Yeganeh,  S. R. Yost,  A. Zech,  Igor Ying Zhang,  Xing Zhang,  
 Yu Zhang,  D. Zuev,  A. Aspuru-Guzik,  A. T. Bell,  N. A. Besley,  
 K. B. Bravaya,  B. R. Brooks,  D. Casanova,  Jeng-Da Chai,  S. Coriani,  
 C. J. Cramer,  A. E. DePrince, III,  R. A. DiStasio Jr.,  A. Dreuw,  
 B. D. Dunietz,  T. R. Furlani,  W. A. Goddard III,  S. Grimme,  
 S. Hammes-Schiffer,  T. Head-Gordon,  W. J. Hehre,  Chao-Ping Hsu,  
 T.-C. Jagau,  Yousung Jung,  A. Klamt,  Jing Kong,  D. S. Lambrecht,  
 WanZhen Liang,  N. J. Mayhall,  C. W. McCurdy,  J. B. Neaton,  
 C. Ochsenfeld,  J. A. Parkhill,  R. Peverati,  V. A. Rassolov,  Yihan Shao,  
 L. V. Slipchenko,  T. Stauch,  R. P. Steele,  J. E. Subotnik,  
 A. J. W. Thom,  A. Tkatchenko,  D. G. Truhlar,  T. Van Voorhis,  
 T. A. Wesolowski,  K. B. Whaley,  H. L. Woodcock III,  P. M. Zimmerman,  
 S. Faraji,  P. M. W. Gill,  M. Head-Gordon,  J. M. Herbert,  A. I. Krylov

 Additional authors for Version 5.4.1: 
 S. Kotaru,  Shaozhi Li,  Xiangyuan Li,  F. Matz,  A. Molle,  Haisheng Ren,  
 Yingli Su,  Hung-Yi Tsai,  C. Utku,  Fang Wang

 Contributors to earlier versions of Q-Chem not listed above: 
 R. D. Adamson,  B. Austin,  R. Baer,  J. Baker,  G. J. O. Beran,  
 K. Brandhorst,  S. T. Brown,  E. F. C. Byrd,  A. K. Chakraborty,  
 G. K. L. Chan,  Chun-Min Chang,  Yunqing Chen,  C.-L. Cheng,  
 Siu Hung Chien,  D. M. Chipman,  D. L. Crittenden,  H. Dachsel,  
 R. J. Doerksen,  A. D. Dutoi,  R. G. Edgar,  J. Fosso-Tande,  
 L. Fusti-Molnar,  D. Ghosh,  A. Ghysels,  A. Golubeva-Zadorozhnaya,  
 J. Gonthier,  M. S. Gordon,  S. R. Gwaltney,  G. Hawkins,  J. E. Herr,  
 A. Heyden,  S. Hirata,  E. G. Hohenstein,  G. Kedziora,  F. J. Keil,  
 C. Kelley,  Jihan Kim,  R. A. King,  R. Z. Khaliullin,  P. P. Korambath,  
 W. Kurlancheek,  A. Laurent,  A. M. Lee,  M. S. Lee,  S. V. Levchenko,  
 Ching Yeh Lin,  D. Liotard,  E. Livshits,  R. C. Lochan,  I. Lotan,  
 L. A. Martinez-Martinez,  P. E. Maslen,  N. Nair,  D. P. O'Neill,  
 D. Neuhauser,  E. Neuscamman,  C. M. Oana,  R. Olivares-Amaya,  R. Olson,  
 T. M. Perrine,  B. Peters,  P. A. Pieniazek,  A. Prociuk,  Y. M. Rhee,  
 J. Ritchie,  M. A. Rohrdanz,  E. Rosta,  N. J. Russ,  H. F. Schaefer III,  
 M. W. Schmidt,  N. E. Schultz,  S. Sharma,  N. Shenvi,  C. D. Sherrill,  
 A. C. Simmonett,  A. Sodt,  T. Stein,  D. Stuck,  K. S. Thanthiriwatte,  
 V. Vanovschi,  L. Vogt,  Tao Wang,  A. Warshel,  M. A. Watson,  
 C. F. Williams,  Q. Wu,  X. Xu,  Jun Yang,  W. Zhang,  Yan Zhao

 Please cite Q-Chem as follows:
 Y. Shao et al., Mol. Phys. 113, 184-215 (2015)
 DOI: 10.1080/00268976.2014.952696

 Q-Chem 5.4.1 for Intel X86 EM64T Linux

 Parts of Q-Chem use Armadillo 9.900.5 (Nocturnal Misbehaviour).
 http://arma.sourceforge.net/

 Q-Chem begins on Sun Mar 27 18:07:32 2022  

 Host: node01
0

     Scratch files written to /src/jdavis/qchem.scratch/qchem1904//
 Processing $rem in /src/tsommerfeld/qchem/config/preferences:
 Processing $rem in /home/jdavis/.qchemrc:

 Checking the input file for inconsistencies... 	...done.

--------------------------------------------------------------
User input:
--------------------------------------------------------------
$molecule
-1 1
C        -0.6645000000    0.0000000000   -0.1764707059
C         0.6645000000    0.0000000000   -0.1764707059
H        -1.1590800000    0.0000000000    0.7858782941
H         1.1590800000    0.0000000000    0.7858782941
H        -1.1590800000    0.0000000000   -1.1388187059
H         1.1590800000    0.0000000000   -1.1388187059
H         0.0000000000    0.0000000000    2.8235292941
$end

$rem
   METHOD adc(2)
   BASIS gen
   PURECART 11
   EE_STATES [0,10,0,0]
   scf_convergence 8
   ADC_DAVIDSON_MAXITER 120
   ADC_DAVIDSON_MAXSUBSPACE 200
   adc_nguess_singles 100
   THRESH 14
   S2THRESH 14
   adc_davidson_conv 5
   adc_davidson_thresh 14
   THREADS 10
   MEM_TOTAL 95000
   STATE_ANALYSIS TRUE
$end
$basis
C 1
S   9   1.00
      6.665000D+03           6.920000D-04
      1.000000D+03           5.329000D-03
      2.280000D+02           2.707700D-02
      6.471000D+01           1.017180D-01
      2.106000D+01           2.747400D-01
      7.495000D+00           4.485640D-01
      2.797000D+00           2.850740D-01
      5.215000D-01           1.520400D-02
      1.596000D-01          -3.191000D-03
S   9   1.00
      6.665000D+03          -1.460000D-04
      1.000000D+03          -1.154000D-03
      2.280000D+02          -5.725000D-03
      6.471000D+01          -2.331200D-02
      2.106000D+01          -6.395500D-02
      7.495000D+00          -1.499810D-01
      2.797000D+00          -1.272620D-01
      5.215000D-01           5.445290D-01
      1.596000D-01           5.804960D-01
S   1   1.00
      1.596000D-01           1.000000D+00
S   1   1.00
      0.0469000              1.0000000
P   4   1.00
      9.439000D+00           3.810900D-02
      2.002000D+00           2.094800D-01
      5.456000D-01           5.085570D-01
      1.517000D-01           4.688420D-01
P   1   1.00
      1.517000D-01           1.000000D+00
P   1   1.00
      0.0927056      1.0000000
P   1   1.00
      0.0463528      1.0000000
D   1   1.00
      5.500000D-01           1.0000000
****
C 2
S   9   1.00
      6.665000D+03           6.920000D-04
      1.000000D+03           5.329000D-03
      2.280000D+02           2.707700D-02
      6.471000D+01           1.017180D-01
      2.106000D+01           2.747400D-01
      7.495000D+00           4.485640D-01
      2.797000D+00           2.850740D-01
      5.215000D-01           1.520400D-02
      1.596000D-01          -3.191000D-03
S   9   1.00
      6.665000D+03          -1.460000D-04
      1.000000D+03          -1.154000D-03
      2.280000D+02          -5.725000D-03
      6.471000D+01          -2.331200D-02
      2.106000D+01          -6.395500D-02
      7.495000D+00          -1.499810D-01
      2.797000D+00          -1.272620D-01
      5.215000D-01           5.445290D-01
      1.596000D-01           5.804960D-01
S   1   1.00
      1.596000D-01           1.000000D+00
S   1   1.00
      0.0469000              1.0000000
P   4   1.00
      9.439000D+00           3.810900D-02
      2.002000D+00           2.094800D-01
      5.456000D-01           5.085570D-01
      1.517000D-01           4.688420D-01
P   1   1.00
      1.517000D-01           1.000000D+00
P   1   1.00
      0.0927056      1.0000000
P   1   1.00
      0.0463528      1.0000000
D   1   1.00
      5.500000D-01           1.0000000
****
H 3
cc-pVDZ
****
H 4
cc-pVDZ
****
H 5
cc-pVDZ
****
H 6
cc-pVDZ
****
H 7
aug-cc-pVDZ
****
$end
--------------------------------------------------------------
 ----------------------------------------------------------------
             Standard Nuclear Orientation (Angstroms)
    I     Atom           X                Y                Z
 ----------------------------------------------------------------
    1      C      -0.6645000000    -0.0000000000    -0.1764707059
    2      C       0.6645000000     0.0000000000    -0.1764707059
    3      H      -1.1590800000    -0.0000000000     0.7858782941
    4      H       1.1590800000     0.0000000000     0.7858782941
    5      H      -1.1590800000    -0.0000000000    -1.1388187059
    6      H       1.1590800000     0.0000000000    -1.1388187059
    7      H       0.0000000000     0.0000000000     2.8235292941
 ----------------------------------------------------------------
 Molecular Point Group                 C2v   NOp =  4
 Largest Abelian Subgroup              C2v   NOp =  4
 Nuclear Repulsion Energy =          36.36366470 hartrees
 There are        9 alpha and        9 beta electrons
 Requested basis set is non-standard
 There are 33 shells and 67 basis functions
 Total memory of 95000 MB is distributed as follows: 
   MEM_STATIC is set to 192 MB
   QALLOC/CCMAN JOB total memory use is  94808 MB
 Warning: actual memory use might exceed 95000 MB

 Total QAlloc Memory Limit  95000 MB
 Mega-Array Size       188 MB
 MEM_STATIC part       192 MB

                       Distance Matrix (Angstroms)
             C (  1)   C (  2)   H (  3)   H (  4)   H (  5)   H (  6)
   C (  2)  1.329000
   H (  3)  1.082000  2.061931
   H (  4)  2.061931  1.082000  2.318160
   H (  5)  1.082000  2.061931  1.924697  3.013026
   H (  6)  2.061931  1.082000  3.013026  1.924697  2.318160
   H (  7)  3.072712  3.072712  2.344246  2.344246  4.128398  4.128398

 
 A cutoff of  1.0D-14 yielded    561 shell pairs
 There are      2337 function pairs (      2484 Cartesian)
 Smallest overlap matrix eigenvalue = 1.87E-04

 Scale SEOQF with 1.000000e-01/1.000000e-01/1.000000e-01

 Standard Electronic Orientation quadrupole field applied
 Nucleus-field energy     =    -0.0000000009 hartrees
 ================ Generating on-the-fly SAD Guess ================
Attempting to make child job directory: /src/jdavis/qchem.scratch/qchem1904//Frg1/
Attempting to make child job directory: /src/jdavis/qchem.scratch/qchem1904//Frg2/
Creating input file /src/jdavis/qchem.scratch/qchem1904/Frg1.input
using default PutDataFrgm: nothing
calling putenv with: QCSCRATCH=/src/jdavis/qchem.scratch/qchem1904/ 
Spawning Job For Fragment 0
Done Job For Fragment 0
calling putenv with: QCSCRATCH=/src/jdavis/qchem.scratch 
calling putenv with: QCTHREADS=1 
Creating input file /src/jdavis/qchem.scratch/qchem1904/Frg2.input
using default PutDataFrgm: nothing
calling putenv with: QCSCRATCH=/src/jdavis/qchem.scratch/qchem1904/ 
Spawning Job For Fragment 1
Done Job For Fragment 1
calling putenv with: QCSCRATCH=/src/jdavis/qchem.scratch 
calling putenv with: QCTHREADS=1 
 Time for running child jobs:  CPU 1.77 s  wall 54.39 s
 ============= Method Specific SAD Guess Constructed =============
 Guess from on-the-fly superposition of atomic densities
 Warning: Energy on first SCF cycle will be non-variational
 A restricted Hartree-Fock SCF calculation will be
 performed using Pulay DIIS extrapolation
 SCF converges when DIIS error is below 1.0E-08
 using 10 threads for integral computing
 -------------------------------------------------------
 OpenMP Integral computing Module                
 Release: version 1.0, May 2013, Q-Chem Inc. Pittsburgh 
 -------------------------------------------------------
 ---------------------------------------
  Cycle       Energy         DIIS Error
 ---------------------------------------
    1     -78.8163151199      7.37E-02
    2     -78.4585423590      6.97E-03
    3     -78.5049446495      1.74E-03
    4     -78.5076563257      5.63E-04
    5     -78.5079861478      1.21E-04
    6     -78.5080133821      2.90E-05
    7     -78.5080159486      7.77E-06
    8     -78.5080161716      1.09E-06
    9     -78.5080161764      2.51E-07
   10     -78.5080161768      4.87E-08
   11     -78.5080161768      1.07E-08
   12     -78.5080161768      1.49E-09 Convergence criterion met
 ---------------------------------------
 SCF time:  CPU 11.20 s  wall 1.13 s
 SCF   energy in the final basis set = -78.50801618
 Total energy in the final basis set = -78.50801618
================================================================================
|                                                                              |
|                                 A D C  M A N                                 |
|                                                                              |
 ------------------------------------------------------------------------------ 
|                                                                              |
| Components:                                                                  |
|                                                                              |
| - libvmm - 1.3-trunk                                                         |
|   Authors:                                                                   |
|   Evgeny Epifanovsky, Ilya Kaliman                                           |
|                                                                              |
| - libtensor - 2.5-trunk                                                      |
|   Authors:                                                                   |
|   Evgeny Epifanovsky, Michael Wormit, Dmitry Zuev, Sam Manzer,               |
|   Ilya Kaliman                                                               |
|                                                                              |
| - libwfa - 1.1-trunk                                                         |
|   Authors:                                                                   |
|   Felix Plasser, Stefanie Mewes (Baeppler), Benjamin Thomitzni,              |
|   Michael Wormit, Feng Chen, Anna I. Krylov, Pavel Pokhilko                  |
|                                                                              |
| - libadc - 1.1-trunk                                                         |
|   Authors:                                                                   |
|   Michael Wormit, Adrian L. Dempwolff, Philipp H. P. Harbach,                |
|   Caroline Krauter, Dirk Rehn, Matthias Schneider, Jan Wenzel                |
|                                                                              |
| - adcman - 2.6-trunk                                                         |
|   Authors:                                                                   |
|   Michael Wormit, Adrian L. Dempwolff, Philipp H. P. Harbach,                |
|   Caroline Krauter, Daniel Lefrancois, Jan-Michael Mewes, Dirk Rehn,         |
|   Matthias Schneider, Jan Wenzel, Andreas Dreuw                              |
|                                                                              |
| Authors of earlier versions of ADCMAN:                                       |
| Andreas Dreuw, Jan Hendrik Starcke, Dirk Rehn, Michael Wormit                |
|                                                                              |
================================================================================

 
 Alpha MOs, Restricted
 -- Occupied --                  
-11.064 -11.062  -0.870  -0.612  -0.486  -0.398  -0.340  -0.207
  1 A1    1 B1    2 A1    2 B1    3 A1    4 A1    3 B1    1 B2                 
 -0.021
  5 A1                                                                         
 -- Virtual --                   
  0.201   0.204   0.236   0.237   0.245   0.266   0.323   0.348
  4 B1    6 A1    1 A2    2 B2    7 A1    5 B1    8 A1    2 A2                 
  0.355   0.449   0.489   0.490   0.504   0.527   0.551   0.573
  6 B1    9 A1    7 B1   10 A1    8 B1   11 A1    3 B2   12 A1                 
  0.586   0.635   0.701   0.781   0.984   1.011   1.083   1.094
  9 B1    3 A2   10 B1   11 B1   13 A1   14 A1   15 A1   12 B1                 
  1.194   1.202   1.274   1.286   1.313   1.339   1.351   1.399
 16 A1   13 B1   17 A1    4 B2   14 B1   18 A1    5 B2    4 A2                 
  1.458   1.468   1.499   1.660   1.796   1.909   1.919   1.919
  5 A2    6 B2   15 B1   16 B1   19 A1    7 B2   20 A1   17 B1                 
  1.959   2.050   2.051   2.115   2.148   2.194   2.260   2.286
 18 B1   21 A1    6 A2    8 B2   19 B1    9 B2   22 A1   23 A1                 
  2.354   2.505   2.585   2.670   2.728   2.765   3.035   3.063
  7 A2   20 B1    8 A2   24 A1   21 B1   22 B1   25 A1   26 A1                 
  3.459   3.527
 23 B1   24 B1                                                                 
 
 Beta MOs, Restricted
 -- Occupied --                  
-11.064 -11.062  -0.870  -0.612  -0.486  -0.398  -0.340  -0.207
  1 A1    1 B1    2 A1    2 B1    3 A1    4 A1    3 B1    1 B2                 
 -0.021
  5 A1                                                                         
 -- Virtual --                   
  0.201   0.204   0.236   0.237   0.245   0.266   0.323   0.348
  4 B1    6 A1    1 A2    2 B2    7 A1    5 B1    8 A1    2 A2                 
  0.355   0.449   0.489   0.490   0.504   0.527   0.551   0.573
  6 B1    9 A1    7 B1   10 A1    8 B1   11 A1    3 B2   12 A1                 
  0.586   0.635   0.701   0.781   0.984   1.011   1.083   1.094
  9 B1    3 A2   10 B1   11 B1   13 A1   14 A1   15 A1   12 B1                 
  1.194   1.202   1.274   1.286   1.313   1.339   1.351   1.399
 16 A1   13 B1   17 A1    4 B2   14 B1   18 A1    5 B2    4 A2                 
  1.458   1.468   1.499   1.660   1.796   1.909   1.919   1.919
  5 A2    6 B2   15 B1   16 B1   19 A1    7 B2   20 A1   17 B1                 
  1.959   2.050   2.051   2.115   2.148   2.194   2.260   2.286
 18 B1   21 A1    6 A2    8 B2   19 B1    9 B2   22 A1   23 A1                 
  2.354   2.505   2.585   2.670   2.728   2.765   3.035   3.063
  7 A2   20 B1    8 A2   24 A1   21 B1   22 B1   25 A1   26 A1                 
  3.459   3.527
 23 B1   24 B1                                                                 

--------------------------------------------------------------------------------
                                   HF Summary                                   
--------------------------------------------------------------------------------
  Energy:                                                  -78.5080161768 a.u.
  Dip. moment [a.u.]:                  [  -0.000000,    0.000000,   -4.359299]
  Total dipole [Debye]:                                              11.080235
  <r^2> [a.u.]:                        [  52.174553,   16.198742,   81.495639]
  Total <r^2> [a.u.]:                                               149.868933
--------------------------------------------------------------------------------

--------------------------------------------------------------------------------
                                 MP(2) Summary                                  
--------------------------------------------------------------------------------
  MP energy contribution:                                   -0.3066377343 a.u.
  Total energy:                                            -78.8146539111 a.u.
  Dip. moment [a.u.]:                  [  -0.000000,   -0.000000,   -4.260950]
  Total dipole [Debye]:                                              10.830256
  <r^2> [a.u.]:                        [  52.469489,   16.136364,   80.920092]
  Total <r^2> [a.u.]:                                               149.525945

  Density matrix analysis:
  ------------------------
  NOs
    Occupation of frontier NOs:
       0.0449   1.9359
    Number of electrons: 18.000000
    Number of unpaired electrons: n_u =  0.45932, n_u,nl =  0.05029
    NO participation ratio (PR_NO): 16.101876
  
  
  Mulliken Population Analysis
  Atom      Charge (e)              h+              e-           Del q
  --------------------------------------------------------------------
   1 C       -0.414356        0.087994       -0.111343       -0.023349
   2 C       -0.414356        0.087994       -0.111343       -0.023349
   3 H        0.191883        0.016808       -0.018820       -0.002012
   4 H        0.191883        0.016808       -0.018820       -0.002012
   5 H        0.055062        0.019715       -0.011370        0.008345
   6 H        0.055062        0.019715       -0.011370        0.008345
   7 H       -0.665179        0.048457       -0.014425        0.034031
  --------------------------------------------------------------------
  Sum:       -1.000000        0.297492       -0.297492        0.000000
  
  Multipole moment analysis of the density matrix
    Molecular charge:                      -1.000000
    Number of electrons:                   18.000000
      Center of electronic charge [Ang]: [  0.000000,   0.000000,   0.125267]
    Total nuclear charge:                  17.000000
      Center of nuclear charge [Ang]:    [ -0.000000,   0.000000,   0.000000]
    Dipole moment [D]:                     10.830252
      Cartesian components [D]:          [ -0.000000,  -0.000000, -10.830252]
    RMS size of the density [Ang]:         1.520034
      Cartesian components [Ang]:        [  0.903479,   0.501035,   1.114986]
  
  Exciton analysis of the difference density matrix
    <r_h> [Ang]:                  [ -0.000000,   0.000000,   0.257362]
    <r_e> [Ang]:                  [ -0.000000,   0.000000,   0.082418]
    |<r_e - r_h>| [Ang]:            0.174944
    Hole size [Ang]:                1.810950
      Cartesian components [Ang]: [  0.957680,   0.757653,   1.337293]
    Electron size [Ang]:            1.736701
      Cartesian components [Ang]: [  1.093057,   0.717859,   1.142818]
--------------------------------------------------------------------------------
Less singles guess vectors found than requested: 85 (found), 100 (requested).
Adjusting number of doubles guess vectors to 15.
  Starting Davidson for singlet states of irrep A2 ... 
--------------------------------------------------------------------------------
   It NVec Conv  Avg. Norm  Max. Norm  Conv. states           Remark
--------------------------------------------------------------------------------
       100    0  9.356e-02  4.603e-01  0.1412 n n n n n n n n Guess.
    1  110    0  9.502e-03  7.533e-02  0.0944 n n n n n n n n 
    2  120    0  2.584e-03  2.408e-02  0.0943 n n n n n n n n 
    3  130    0  1.193e-03  1.148e-02  0.0943 n n n n n n n n 
    4  140    6  4.671e-05  4.580e-04  0.0943 y y y y y y n n 
    5  150    9  1.802e-06  1.786e-05  0.0943 y y y y y y y y 
    6  160   10  2.940e-08  2.898e-07  0.0943 y y y y y y y y Converged.
--------------------------------------------------------------------------------
  Davidson Summary: 
 ------------------------------------------------------------
  State  0: excitation energy =   0.0943 a.u.   (converged)
  State  1: excitation energy =   0.1774 a.u.   (converged)
  State  2: excitation energy =   0.2510 a.u.   (converged)
  State  3: excitation energy =   0.3209 a.u.   (converged)
  State  4: excitation energy =   0.3516 a.u.   (converged)
  State  5: excitation energy =   0.3761 a.u.   (converged)
  State  6: excitation energy =   0.3929 a.u.   (converged)
  State  7: excitation energy =   0.4441 a.u.   (converged)
  State  8: excitation energy =   0.4562 a.u.   (converged)
  State  9: excitation energy =   0.4641 a.u.   (converged)
 ------------------------------------------------------------


--------------------------------------------------------------------------------
                   State-averaged natural transition orbitals
--------------------------------------------------------------------------------
--------------------------------------------------------------------------------

--------------------------------------------------------------------------------
                             Excited State Summary
--------------------------------------------------------------------------------
--------------------------------------------------------------------------------

  Excited state 1 (singlet, A2)                                    [converged]
  ----------------------------------------------------------------------------
  Term symbol:  1 (1) A2                                    R^2 =  3.89170e-11

  Total energy:                                            -78.7203921546 a.u.
  Excitation energy:                                               2.564993 eV

  Osc. strength:                                                      0.000000
  Trans. dip. moment [a.u.]:           [   0.000000,    0.000000,   -0.000000]
  <i|r^2|0> [a.u.]:                    [  -0.000000,   -0.000000,   -0.000000]

  Dip. moment [a.u.]:                  [  -0.000000,   -0.000000,    0.554052]
  Total dipole [Debye]:                                               1.408261
  <r^2> [a.u.]:                        [  61.934701,   24.619509,   58.263858]
  Total <r^2> [a.u.]:                                               144.818068

  V1^2 = 0.9338, V2^2 = 0.0662

  Important amplitudes:
      occ i      occ j       vir a       vir b          v   
    ---------------------------------------------------------
     5 (A1) A               1 (A2) A                 -0.6221
     5 (A1) A               2 (A2) A                  0.2791
    ---------------------------------------------------------

  Density matrix analysis:
  ------------------------
  NOs
    Occupation of frontier NOs:
       0.9924   0.9927
    Number of electrons: 18.000000
    Number of unpaired electrons: n_u =  2.41387, n_u,nl =  2.04364
    NO participation ratio (PR_NO):  2.940434
  
  
  Mulliken Population Analysis
  Atom      Charge (e)              h+              e-           Del q
  --------------------------------------------------------------------
   1 C       -0.696938        0.261907       -0.544489       -0.282582
   2 C       -0.696938        0.261907       -0.544489       -0.282582
   3 H        0.124002        0.016079       -0.083960       -0.067882
   4 H        0.124002        0.016079       -0.083960       -0.067882
   5 H        0.058463        0.011183       -0.007782        0.003401
   6 H        0.058463        0.011183       -0.007782        0.003401
   7 H        0.028946        0.719836       -0.025712        0.694125
  --------------------------------------------------------------------
  Sum:       -1.000000        1.298174       -1.298174        0.000000
  
  Multipole moment analysis of the density matrix
    Molecular charge:                      -1.000000
    Number of electrons:                   18.000000
      Center of electronic charge [Ang]: [  0.000000,   0.000000,  -0.016288]
    Total nuclear charge:                  17.000000
      Center of nuclear charge [Ang]:    [ -0.000000,   0.000000,   0.000000]
    Dipole moment [D]:                     1.408261
      Cartesian components [D]:          [ -0.000000,  -0.000000,   1.408261]
    RMS size of the density [Ang]:         1.500896
      Cartesian components [Ang]:        [  0.981594,   0.618877,   0.951921]
  
  Exciton analysis of the difference density matrix
    <r_h> [Ang]:                  [ -0.000000,   0.000000,   1.986083]
    <r_e> [Ang]:                  [  0.000000,   0.000000,   0.023335]
    |<r_e - r_h>| [Ang]:            1.962749
    Hole size [Ang]:                1.984104
      Cartesian components [Ang]: [  0.948892,   0.863271,   1.513617]
    Electron size [Ang]:            2.620137
      Cartesian components [Ang]: [  1.715265,   1.604722,   1.160970]

  Transition density matrix analysis:
  -----------------------------------
  
  CT numbers (Mulliken)
    omega =     0.9140
    <Phe> =     0.0001
  
  Exciton analysis of the transition density matrix
    Trans. dipole moment [D]:             0.000000
      Cartesian components [D]:         [  0.000000,   0.000000,  -0.000000]
    <r_h> [Ang]:                        [  0.000000,   0.000000,   2.642006]
    <r_e> [Ang]:                        [  0.000000,   0.000000,  -0.175332]
    |<r_e - r_h>| [Ang]:                  2.817339
    Hole size [Ang]:                      1.430446
      Cartesian components [Ang]:       [  0.768872,   0.750160,   0.944601]
    Electron size [Ang]:                  2.724205
      Cartesian components [Ang]:       [  1.828907,   1.745512,   1.014682]
    RMS electron-hole separation [Ang]:   4.169154
      Cartesian components [Ang]:       [  1.978893,   1.899233,   3.139863]
    Covariance(r_h, r_e) [Ang^2]:         0.011511
    Correlation coefficient:              0.002954
    Center-of-mass size [Ang]:            1.540332
      Cartesian components [Ang]:       [  0.994499,   0.950266,   0.693245]

  Decomposition into state-averaged NTOs
    H- 1 -> L+ 0:  0.6415 ( 82.3%)
    H- 1 -> L+ 1: -0.2119 (  9.0%)
                   omega =  91.4%
  ----------------------------------------------------------------------------


  Excited state 2 (singlet, A2)                                    [converged]
  ----------------------------------------------------------------------------
  Term symbol:  2 (1) A2                                    R^2 =  8.77305e-11

  Total energy:                                            -78.6372219383 a.u.
  Excitation energy:                                               4.828170 eV

  Osc. strength:                                                      0.000000
  Trans. dip. moment [a.u.]:           [  -0.000000,    0.000000,   -0.000000]
  <i|r^2|0> [a.u.]:                    [  -0.000000,   -0.000000,    0.000000]

  Dip. moment [a.u.]:                  [  -0.000000,    0.000000,    0.565816]
  Total dipole [Debye]:                                               1.438160
  <r^2> [a.u.]:                        [  66.926638,   29.799554,   59.850014]
  Total <r^2> [a.u.]:                                               156.576206

  V1^2 = 0.9305, V2^2 = 0.0695

  Important amplitudes:
      occ i      occ j       vir a       vir b          v   
    ---------------------------------------------------------
     5 (A1) A               2 (A2) A                 -0.6096
     5 (A1) A               1 (A2) A                 -0.2903
    ---------------------------------------------------------

  Density matrix analysis:
  ------------------------
  NOs
    Occupation of frontier NOs:
       0.9874   0.9917
    Number of electrons: 18.000000
    Number of unpaired electrons: n_u =  2.42951, n_u,nl =  2.04898
    NO participation ratio (PR_NO):  2.994124
  
  
  Mulliken Population Analysis
  Atom      Charge (e)              h+              e-           Del q
  --------------------------------------------------------------------
   1 C       -0.683477        0.256535       -0.525656       -0.269122
   2 C       -0.683477        0.256535       -0.525656       -0.269122
   3 H        0.116265        0.012542       -0.088161       -0.075619
   4 H        0.116265        0.012542       -0.088161       -0.075619
   5 H        0.051901        0.009065       -0.012226       -0.003161
   6 H        0.051901        0.009065       -0.012226       -0.003161
   7 H        0.030623        0.722179       -0.026377        0.695802
  --------------------------------------------------------------------
  Sum:       -1.000000        1.278464       -1.278464        0.000000
  
  Multipole moment analysis of the density matrix
    Molecular charge:                      -1.000000
    Number of electrons:                   18.000000
      Center of electronic charge [Ang]: [  0.000000,  -0.000000,  -0.016634]
    Total nuclear charge:                  17.000000
      Center of nuclear charge [Ang]:    [ -0.000000,   0.000000,   0.000000]
    Dipole moment [D]:                     1.438160
      Cartesian components [D]:          [ -0.000000,   0.000000,   1.438160]
    RMS size of the density [Ang]:         1.560641
      Cartesian components [Ang]:        [  1.020386,   0.680879,   0.964789]
  
  Exciton analysis of the difference density matrix
    <r_h> [Ang]:                  [ -0.000000,   0.000000,   2.029081]
    <r_e> [Ang]:                  [  0.000000,  -0.000000,   0.031203]
    |<r_e - r_h>| [Ang]:            1.997878
    Hole size [Ang]:                1.958860
      Cartesian components [Ang]: [  0.942240,   0.850546,   1.491942]
    Electron size [Ang]:            3.081815
      Cartesian components [Ang]: [  2.013564,   1.927731,   1.314152]

  Transition density matrix analysis:
  -----------------------------------
  
  CT numbers (Mulliken)
    omega =     0.9130
    <Phe> =    -0.0002
  
  Exciton analysis of the transition density matrix
    Trans. dipole moment [D]:             0.000000
      Cartesian components [D]:         [ -0.000000,   0.000000,  -0.000000]
    <r_h> [Ang]:                        [  0.000000,   0.000000,   2.644187]
    <r_e> [Ang]:                        [  0.000000,  -0.000000,  -0.175646]
    |<r_e - r_h>| [Ang]:                  2.819833
    Hole size [Ang]:                      1.428806
      Cartesian components [Ang]:       [  0.768792,   0.750548,   0.941873]
    Electron size [Ang]:                  3.305107
      Cartesian components [Ang]:       [  2.191172,   2.141053,   1.240317]
    RMS electron-hole separation [Ang]:   4.571868
      Cartesian components [Ang]:       [  2.319987,   2.267890,   3.221227]
    Covariance(r_h, r_e) [Ang^2]:         0.007351
    Correlation coefficient:              0.001557
    Center-of-mass size [Ang]:            1.801383
      Cartesian components [Ang]:       [  1.162133,   1.134850,   0.778809]

  Decomposition into state-averaged NTOs
    H- 1 -> L+ 1: -0.6441 ( 83.0%)
    H- 1 -> L+ 0: -0.1947 (  7.6%)
                   omega =  91.3%
  ----------------------------------------------------------------------------


  Excited state 3 (singlet, A2)                                    [converged]
  ----------------------------------------------------------------------------
  Term symbol:  3 (1) A2                                    R^2 =  8.10586e-11

  Total energy:                                            -78.5636504113 a.u.
  Excitation energy:                                               6.830153 eV

  Osc. strength:                                                      0.000000
  Trans. dip. moment [a.u.]:           [   0.000000,   -0.000000,   -0.000000]
  <i|r^2|0> [a.u.]:                    [   0.000000,    0.000000,   -0.000000]

  Dip. moment [a.u.]:                  [  -0.000000,   -0.000000,   -2.676942]
  Total dipole [Debye]:                                               6.804108
  <r^2> [a.u.]:                        [  79.707385,   20.006723,   87.664908]
  Total <r^2> [a.u.]:                                               187.379015

  V1^2 = 0.9435, V2^2 = 0.0565

  Important amplitudes:
      occ i      occ j       vir a       vir b          v   
    ---------------------------------------------------------
     1 (B2) A               4 (B1) A                  0.6759
     1 (B2) A               8 (B1) A                 -0.0765
    ---------------------------------------------------------

  Density matrix analysis:
  ------------------------
  NOs
    Occupation of frontier NOs:
       0.9819   0.9923
    Number of electrons: 18.000000
    Number of unpaired electrons: n_u =  2.34314, n_u,nl =  2.02854
    NO participation ratio (PR_NO):  2.806712
  
  
  Mulliken Population Analysis
  Atom      Charge (e)              h+              e-           Del q
  --------------------------------------------------------------------
   1 C       -0.533659        0.542858       -0.662162       -0.119303
   2 C       -0.533659        0.542858       -0.662162       -0.119303
   3 H        0.242753        0.066064       -0.015195        0.050869
   4 H        0.242753        0.066064       -0.015195        0.050869
   5 H        0.114296        0.114094       -0.054860        0.059234
   6 H        0.114296        0.114094       -0.054860        0.059234
   7 H       -0.646780        0.036835       -0.018436        0.018399
  --------------------------------------------------------------------
  Sum:       -1.000000        1.482868       -1.482868        0.000000
  
  Multipole moment analysis of the density matrix
    Molecular charge:                      -1.000000
    Number of electrons:                   18.000000
      Center of electronic charge [Ang]: [  0.000000,   0.000000,   0.078699]
    Total nuclear charge:                  17.000000
      Center of nuclear charge [Ang]:    [ -0.000000,   0.000000,   0.000000]
    Dipole moment [D]:                     6.804106
      Cartesian components [D]:          [ -0.000000,  -0.000000,  -6.804106]
    RMS size of the density [Ang]:         1.705546
      Cartesian components [Ang]:        [  1.113561,   0.557895,   1.165170]
  
  Exciton analysis of the difference density matrix
    <r_h> [Ang]:                  [ -0.000000,  -0.000000,  -0.135913]
    <r_e> [Ang]:                  [  0.000000,   0.000000,  -0.701183]
    |<r_e - r_h>| [Ang]:            0.565270
    Hole size [Ang]:                1.722712
      Cartesian components [Ang]: [  1.068608,   0.892182,   1.014803]
    Electron size [Ang]:            3.105289
      Cartesian components [Ang]: [  2.507109,   1.235668,   1.352903]

  Transition density matrix analysis:
  -----------------------------------
  
  CT numbers (Mulliken)
    omega =     0.9125
    <Phe> =    -0.0031
  
  Exciton analysis of the transition density matrix
    Trans. dipole moment [D]:             0.000000
      Cartesian components [D]:         [  0.000000,  -0.000000,  -0.000000]
    <r_h> [Ang]:                        [ -0.000000,  -0.000000,  -0.184092]
    <r_e> [Ang]:                        [  0.000000,   0.000000,  -1.032161]
    |<r_e - r_h>| [Ang]:                  0.848070
    Hole size [Ang]:                      1.280064
      Cartesian components [Ang]:       [  0.765305,   0.883581,   0.521688]
    Electron size [Ang]:                  3.581340
      Cartesian components [Ang]:       [  2.971274,   1.443612,   1.383298]
    RMS electron-hole separation [Ang]:   3.887550
      Cartesian components [Ang]:       [  3.060689,   1.685898,   1.703813]
    Covariance(r_h, r_e) [Ang^2]:         0.035369
    Correlation coefficient:              0.007715
    Center-of-mass size [Ang]:            1.906259
      Cartesian components [Ang]:       [  1.537897,   0.849589,   0.739525]

  Decomposition into state-averaged NTOs
    H- 0 -> L+ 4: -0.5877 ( 69.1%)
    H- 0 -> L+ 5:  0.2628 ( 13.8%)
    H- 0 -> L+ 3: -0.2036 (  8.3%)
                   omega =  91.3%
  ----------------------------------------------------------------------------


  Excited state 4 (singlet, A2)                                    [converged]
  ----------------------------------------------------------------------------
  Term symbol:  4 (1) A2                                    R^2 =  2.26587e-10

  Total energy:                                            -78.4937199111 a.u.
  Excitation energy:                                               8.733058 eV

  Osc. strength:                                                      0.000000
  Trans. dip. moment [a.u.]:           [   0.000000,    0.000000,   -0.000000]
  <i|r^2|0> [a.u.]:                    [  -0.000000,    0.000000,    0.000000]

  Dip. moment [a.u.]:                  [  -0.000000,   -0.000000,   -4.607612]
  Total dipole [Debye]:                                              11.711383
  <r^2> [a.u.]:                        [  73.723515,   19.244295,   95.439157]
  Total <r^2> [a.u.]:                                               188.406967

  V1^2 = 0.9438, V2^2 = 0.0562

  Important amplitudes:
      occ i      occ j       vir a       vir b          v   
    ---------------------------------------------------------
     1 (B2) A               5 (B1) A                 -0.6792
     1 (B2) A               9 (B1) A                 -0.0833
    ---------------------------------------------------------

  Density matrix analysis:
  ------------------------
  NOs
    Occupation of frontier NOs:
       0.9829   0.9947
    Number of electrons: 18.000000
    Number of unpaired electrons: n_u =  2.34077, n_u,nl =  2.02779
    NO participation ratio (PR_NO):  2.791575
  
  
  Mulliken Population Analysis
  Atom      Charge (e)              h+              e-           Del q
  --------------------------------------------------------------------
   1 C       -0.558384        0.532706       -0.676735       -0.144029
   2 C       -0.558384        0.532706       -0.676735       -0.144029
   3 H        0.245027        0.082518       -0.029374        0.053144
   4 H        0.245027        0.082518       -0.029374        0.053144
   5 H        0.124645        0.103119       -0.033537        0.069583
   6 H        0.124645        0.103119       -0.033537        0.069583
   7 H       -0.622575        0.051232       -0.008628        0.042604
  --------------------------------------------------------------------
  Sum:       -1.000000        1.487920       -1.487920        0.000000
  
  Multipole moment analysis of the density matrix
    Molecular charge:                      -1.000000
    Number of electrons:                   18.000000
      Center of electronic charge [Ang]: [  0.000000,   0.000000,   0.135458]
    Total nuclear charge:                  17.000000
      Center of nuclear charge [Ang]:    [ -0.000000,   0.000000,   0.000000]
    Dipole moment [D]:                     11.711379
      Cartesian components [D]:          [ -0.000000,  -0.000000, -11.711379]
    RMS size of the density [Ang]:         1.706671
      Cartesian components [Ang]:        [  1.070947,   0.547162,   1.210955]
  
  Exciton analysis of the difference density matrix
    <r_h> [Ang]:                  [ -0.000000,  -0.000000,  -0.084026]
    <r_e> [Ang]:                  [  0.000000,   0.000000,   0.039264]
    |<r_e - r_h>| [Ang]:            0.123290
    Hole size [Ang]:                1.716242
      Cartesian components [Ang]: [  1.054590,   0.882103,   1.027240]
    Electron size [Ang]:            3.204445
      Cartesian components [Ang]: [  2.261017,   1.167485,   1.947626]

  Transition density matrix analysis:
  -----------------------------------
  
  CT numbers (Mulliken)
    omega =     0.9126
    <Phe> =    -0.0008
  
  Exciton analysis of the transition density matrix
    Trans. dipole moment [D]:             0.000000
      Cartesian components [D]:         [  0.000000,   0.000000,  -0.000000]
    <r_h> [Ang]:                        [ -0.000000,  -0.000000,  -0.183642]
    <r_e> [Ang]:                        [  0.000000,   0.000000,   0.063498]
    |<r_e - r_h>| [Ang]:                  0.247140
    Hole size [Ang]:                      1.279834
      Cartesian components [Ang]:       [  0.765033,   0.883808,   0.521137]
    Electron size [Ang]:                  3.764753
      Cartesian components [Ang]:       [  2.666764,   1.357380,   2.284570]
    RMS electron-hole separation [Ang]:   3.979334
      Cartesian components [Ang]:       [  2.768120,   1.619576,   2.355756]
    Covariance(r_h, r_e) [Ang^2]:         0.018661
    Correlation coefficient:              0.003873
    Center-of-mass size [Ang]:            1.990519
      Cartesian components [Ang]:       [  1.390263,   0.809964,   1.171876]

  Decomposition into state-averaged NTOs
    H- 0 -> L+ 5: -0.5390 ( 58.1%)
    H- 0 -> L+ 3: -0.3929 ( 30.9%)
    H- 0 -> L+ 4: -0.1058 (  2.2%)
                   omega =  91.3%
  ----------------------------------------------------------------------------


  Excited state 5 (singlet, A2)                                    [converged]
  ----------------------------------------------------------------------------
  Term symbol:  5 (1) A2                                    R^2 =  1.66158e-09

  Total energy:                                            -78.4630955491 a.u.
  Excitation energy:                                               9.566390 eV

  Osc. strength:                                                      0.000000
  Trans. dip. moment [a.u.]:           [   0.000000,   -0.000000,   -0.000000]
  <i|r^2|0> [a.u.]:                    [   0.000000,   -0.000000,   -0.000000]

  Dip. moment [a.u.]:                  [  -0.000000,   -0.000000,   -4.195878]
  Total dipole [Debye]:                                              10.664861
  <r^2> [a.u.]:                        [  53.526889,   19.725319,   80.576835]
  Total <r^2> [a.u.]:                                               153.829044

  V1^2 = 0.9535, V2^2 = 0.0465

  Important amplitudes:
      occ i      occ j       vir a       vir b          v   
    ---------------------------------------------------------
     4 (A1) A               1 (A2) A                 -0.4781
     4 (A1) A               2 (A2) A                  0.4764
    ---------------------------------------------------------

  Density matrix analysis:
  ------------------------
  NOs
    Occupation of frontier NOs:
       0.9908   1.0044
    Number of electrons: 18.000000
    Number of unpaired electrons: n_u =  2.40073, n_u,nl =  2.03878
    NO participation ratio (PR_NO):  2.906276
  
  
  Mulliken Population Analysis
  Atom      Charge (e)              h+              e-           Del q
  --------------------------------------------------------------------
   1 C       -0.545616        0.441319       -0.572578       -0.131260
   2 C       -0.545616        0.441319       -0.572578       -0.131260
   3 H        0.253700        0.070730       -0.008914        0.061816
   4 H        0.253700        0.070730       -0.008914        0.061816
   5 H        0.122748        0.074123       -0.006437        0.067686
   6 H        0.122748        0.074123       -0.006437        0.067686
   7 H       -0.661663        0.008557       -0.005041        0.003516
  --------------------------------------------------------------------
  Sum:       -1.000000        1.180899       -1.180899        0.000000
  
  Multipole moment analysis of the density matrix
    Molecular charge:                      -1.000000
    Number of electrons:                   18.000000
      Center of electronic charge [Ang]: [  0.000000,   0.000000,   0.123354]
    Total nuclear charge:                  17.000000
      Center of nuclear charge [Ang]:    [ -0.000000,   0.000000,   0.000000]
    Dipole moment [D]:                     10.664857
      Cartesian components [D]:          [ -0.000000,  -0.000000, -10.664857]
    RMS size of the density [Ang]:         1.542052
      Cartesian components [Ang]:        [  0.912538,   0.553958,   1.112802]
  
  Exciton analysis of the difference density matrix
    <r_h> [Ang]:                  [ -0.000000,   0.000000,  -0.140153]
    <r_e> [Ang]:                  [  0.000000,   0.000000,  -0.169312]
    |<r_e - r_h>| [Ang]:            0.029159
    Hole size [Ang]:                1.466645
      Cartesian components [Ang]: [  1.121188,   0.560952,   0.761129]
    Electron size [Ang]:            1.778320
      Cartesian components [Ang]: [  1.227927,   1.079686,   0.699211]

  Transition density matrix analysis:
  -----------------------------------
  
  CT numbers (Mulliken)
    omega =     0.9215
    <Phe> =    -0.0151
  
  Exciton analysis of the transition density matrix
    Trans. dipole moment [D]:             0.000000
      Cartesian components [D]:         [  0.000000,  -0.000000,  -0.000000]
    <r_h> [Ang]:                        [  0.000000,  -0.000000,  -0.143845]
    <r_e> [Ang]:                        [  0.000000,   0.000000,  -0.184333]
    |<r_e - r_h>| [Ang]:                  0.040488
    Hole size [Ang]:                      1.299714
      Cartesian components [Ang]:       [  1.074351,   0.411928,   0.604434]
    Electron size [Ang]:                  1.848518
      Cartesian components [Ang]:       [  1.286284,   1.141721,   0.677470]
    RMS electron-hole separation [Ang]:   2.244076
      Cartesian components [Ang]:       [  1.653528,   1.214770,   0.908875]
    Covariance(r_h, r_e) [Ang^2]:         0.036018
    Correlation coefficient:              0.014992
    Center-of-mass size [Ang]:            1.137795
      Cartesian components [Ang]:       [  0.849022,   0.606374,   0.453927]

  Decomposition into state-averaged NTOs
    H- 2 -> L+ 0: -0.6746 ( 91.0%)
                   omega =  92.1%
  ----------------------------------------------------------------------------


  Excited state 6 (singlet, A2)                                    [converged]
  ----------------------------------------------------------------------------
  Term symbol:  6 (1) A2                                    R^2 =  1.79800e-09

  Total energy:                                            -78.4385121099 a.u.
  Excitation energy:                                              10.235339 eV

  Osc. strength:                                                      0.000000
  Trans. dip. moment [a.u.]:           [  -0.000000,   -0.000000,   -0.000000]
  <i|r^2|0> [a.u.]:                    [  -0.000000,   -0.000000,   -0.000000]

  Dip. moment [a.u.]:                  [   0.000000,   -0.000000,   -4.114413]
  Total dipole [Debye]:                                              10.457796
  <r^2> [a.u.]:                        [  55.840695,   39.248361,   83.963985]
  Total <r^2> [a.u.]:                                               179.053041

  V1^2 = 0.9360, V2^2 = 0.0640

  Important amplitudes:
      occ i      occ j       vir a       vir b          v   
    ---------------------------------------------------------
     3 (B1) A               2 (B2) A                 -0.6757
     3 (B1) A               3 (B2) A                 -0.0986
    ---------------------------------------------------------

  Density matrix analysis:
  ------------------------
  NOs
    Occupation of frontier NOs:
       0.9931   1.0208
    Number of electrons: 18.000000
    Number of unpaired electrons: n_u =  2.48358, n_u,nl =  2.07657
    NO participation ratio (PR_NO):  3.137954
  
  
  Mulliken Population Analysis
  Atom      Charge (e)              h+              e-           Del q
  --------------------------------------------------------------------
   1 C       -0.711768        0.324267       -0.621679       -0.297412
   2 C       -0.711768        0.324267       -0.621679       -0.297412
   3 H        0.320746        0.150111       -0.021249        0.128862
   4 H        0.320746        0.150111       -0.021249        0.128862
   5 H        0.213338        0.168609       -0.010333        0.158276
   6 H        0.213338        0.168609       -0.010333        0.158276
   7 H       -0.644631        0.036492       -0.015944        0.020548
  --------------------------------------------------------------------
  Sum:       -1.000000        1.322466       -1.322466        0.000000
  
  Multipole moment analysis of the density matrix
    Molecular charge:                      -1.000000
    Number of electrons:                   18.000000
      Center of electronic charge [Ang]: [ -0.000000,   0.000000,   0.120959]
    Total nuclear charge:                  17.000000
      Center of nuclear charge [Ang]:    [ -0.000000,   0.000000,   0.000000]
    Dipole moment [D]:                     10.457793
      Cartesian components [D]:          [  0.000000,  -0.000000, -10.457793]
    RMS size of the density [Ang]:         1.664609
      Cartesian components [Ang]:        [  0.932052,   0.781404,   1.136490]
  
  Exciton analysis of the difference density matrix
    <r_h> [Ang]:                  [ -0.000000,  -0.000000,  -0.059998]
    <r_e> [Ang]:                  [ -0.000000,   0.000000,  -0.118634]
    |<r_e - r_h>| [Ang]:            0.058636
    Hole size [Ang]:                1.798060
      Cartesian components [Ang]: [  1.196621,   0.647817,   1.175350]
    Electron size [Ang]:            3.078120
      Cartesian components [Ang]: [  1.464837,   2.305118,   1.419687]

  Transition density matrix analysis:
  -----------------------------------
  
  CT numbers (Mulliken)
    omega =     0.9196
    <Phe> =    -0.0008
  
  Exciton analysis of the transition density matrix
    Trans. dipole moment [D]:             0.000000
      Cartesian components [D]:         [ -0.000000,  -0.000000,  -0.000000]
    <r_h> [Ang]:                        [  0.000000,   0.000000,  -0.124595]
    <r_e> [Ang]:                        [ -0.000000,   0.000000,  -0.176494]
    |<r_e - r_h>| [Ang]:                  0.051899
    Hole size [Ang]:                      1.522263
      Cartesian components [Ang]:       [  1.126047,   0.418406,   0.935007]
    Electron size [Ang]:                  3.412203
      Cartesian components [Ang]:       [  1.572130,   2.622682,   1.514290]
    RMS electron-hole separation [Ang]:   3.699948
      Cartesian components [Ang]:       [  1.862914,   2.655161,   1.780250]
    Covariance(r_h, r_e) [Ang^2]:         0.136744
    Correlation coefficient:              0.026326
    Center-of-mass size [Ang]:            1.886392
      Cartesian components [Ang]:       [  1.001087,   1.328267,   0.889948]

  Decomposition into state-averaged NTOs
    H- 3 -> L+ 2: -0.6771 ( 91.7%)
                   omega =  92.0%
  ----------------------------------------------------------------------------


  Excited state 7 (singlet, A2)                                    [converged]
  ----------------------------------------------------------------------------
  Term symbol:  7 (1) A2                                    R^2 =  4.63958e-09

  Total energy:                                            -78.4217898583 a.u.
  Excitation energy:                                              10.690375 eV

  Osc. strength:                                                      0.000000
  Trans. dip. moment [a.u.]:           [   0.000000,   -0.000000,    0.000000]
  <i|r^2|0> [a.u.]:                    [  -0.000000,    0.000000,   -0.000000]

  Dip. moment [a.u.]:                  [  -0.000000,   -0.000000,   -4.807904]
  Total dipole [Debye]:                                              12.220474
  <r^2> [a.u.]:                        [  71.546177,   22.488202,   87.485856]
  Total <r^2> [a.u.]:                                               181.520235

  V1^2 = 0.9451, V2^2 = 0.0549

  Important amplitudes:
      occ i      occ j       vir a       vir b          v   
    ---------------------------------------------------------
     1 (B2) A               6 (B1) A                  0.6692
     1 (B2) A               8 (B1) A                 -0.1175
    ---------------------------------------------------------

  Density matrix analysis:
  ------------------------
  NOs
    Occupation of frontier NOs:
       0.9819   0.9912
    Number of electrons: 18.000000
    Number of unpaired electrons: n_u =  2.34082, n_u,nl =  2.02810
    NO participation ratio (PR_NO):  2.804139
  
  
  Mulliken Population Analysis
  Atom      Charge (e)              h+              e-           Del q
  --------------------------------------------------------------------
   1 C       -0.583453        0.537287       -0.706384       -0.169098
   2 C       -0.583453        0.537287       -0.706384       -0.169098
   3 H        0.221754        0.074969       -0.045099        0.029870
   4 H        0.221754        0.074969       -0.045099        0.029870
   5 H        0.172884        0.096196        0.021626        0.117823
   6 H        0.172884        0.096196        0.021626        0.117823
   7 H       -0.622369        0.048639       -0.005829        0.042810
  --------------------------------------------------------------------
  Sum:       -1.000000        1.465543       -1.465543        0.000000
  
  Multipole moment analysis of the density matrix
    Molecular charge:                      -1.000000
    Number of electrons:                   18.000000
      Center of electronic charge [Ang]: [  0.000000,   0.000000,   0.141346]
    Total nuclear charge:                  17.000000
      Center of nuclear charge [Ang]:    [ -0.000000,   0.000000,   0.000000]
    Dipole moment [D]:                     12.220471
      Cartesian components [D]:          [ -0.000000,  -0.000000, -12.220471]
    RMS size of the density [Ang]:         1.674502
      Cartesian components [Ang]:        [  1.055014,   0.591483,   1.158038]
  
  Exciton analysis of the difference density matrix
    <r_h> [Ang]:                  [ -0.000000,   0.000000,  -0.092243]
    <r_e> [Ang]:                  [  0.000000,  -0.000000,   0.105250]
    |<r_e - r_h>| [Ang]:            0.197494
    Hole size [Ang]:                1.696974
      Cartesian components [Ang]: [  1.051988,   0.881391,   0.998095]
    Electron size [Ang]:            2.998409
      Cartesian components [Ang]: [  2.179852,   1.410860,   1.499392]

  Transition density matrix analysis:
  -----------------------------------
  
  CT numbers (Mulliken)
    omega =     0.9139
    <Phe> =    -0.0017
  
  Exciton analysis of the transition density matrix
    Trans. dipole moment [D]:             0.000000
      Cartesian components [D]:         [  0.000000,  -0.000000,   0.000000]
    <r_h> [Ang]:                        [ -0.000000,  -0.000000,  -0.183739]
    <r_e> [Ang]:                        [  0.000000,   0.000000,   0.174827]
    |<r_e - r_h>| [Ang]:                  0.358566
    Hole size [Ang]:                      1.279293
      Cartesian components [Ang]:       [  0.764812,   0.883268,   0.521048]
    Electron size [Ang]:                  3.483350
      Cartesian components [Ang]:       [  2.545985,   1.657408,   1.704314]
    RMS electron-hole separation [Ang]:   3.720222
      Cartesian components [Ang]:       [  2.653260,   1.870289,   1.817220]
    Covariance(r_h, r_e) [Ang^2]:         0.029415
    Correlation coefficient:              0.006601
    Center-of-mass size [Ang]:            1.859378
      Cartesian components [Ang]:       [  1.331744,   0.942914,   0.891436]

  Decomposition into state-averaged NTOs
    H- 0 -> L+ 3: -0.5112 ( 52.3%)
    H- 0 -> L+ 4:  0.3150 ( 19.8%)
    H- 0 -> L+ 5:  0.3096 ( 19.2%)
                   omega =  91.4%
  ----------------------------------------------------------------------------


  Excited state 8 (singlet, A2)                                    [converged]
  ----------------------------------------------------------------------------
  Term symbol:  8 (1) A2                                    R^2 =  4.30463e-08

  Total energy:                                            -78.3705202362 a.u.
  Excitation energy:                                              12.085492 eV

  Osc. strength:                                                      0.000000
  Trans. dip. moment [a.u.]:           [   0.000000,    0.000000,   -0.000000]
  <i|r^2|0> [a.u.]:                    [  -0.000000,   -0.000000,   -0.000000]

  Dip. moment [a.u.]:                  [  -0.000000,   -0.000000,   -4.214464]
  Total dipole [Debye]:                                              10.712100
  <r^2> [a.u.]:                        [  55.431559,   20.412328,   79.255164]
  Total <r^2> [a.u.]:                                               155.099051

  V1^2 = 0.9364, V2^2 = 0.0636

  Important amplitudes:
      occ i      occ j       vir a       vir b          v   
    ---------------------------------------------------------
     3 (A1) A               1 (A2) A                 -0.4890
     3 (A1) A               2 (A2) A                  0.4584
    ---------------------------------------------------------

  Density matrix analysis:
  ------------------------
  NOs
    Occupation of frontier NOs:
       0.9952   1.0390
    Number of electrons: 18.000000
    Number of unpaired electrons: n_u =  2.46216, n_u,nl =  2.06226
    NO participation ratio (PR_NO):  3.139456
  
  
  Mulliken Population Analysis
  Atom      Charge (e)              h+              e-           Del q
  --------------------------------------------------------------------
   1 C       -0.600596        0.337044       -0.523284       -0.186240
   2 C       -0.600596        0.337044       -0.523284       -0.186240
   3 H        0.265693        0.083596       -0.009786        0.073810
   4 H        0.265693        0.083596       -0.009786        0.073810
   5 H        0.162749        0.118478       -0.010791        0.107687
   6 H        0.162749        0.118478       -0.010791        0.107687
   7 H       -0.655692        0.015489       -0.006002        0.009487
  --------------------------------------------------------------------
  Sum:       -1.000000        1.093725       -1.093725        0.000000
  
  Multipole moment analysis of the density matrix
    Molecular charge:                      -1.000000
    Number of electrons:                   18.000000
      Center of electronic charge [Ang]: [  0.000000,   0.000000,   0.123900]
    Total nuclear charge:                  17.000000
      Center of nuclear charge [Ang]:    [ -0.000000,   0.000000,   0.000000]
    Dipole moment [D]:                     10.712097
      Cartesian components [D]:          [ -0.000000,  -0.000000, -10.712097]
    RMS size of the density [Ang]:         1.548401
      Cartesian components [Ang]:        [  0.928632,   0.563522,   1.103464]
  
  Exciton analysis of the difference density matrix
    <r_h> [Ang]:                  [ -0.000000,   0.000000,  -0.145742]
    <r_e> [Ang]:                  [  0.000000,   0.000000,  -0.168233]
    |<r_e - r_h>| [Ang]:            0.022491
    Hole size [Ang]:                1.522841
      Cartesian components [Ang]: [  0.998730,   0.549412,   1.009817]
    Electron size [Ang]:            1.933618
      Cartesian components [Ang]: [  1.325083,   1.181794,   0.765764]

  Transition density matrix analysis:
  -----------------------------------
  
  CT numbers (Mulliken)
    omega =     0.9078
    <Phe> =    -0.0121
  
  Exciton analysis of the transition density matrix
    Trans. dipole moment [D]:             0.000000
      Cartesian components [D]:         [  0.000000,   0.000000,  -0.000000]
    <r_h> [Ang]:                        [ -0.000000,   0.000000,  -0.176884]
    <r_e> [Ang]:                        [  0.000000,   0.000000,  -0.188540]
    |<r_e - r_h>| [Ang]:                  0.011657
    Hole size [Ang]:                      1.400088
      Cartesian components [Ang]:       [  0.941294,   0.433022,   0.941649]
    Electron size [Ang]:                  1.946220
      Cartesian components [Ang]:       [  1.344655,   1.209372,   0.719094]
    RMS electron-hole separation [Ang]:   2.398572
      Cartesian components [Ang]:       [  1.646817,   1.282868,   1.181267]
    Covariance(r_h, r_e) [Ang^2]:        -0.002497
    Correlation coefficient:             -0.000917
    Center-of-mass size [Ang]:            1.198230
      Cartesian components [Ang]:       [  0.817963,   0.643122,   0.594210]

  Decomposition into state-averaged NTOs
    H- 4 -> L+ 0:  0.6681 ( 89.3%)
                   omega =  90.8%
  ----------------------------------------------------------------------------


  Excited state 9 (singlet, A2)                                    [converged]
  ----------------------------------------------------------------------------
  Term symbol:  9 (1) A2                                    R^2 =  2.34202e-08

  Total energy:                                            -78.3584228563 a.u.
  Excitation energy:                                              12.414678 eV

  Osc. strength:                                                      0.000000
  Trans. dip. moment [a.u.]:           [  -0.000000,    0.000000,    0.000000]
  <i|r^2|0> [a.u.]:                    [   0.000000,    0.000000,   -0.000000]

  Dip. moment [a.u.]:                  [   0.000000,   -0.000000,    0.402518]
  Total dipole [Debye]:                                               1.023098
  <r^2> [a.u.]:                        [  62.628444,   26.198782,   59.511514]
  Total <r^2> [a.u.]:                                               148.338739

  V1^2 = 0.9178, V2^2 = 0.0822

  Important amplitudes:
      occ i      occ j       vir a       vir b          v   
    ---------------------------------------------------------
     5 (A1) A               3 (A2) A                 -0.6512
     5 (A1) A               2 (A2) A                 -0.1144
    ---------------------------------------------------------

  Density matrix analysis:
  ------------------------
  NOs
    Occupation of frontier NOs:
       0.9258   1.0247
    Number of electrons: 18.000000
    Number of unpaired electrons: n_u =  2.50698, n_u,nl =  2.08257
    NO participation ratio (PR_NO):  3.427873
  
  
  Mulliken Population Analysis
  Atom      Charge (e)              h+              e-           Del q
  --------------------------------------------------------------------
   1 C       -0.687699        0.247800       -0.521143       -0.273343
   2 C       -0.687699        0.247800       -0.521143       -0.273343
   3 H        0.127470        0.007024       -0.071437       -0.064413
   4 H        0.127470        0.007024       -0.071437       -0.064413
   5 H        0.056317        0.009529       -0.008274        0.001255
   6 H        0.056317        0.009529       -0.008274        0.001255
   7 H        0.007824        0.696742       -0.023740        0.673003
  --------------------------------------------------------------------
  Sum:       -1.000000        1.225447       -1.225447        0.000000
  
  Multipole moment analysis of the density matrix
    Molecular charge:                      -1.000000
    Number of electrons:                   18.000000
      Center of electronic charge [Ang]: [ -0.000000,   0.000000,  -0.011834]
    Total nuclear charge:                  17.000000
      Center of nuclear charge [Ang]:    [ -0.000000,   0.000000,   0.000000]
    Dipole moment [D]:                     1.023098
      Cartesian components [D]:          [  0.000000,  -0.000000,   1.023098]
    RMS size of the density [Ang]:         1.519074
      Cartesian components [Ang]:        [  0.987076,   0.638418,   0.962127]
  
  Exciton analysis of the difference density matrix
    <r_h> [Ang]:                  [  0.000000,   0.000000,   2.020491]
    <r_e> [Ang]:                  [ -0.000000,   0.000000,   0.006695]
    |<r_e - r_h>| [Ang]:            2.013796
    Hole size [Ang]:                1.963793
      Cartesian components [Ang]: [  0.937077,   0.847161,   1.503558]
    Electron size [Ang]:            2.769031
      Cartesian components [Ang]: [  1.788728,   1.736968,   1.204543]

  Transition density matrix analysis:
  -----------------------------------
  
  CT numbers (Mulliken)
    omega =     0.9050
    <Phe> =     0.0001
  
  Exciton analysis of the transition density matrix
    Trans. dipole moment [D]:             0.000000
      Cartesian components [D]:         [ -0.000000,   0.000000,   0.000000]
    <r_h> [Ang]:                        [  0.000000,   0.000000,   2.528573]
    <r_e> [Ang]:                        [  0.000000,   0.000000,  -0.179999]
    |<r_e - r_h>| [Ang]:                  2.708571
    Hole size [Ang]:                      1.526581
      Cartesian components [Ang]:       [  0.780535,   0.742640,   1.081527]
    Electron size [Ang]:                  2.883174
      Cartesian components [Ang]:       [  1.897120,   1.877360,   1.090479]
    RMS electron-hole separation [Ang]:   4.235852
      Cartesian components [Ang]:       [  2.048591,   2.017783,   3.110348]
    Covariance(r_h, r_e) [Ang^2]:         0.018531
    Correlation coefficient:              0.004210
    Center-of-mass size [Ang]:            1.634029
      Cartesian components [Ang]:       [  1.027117,   1.010018,   0.771327]

  Decomposition into state-averaged NTOs
    H- 1 -> L+ 6: -0.6572 ( 86.4%)
    H- 2 -> L+ 1: -0.1072 (  2.3%)
                   omega =  90.5%
  ----------------------------------------------------------------------------


  Excited state 10 (singlet, A2)                                    [converged]
  ----------------------------------------------------------------------------
  Term symbol:  10 (1) A2                                   R^2 =  2.89796e-07

  Total energy:                                            -78.3505306005 a.u.
  Excitation energy:                                              12.629438 eV

  Osc. strength:                                                      0.000000
  Trans. dip. moment [a.u.]:           [  -0.000000,    0.000000,    0.000000]
  <i|r^2|0> [a.u.]:                    [  -0.000000,   -0.000000,    0.000000]

  Dip. moment [a.u.]:                  [  -0.000000,    0.000000,   -3.822540]
  Total dipole [Debye]:                                               9.715929
  <r^2> [a.u.]:                        [  64.371645,   29.467602,   83.595975]
  Total <r^2> [a.u.]:                                               177.435222

  V1^2 = 0.9288, V2^2 = 0.0712

  Important amplitudes:
      occ i      occ j       vir a       vir b          v   
    ---------------------------------------------------------
     4 (A1) A               1 (A2) A                  0.3937
     1 (B2) A               8 (B1) A                 -0.3528
    ---------------------------------------------------------

  Density matrix analysis:
  ------------------------
  NOs
    Occupation of frontier NOs:
       0.6109   1.3724
    Number of electrons: 18.000000
    Number of unpaired electrons: n_u =  2.45628, n_u,nl =  2.25063
    NO participation ratio (PR_NO):  5.694295
  
  
  Mulliken Population Analysis
  Atom      Charge (e)              h+              e-           Del q
  --------------------------------------------------------------------
   1 C       -0.484781        0.479263       -0.549688       -0.070425
   2 C       -0.484781        0.479263       -0.549688       -0.070425
   3 H        0.229650        0.074160       -0.036393        0.037767
   4 H        0.229650        0.074160       -0.036393        0.037767
   5 H        0.067438        0.080620       -0.068244        0.012376
   6 H        0.067438        0.080620       -0.068244        0.012376
   7 H       -0.624614        0.046616       -0.006051        0.040565
  --------------------------------------------------------------------
  Sum:       -1.000000        1.314702       -1.314702        0.000000
  
  Multipole moment analysis of the density matrix
    Molecular charge:                      -1.000000
    Number of electrons:                   18.000000
      Center of electronic charge [Ang]: [  0.000000,  -0.000000,   0.112378]
    Total nuclear charge:                  17.000000
      Center of nuclear charge [Ang]:    [ -0.000000,   0.000000,   0.000000]
    Dipole moment [D]:                     9.715926
      Cartesian components [D]:          [ -0.000000,   0.000000,  -9.715926]
    RMS size of the density [Ang]:         1.657636
      Cartesian components [Ang]:        [  1.000719,   0.677076,   1.134850]
  
  Exciton analysis of the difference density matrix
    <r_h> [Ang]:                  [ -0.000000,  -0.000000,  -0.061350]
    <r_e> [Ang]:                  [  0.000000,  -0.000000,  -0.237813]
    |<r_e - r_h>| [Ang]:            0.176463
    Hole size [Ang]:                1.763105
      Cartesian components [Ang]: [  1.153158,   0.803508,   1.064491]
    Electron size [Ang]:            3.000060
      Cartesian components [Ang]: [  1.965936,   1.866855,   1.284643]

  Transition density matrix analysis:
  -----------------------------------
  
  CT numbers (Mulliken)
    omega =     0.9056
    <Phe> =    -0.0036
  
  Exciton analysis of the transition density matrix
    Trans. dipole moment [D]:             0.000000
      Cartesian components [D]:         [ -0.000000,   0.000000,   0.000000]
    <r_h> [Ang]:                        [  0.000000,  -0.000000,  -0.067568]
    <r_e> [Ang]:                        [  0.000000,  -0.000000,  -0.295593]
    |<r_e - r_h>| [Ang]:                  0.228026
    Hole size [Ang]:                      1.413651
      Cartesian components [Ang]:       [  0.995482,   0.627169,   0.783635]
    Electron size [Ang]:                  3.317430
      Cartesian components [Ang]:       [  2.179575,   2.090280,   1.373145]
    RMS electron-hole separation [Ang]:   3.566718
      Cartesian components [Ang]:       [  2.351195,   2.161945,   1.587246]
    Covariance(r_h, r_e) [Ang^2]:         0.167138
    Correlation coefficient:              0.035639
    Center-of-mass size [Ang]:            1.826063
      Cartesian components [Ang]:       [  1.220138,   1.101274,   0.795593]

  Decomposition into state-averaged NTOs
    H- 2 -> L+ 1: -0.5238 ( 54.9%)
    H- 0 -> L+ 7: -0.3958 ( 31.3%)
    H- 1 -> L+ 6:  0.1199 (  2.9%)
                   omega =  90.6%
  ----------------------------------------------------------------------------


--------------------------------------------------------------------------------
  Time of ADC calculation:  CPU 132.73 s  wall 39.17 s
================================================================================
 
 --------------------------------------------------------------
             Orbital Energies (a.u.) and Symmetries
 --------------------------------------------------------------
 
 Alpha MOs, Restricted
 -- Occupied --                  
-11.064 -11.062  -0.870  -0.612  -0.486  -0.398  -0.340  -0.207
  1 A1    1 B1    2 A1    2 B1    3 A1    4 A1    3 B1    1 B2                 
 -0.021
  5 A1                                                                         
 -- Virtual --                   
  0.201   0.204   0.236   0.237   0.245   0.266   0.323   0.348
  4 B1    6 A1    1 A2    2 B2    7 A1    5 B1    8 A1    2 A2                 
  0.355   0.449   0.489   0.490   0.504   0.527   0.551   0.573
  6 B1    9 A1    7 B1   10 A1    8 B1   11 A1    3 B2   12 A1                 
  0.586   0.635   0.701   0.781   0.984   1.011   1.083   1.094
  9 B1    3 A2   10 B1   11 B1   13 A1   14 A1   15 A1   12 B1                 
  1.194   1.202   1.274   1.286   1.313   1.339   1.351   1.399
 16 A1   13 B1   17 A1    4 B2   14 B1   18 A1    5 B2    4 A2                 
  1.458   1.468   1.499   1.660   1.796   1.909   1.919   1.919
  5 A2    6 B2   15 B1   16 B1   19 A1    7 B2   20 A1   17 B1                 
  1.959   2.050   2.051   2.115   2.148   2.194   2.260   2.286
 18 B1   21 A1    6 A2    8 B2   19 B1    9 B2   22 A1   23 A1                 
  2.354   2.505   2.585   2.670   2.728   2.765   3.035   3.063
  7 A2   20 B1    8 A2   24 A1   21 B1   22 B1   25 A1   26 A1                 
  3.459   3.527
 23 B1   24 B1                                                                 
 
 Beta MOs, Restricted
 -- Occupied --                  
-11.064 -11.062  -0.870  -0.612  -0.486  -0.398  -0.340  -0.207
  1 A1    1 B1    2 A1    2 B1    3 A1    4 A1    3 B1    1 B2                 
 -0.021
  5 A1                                                                         
 -- Virtual --                   
  0.201   0.204   0.236   0.237   0.245   0.266   0.323   0.348
  4 B1    6 A1    1 A2    2 B2    7 A1    5 B1    8 A1    2 A2                 
  0.355   0.449   0.489   0.490   0.504   0.527   0.551   0.573
  6 B1    9 A1    7 B1   10 A1    8 B1   11 A1    3 B2   12 A1                 
  0.586   0.635   0.701   0.781   0.984   1.011   1.083   1.094
  9 B1    3 A2   10 B1   11 B1   13 A1   14 A1   15 A1   12 B1                 
  1.194   1.202   1.274   1.286   1.313   1.339   1.351   1.399
 16 A1   13 B1   17 A1    4 B2   14 B1   18 A1    5 B2    4 A2                 
  1.458   1.468   1.499   1.660   1.796   1.909   1.919   1.919
  5 A2    6 B2   15 B1   16 B1   19 A1    7 B2   20 A1   17 B1                 
  1.959   2.050   2.051   2.115   2.148   2.194   2.260   2.286
 18 B1   21 A1    6 A2    8 B2   19 B1    9 B2   22 A1   23 A1                 
  2.354   2.505   2.585   2.670   2.728   2.765   3.035   3.063
  7 A2   20 B1    8 A2   24 A1   21 B1   22 B1   25 A1   26 A1                 
  3.459   3.527
 23 B1   24 B1                                                                 
 --------------------------------------------------------------
 
          Ground-State Mulliken Net Atomic Charges

     Atom                 Charge (a.u.)
  ----------------------------------------
      1 C                    -0.391007
      2 C                    -0.391007
      3 H                     0.193895
      4 H                     0.193895
      5 H                     0.046717
      6 H                     0.046717
      7 H                    -0.699210
  ----------------------------------------
  Sum of atomic charges =    -1.000000

 -----------------------------------------------------------------
                    Cartesian Multipole Moments
 -----------------------------------------------------------------
    Charge (ESU x 10^10)
                -4.8032
    Dipole Moment (Debye)
         X      -0.0000      Y       0.0000      Z     -11.0802
       Tot      11.0802
    Quadrupole Moments (Debye-Ang)
        XX     -18.9139     XY       0.0000     YY     -21.7879
        XZ      -0.0000     YZ       0.0000     ZZ     -51.1352
    Octopole Moments (Debye-Ang^2)
       XXX      -0.0000    XXY       0.0000    XYY      -0.0000
       YYY      -0.0000    XXZ      -8.5617    XYZ      -0.0000
       YYZ      -9.2425    XZZ      -0.0000    YZZ       0.0000
       ZZZ    -114.9254
    Hexadecapole Moments (Debye-Ang^3)
      XXXX     -87.2020   XXXY      -0.0000   XXYY     -21.4308
      XYYY       0.0000   YYYY     -38.1221   XXXZ      -0.0000
      XXYZ      -0.0000   XYYZ      -0.0000   YYYZ      -0.0000
      XXZZ     -53.8816   XYZZ       0.0000   YYZZ     -48.5488
      XZZZ      -0.0000   YZZZ       0.0000   ZZZZ    -481.8785
 -----------------------------------------------------------------
 Total job time:  121.86s(wall), 177.93s(cpu) 
 Sun Mar 27 18:09:34 2022

        *************************************************************
        *                                                           *
        *  Thank you very much for using Q-Chem.  Have a nice day.  *
        *                                                           *
        *************************************************************


