/src/tsommerfeld/qchem/exe/qcprog.exe .input1.333333.1378.qcin.1 /src/jdavis/qchem.scratch/qchem1378/

                  Welcome to Q-Chem
     A Quantum Leap Into The Future Of Chemistry


 Q-Chem 5.4 (devel), Q-Chem, Inc., Pleasanton, CA (2021)

 E. Epifanovsky,  A. T. B. Gilbert,  Xintian Feng,  Joonho Lee,  Yuezhi Mao,  
 N. Mardirossian,  P. Pokhilko,  A. White,  M. Wormit,  M. P. Coons,  
 A. L. Dempwolff,  Zhengting Gan,  D. Hait,  P. R. Horn,  L. D. Jacobson,  
 I. Kaliman,  J. Kussmann,  A. W. Lange,  Ka Un Lao,  D. S. Levine,  Jie Liu,  
 S. C. McKenzie,  A. F. Morrison,  K. Nanda,  F. Plasser,  D. R. Rehn,  
 M. L. Vidal,  Zhi-Qiang You,  Ying Zhu,  B. Alam,  B. Albrecht,  
 A. Aldossary,  E. Alguire,  J. H. Andersen,  D. Barton,  K. Begam,  A. Behn,  
 Y. A. Bernard,  E. J. Berquist,  H. Burton,  A. Carreras,  K. Carter-Fenk,  
 R. Chakraborty,  A. D. Chien,  K. D. Closser,  V. Cofer-Shabica,  
 S. Dasgupta,  Jia Deng,  M. de Wergifosse,  M. Diedenhofen,  Hainam Do,  
 S. Ehlert,  Po-Tung Fang,  S. Fatehi,  Qingguo Feng,  T. Friedhoff,  
 J. Gayvert,  Qinghui Ge,  G. Gidofalvi,  M. Goldey,  J. Gomes,  
 C. Gonzalez-Espinoza,  S. Gulania,  A. Gunina,  M. W. D. Hanson-Heine,  
 P. H. P. Harbach,  A. W. Hauser,  M. F. Herbst,  M. Hernandez Vera,  
 M. Hodecker,  Z. C. Holden,  S. Houck,  Xunkun Huang,  Kerwin Hui,  
 B. C. Huynh,  M. Ivanov,  Hyunjun Ji,  Hanjie Jiang,  B. Kaduk,  S. Kaehler,  
 K. Khistyaev,  Jaehoon Kim,  P. Klunzinger,  Z. Koczor-Benda,  
 Joong Hoon Koh,  D. Kosenkov,  L. Koulias,  T. Kowalczyk,  C. M. Krauter,  
 K. Kue,  A. Kunitsa,  T. Kus,  A. Landau,  K. V. Lawler,  D. Lefrancois,  
 S. Lehtola,  Rain Li,  Yi-Pei Li,  Jiashu Liang,  M. Liebenthal,  
 Hung-Hsuan Lin,  You-Sheng Lin,  Fenglai Liu,  Kuan-Yu Liu,  
 M. Loipersberger,  A. Luenser,  A. Manjanath,  P. Manohar,  E. Mansoor,  
 S. F. Manzer,  Shan-Ping Mao,  A. V. Marenich,  T. Markovich,  S. Mason,  
 S. A. Maurer,  P. F. McLaughlin,  M. F. S. J. Menger,  J.-M. Mewes,  
 S. A. Mewes,  P. Morgante,  J. W. Mullinax,  K. J. Oosterbaan,  G. Paran,  
 Alexander C. Paul,  Suranjan K. Paul,  F. Pavosevic,  Zheng Pei,  S. Prager,  
 E. I. Proynov,  E. Ramos,  B. Rana,  A. E. Rask,  A. Rettig,  R. M. Richard,  
 F. Rob,  E. Rossomme,  T. Scheele,  M. Scheurer,  M. Schneider,  
 N. Sergueev,  S. M. Sharada,  W. Skomorowski,  D. W. Small,  C. J. Stein,  
 Yu-Chuan Su,  E. J. Sundstrom,  Zhen Tao,  J. Thirman,  T. Tsuchimochi,  
 N. M. Tubman,  S. P. Veccham,  O. Vydrov,  J. Wenzel,  J. Witte,  A. Yamada,  
 Kun Yao,  S. Yeganeh,  S. R. Yost,  A. Zech,  Igor Ying Zhang,  Xing Zhang,  
 Yu Zhang,  D. Zuev,  A. Aspuru-Guzik,  A. T. Bell,  N. A. Besley,  
 K. B. Bravaya,  B. R. Brooks,  D. Casanova,  Jeng-Da Chai,  S. Coriani,  
 C. J. Cramer,  A. E. DePrince, III,  R. A. DiStasio Jr.,  A. Dreuw,  
 B. D. Dunietz,  T. R. Furlani,  W. A. Goddard III,  S. Grimme,  
 S. Hammes-Schiffer,  T. Head-Gordon,  W. J. Hehre,  Chao-Ping Hsu,  
 T.-C. Jagau,  Yousung Jung,  A. Klamt,  Jing Kong,  D. S. Lambrecht,  
 WanZhen Liang,  N. J. Mayhall,  C. W. McCurdy,  J. B. Neaton,  
 C. Ochsenfeld,  J. A. Parkhill,  R. Peverati,  V. A. Rassolov,  Yihan Shao,  
 L. V. Slipchenko,  T. Stauch,  R. P. Steele,  J. E. Subotnik,  
 A. J. W. Thom,  A. Tkatchenko,  D. G. Truhlar,  T. Van Voorhis,  
 T. A. Wesolowski,  K. B. Whaley,  H. L. Woodcock III,  P. M. Zimmerman,  
 S. Faraji,  P. M. W. Gill,  M. Head-Gordon,  J. M. Herbert,  A. I. Krylov

 Additional authors for Version 5.4.1: 
 S. Kotaru,  Shaozhi Li,  Xiangyuan Li,  F. Matz,  A. Molle,  Haisheng Ren,  
 Yingli Su,  Hung-Yi Tsai,  C. Utku,  Fang Wang

 Contributors to earlier versions of Q-Chem not listed above: 
 R. D. Adamson,  B. Austin,  R. Baer,  J. Baker,  G. J. O. Beran,  
 K. Brandhorst,  S. T. Brown,  E. F. C. Byrd,  A. K. Chakraborty,  
 G. K. L. Chan,  Chun-Min Chang,  Yunqing Chen,  C.-L. Cheng,  
 Siu Hung Chien,  D. M. Chipman,  D. L. Crittenden,  H. Dachsel,  
 R. J. Doerksen,  A. D. Dutoi,  R. G. Edgar,  J. Fosso-Tande,  
 L. Fusti-Molnar,  D. Ghosh,  A. Ghysels,  A. Golubeva-Zadorozhnaya,  
 J. Gonthier,  M. S. Gordon,  S. R. Gwaltney,  G. Hawkins,  J. E. Herr,  
 A. Heyden,  S. Hirata,  E. G. Hohenstein,  G. Kedziora,  F. J. Keil,  
 C. Kelley,  Jihan Kim,  R. A. King,  R. Z. Khaliullin,  P. P. Korambath,  
 W. Kurlancheek,  A. Laurent,  A. M. Lee,  M. S. Lee,  S. V. Levchenko,  
 Ching Yeh Lin,  D. Liotard,  E. Livshits,  R. C. Lochan,  I. Lotan,  
 L. A. Martinez-Martinez,  P. E. Maslen,  N. Nair,  D. P. O'Neill,  
 D. Neuhauser,  E. Neuscamman,  C. M. Oana,  R. Olivares-Amaya,  R. Olson,  
 T. M. Perrine,  B. Peters,  P. A. Pieniazek,  A. Prociuk,  Y. M. Rhee,  
 J. Ritchie,  M. A. Rohrdanz,  E. Rosta,  N. J. Russ,  H. F. Schaefer III,  
 M. W. Schmidt,  N. E. Schultz,  S. Sharma,  N. Shenvi,  C. D. Sherrill,  
 A. C. Simmonett,  A. Sodt,  T. Stein,  D. Stuck,  K. S. Thanthiriwatte,  
 V. Vanovschi,  L. Vogt,  Tao Wang,  A. Warshel,  M. A. Watson,  
 C. F. Williams,  Q. Wu,  X. Xu,  Jun Yang,  W. Zhang,  Yan Zhao

 Please cite Q-Chem as follows:
 Y. Shao et al., Mol. Phys. 113, 184-215 (2015)
 DOI: 10.1080/00268976.2014.952696

 Q-Chem 5.4.1 for Intel X86 EM64T Linux

 Parts of Q-Chem use Armadillo 9.900.5 (Nocturnal Misbehaviour).
 http://arma.sourceforge.net/

 Q-Chem begins on Sun Mar 27 17:53:35 2022  

 Host: node01
0

     Scratch files written to /src/jdavis/qchem.scratch/qchem1378//
 Processing $rem in /src/tsommerfeld/qchem/config/preferences:
 Processing $rem in /home/jdavis/.qchemrc:

 Checking the input file for inconsistencies... 	...done.

--------------------------------------------------------------
User input:
--------------------------------------------------------------
$molecule
-1 1
C        -0.6645000000    0.0000000000   -0.1764707059
C         0.6645000000    0.0000000000   -0.1764707059
H        -1.1590800000    0.0000000000    0.7858782941
H         1.1590800000    0.0000000000    0.7858782941
H        -1.1590800000    0.0000000000   -1.1388187059
H         1.1590800000    0.0000000000   -1.1388187059
H         0.0000000000    0.0000000000    2.8235292941
$end

$rem
   METHOD adc(2)
   BASIS gen
   PURECART 11
   EE_STATES [0,10,0,0]
   scf_convergence 8
   ADC_DAVIDSON_MAXITER 120
   ADC_DAVIDSON_MAXSUBSPACE 200
   adc_nguess_singles 100
   THRESH 14
   S2THRESH 14
   adc_davidson_conv 5
   adc_davidson_thresh 14
   THREADS 10
   MEM_TOTAL 95000
   STATE_ANALYSIS TRUE
$end
$basis
C 1
S   9   1.00
      6.665000D+03           6.920000D-04
      1.000000D+03           5.329000D-03
      2.280000D+02           2.707700D-02
      6.471000D+01           1.017180D-01
      2.106000D+01           2.747400D-01
      7.495000D+00           4.485640D-01
      2.797000D+00           2.850740D-01
      5.215000D-01           1.520400D-02
      1.596000D-01          -3.191000D-03
S   9   1.00
      6.665000D+03          -1.460000D-04
      1.000000D+03          -1.154000D-03
      2.280000D+02          -5.725000D-03
      6.471000D+01          -2.331200D-02
      2.106000D+01          -6.395500D-02
      7.495000D+00          -1.499810D-01
      2.797000D+00          -1.272620D-01
      5.215000D-01           5.445290D-01
      1.596000D-01           5.804960D-01
S   1   1.00
      1.596000D-01           1.000000D+00
S   1   1.00
      0.0469000              1.0000000
P   4   1.00
      9.439000D+00           3.810900D-02
      2.002000D+00           2.094800D-01
      5.456000D-01           5.085570D-01
      1.517000D-01           4.688420D-01
P   1   1.00
      1.517000D-01           1.000000D+00
P   1   1.00
      0.0809067      1.0000000
P   1   1.00
      0.0404533      1.0000000
D   1   1.00
      5.500000D-01           1.0000000
****
C 2
S   9   1.00
      6.665000D+03           6.920000D-04
      1.000000D+03           5.329000D-03
      2.280000D+02           2.707700D-02
      6.471000D+01           1.017180D-01
      2.106000D+01           2.747400D-01
      7.495000D+00           4.485640D-01
      2.797000D+00           2.850740D-01
      5.215000D-01           1.520400D-02
      1.596000D-01          -3.191000D-03
S   9   1.00
      6.665000D+03          -1.460000D-04
      1.000000D+03          -1.154000D-03
      2.280000D+02          -5.725000D-03
      6.471000D+01          -2.331200D-02
      2.106000D+01          -6.395500D-02
      7.495000D+00          -1.499810D-01
      2.797000D+00          -1.272620D-01
      5.215000D-01           5.445290D-01
      1.596000D-01           5.804960D-01
S   1   1.00
      1.596000D-01           1.000000D+00
S   1   1.00
      0.0469000              1.0000000
P   4   1.00
      9.439000D+00           3.810900D-02
      2.002000D+00           2.094800D-01
      5.456000D-01           5.085570D-01
      1.517000D-01           4.688420D-01
P   1   1.00
      1.517000D-01           1.000000D+00
P   1   1.00
      0.0809067      1.0000000
P   1   1.00
      0.0404533      1.0000000
D   1   1.00
      5.500000D-01           1.0000000
****
H 3
cc-pVDZ
****
H 4
cc-pVDZ
****
H 5
cc-pVDZ
****
H 6
cc-pVDZ
****
H 7
aug-cc-pVDZ
****
$end
--------------------------------------------------------------
 ----------------------------------------------------------------
             Standard Nuclear Orientation (Angstroms)
    I     Atom           X                Y                Z
 ----------------------------------------------------------------
    1      C      -0.6645000000    -0.0000000000    -0.1764707059
    2      C       0.6645000000     0.0000000000    -0.1764707059
    3      H      -1.1590800000    -0.0000000000     0.7858782941
    4      H       1.1590800000     0.0000000000     0.7858782941
    5      H      -1.1590800000    -0.0000000000    -1.1388187059
    6      H       1.1590800000     0.0000000000    -1.1388187059
    7      H       0.0000000000     0.0000000000     2.8235292941
 ----------------------------------------------------------------
 Molecular Point Group                 C2v   NOp =  4
 Largest Abelian Subgroup              C2v   NOp =  4
 Nuclear Repulsion Energy =          36.36366470 hartrees
 There are        9 alpha and        9 beta electrons
 Requested basis set is non-standard
 There are 33 shells and 67 basis functions
 Total memory of 95000 MB is distributed as follows: 
   MEM_STATIC is set to 192 MB
   QALLOC/CCMAN JOB total memory use is  94808 MB
 Warning: actual memory use might exceed 95000 MB

 Total QAlloc Memory Limit  95000 MB
 Mega-Array Size       188 MB
 MEM_STATIC part       192 MB

                       Distance Matrix (Angstroms)
             C (  1)   C (  2)   H (  3)   H (  4)   H (  5)   H (  6)
   C (  2)  1.329000
   H (  3)  1.082000  2.061931
   H (  4)  2.061931  1.082000  2.318160
   H (  5)  1.082000  2.061931  1.924697  3.013026
   H (  6)  2.061931  1.082000  3.013026  1.924697  2.318160
   H (  7)  3.072712  3.072712  2.344246  2.344246  4.128398  4.128398

 
 A cutoff of  1.0D-14 yielded    561 shell pairs
 There are      2337 function pairs (      2484 Cartesian)
 Smallest overlap matrix eigenvalue = 2.34E-04

 Scale SEOQF with 1.000000e-01/1.000000e-01/1.000000e-01

 Standard Electronic Orientation quadrupole field applied
 Nucleus-field energy     =    -0.0000000009 hartrees
 ================ Generating on-the-fly SAD Guess ================
Attempting to make child job directory: /src/jdavis/qchem.scratch/qchem1378//Frg1/
Attempting to make child job directory: /src/jdavis/qchem.scratch/qchem1378//Frg2/
Creating input file /src/jdavis/qchem.scratch/qchem1378/Frg1.input
using default PutDataFrgm: nothing
calling putenv with: QCSCRATCH=/src/jdavis/qchem.scratch/qchem1378/ 
Spawning Job For Fragment 0
Done Job For Fragment 0
calling putenv with: QCSCRATCH=/src/jdavis/qchem.scratch 
calling putenv with: QCTHREADS=1 
Creating input file /src/jdavis/qchem.scratch/qchem1378/Frg2.input
using default PutDataFrgm: nothing
calling putenv with: QCSCRATCH=/src/jdavis/qchem.scratch/qchem1378/ 
Spawning Job For Fragment 1
Done Job For Fragment 1
calling putenv with: QCSCRATCH=/src/jdavis/qchem.scratch 
calling putenv with: QCTHREADS=1 
 Time for running child jobs:  CPU 1.77 s  wall 54.35 s
 ============= Method Specific SAD Guess Constructed =============
 Guess from on-the-fly superposition of atomic densities
 Warning: Energy on first SCF cycle will be non-variational
 A restricted Hartree-Fock SCF calculation will be
 performed using Pulay DIIS extrapolation
 SCF converges when DIIS error is below 1.0E-08
 using 10 threads for integral computing
 -------------------------------------------------------
 OpenMP Integral computing Module                
 Release: version 1.0, May 2013, Q-Chem Inc. Pittsburgh 
 -------------------------------------------------------
 ---------------------------------------
  Cycle       Energy         DIIS Error
 ---------------------------------------
    1     -78.8154726444      7.37E-02
    2     -78.4589620393      6.97E-03
    3     -78.5061488390      1.74E-03
    4     -78.5088598503      5.60E-04
    5     -78.5091879698      1.21E-04
    6     -78.5092152348      2.91E-05
    7     -78.5092177890      7.82E-06
    8     -78.5092180182      1.12E-06
    9     -78.5092180236      2.62E-07
   10     -78.5092180240      5.43E-08
   11     -78.5092180240      1.20E-08
   12     -78.5092180240      1.61E-09 Convergence criterion met
 ---------------------------------------
 SCF time:  CPU 11.12 s  wall 1.12 s
 SCF   energy in the final basis set = -78.50921802
 Total energy in the final basis set = -78.50921802
================================================================================
|                                                                              |
|                                 A D C  M A N                                 |
|                                                                              |
 ------------------------------------------------------------------------------ 
|                                                                              |
| Components:                                                                  |
|                                                                              |
| - libvmm - 1.3-trunk                                                         |
|   Authors:                                                                   |
|   Evgeny Epifanovsky, Ilya Kaliman                                           |
|                                                                              |
| - libtensor - 2.5-trunk                                                      |
|   Authors:                                                                   |
|   Evgeny Epifanovsky, Michael Wormit, Dmitry Zuev, Sam Manzer,               |
|   Ilya Kaliman                                                               |
|                                                                              |
| - libwfa - 1.1-trunk                                                         |
|   Authors:                                                                   |
|   Felix Plasser, Stefanie Mewes (Baeppler), Benjamin Thomitzni,              |
|   Michael Wormit, Feng Chen, Anna I. Krylov, Pavel Pokhilko                  |
|                                                                              |
| - libadc - 1.1-trunk                                                         |
|   Authors:                                                                   |
|   Michael Wormit, Adrian L. Dempwolff, Philipp H. P. Harbach,                |
|   Caroline Krauter, Dirk Rehn, Matthias Schneider, Jan Wenzel                |
|                                                                              |
| - adcman - 2.6-trunk                                                         |
|   Authors:                                                                   |
|   Michael Wormit, Adrian L. Dempwolff, Philipp H. P. Harbach,                |
|   Caroline Krauter, Daniel Lefrancois, Jan-Michael Mewes, Dirk Rehn,         |
|   Matthias Schneider, Jan Wenzel, Andreas Dreuw                              |
|                                                                              |
| Authors of earlier versions of ADCMAN:                                       |
| Andreas Dreuw, Jan Hendrik Starcke, Dirk Rehn, Michael Wormit                |
|                                                                              |
================================================================================

 
 Alpha MOs, Restricted
 -- Occupied --                  
-11.065 -11.063  -0.871  -0.614  -0.488  -0.399  -0.342  -0.208
  1 A1    1 B1    2 A1    2 B1    3 A1    4 A1    3 B1    1 B2                 
 -0.024
  5 A1                                                                         
 -- Virtual --                   
  0.180   0.196   0.219   0.222   0.227   0.244   0.312   0.332
  4 B1    6 A1    2 B2    1 A2    7 A1    5 B1    8 A1    2 A2                 
  0.347   0.433   0.464   0.478   0.497   0.504   0.504   0.538
  6 B1    9 A1    7 B1   10 A1   11 A1    8 B1    3 B2    9 B1                 
  0.542   0.587   0.707   0.776   0.975   1.012   1.076   1.099
 12 A1    3 A2   10 B1   11 B1   13 A1   14 A1   15 A1   12 B1                 
  1.140   1.191   1.241   1.279   1.285   1.290   1.300   1.325
 16 A1   13 B1   17 A1    4 B2   18 A1    5 B2   14 B1    4 A2                 
  1.449   1.456   1.459   1.625   1.791   1.850   1.904   1.911
 15 B1    5 A2    6 B2   16 B1   19 A1   17 B1    7 B2   20 A1                 
  1.953   2.033   2.045   2.112   2.137   2.193   2.243   2.276
 18 B1   21 A1    6 A2    8 B2   19 B1    9 B2   22 A1   23 A1                 
  2.350   2.501   2.584   2.659   2.736   2.764   3.007   3.035
  7 A2   20 B1    8 A2   24 A1   21 B1   22 B1   25 A1   26 A1                 
  3.437   3.517
 23 B1   24 B1                                                                 
 
 Beta MOs, Restricted
 -- Occupied --                  
-11.065 -11.063  -0.871  -0.614  -0.488  -0.399  -0.342  -0.208
  1 A1    1 B1    2 A1    2 B1    3 A1    4 A1    3 B1    1 B2                 
 -0.024
  5 A1                                                                         
 -- Virtual --                   
  0.180   0.196   0.219   0.222   0.227   0.244   0.312   0.332
  4 B1    6 A1    2 B2    1 A2    7 A1    5 B1    8 A1    2 A2                 
  0.347   0.433   0.464   0.478   0.497   0.504   0.504   0.538
  6 B1    9 A1    7 B1   10 A1   11 A1    8 B1    3 B2    9 B1                 
  0.542   0.587   0.707   0.776   0.975   1.012   1.076   1.099
 12 A1    3 A2   10 B1   11 B1   13 A1   14 A1   15 A1   12 B1                 
  1.140   1.191   1.241   1.279   1.285   1.290   1.300   1.325
 16 A1   13 B1   17 A1    4 B2   18 A1    5 B2   14 B1    4 A2                 
  1.449   1.456   1.459   1.625   1.791   1.850   1.904   1.911
 15 B1    5 A2    6 B2   16 B1   19 A1   17 B1    7 B2   20 A1                 
  1.953   2.033   2.045   2.112   2.137   2.193   2.243   2.276
 18 B1   21 A1    6 A2    8 B2   19 B1    9 B2   22 A1   23 A1                 
  2.350   2.501   2.584   2.659   2.736   2.764   3.007   3.035
  7 A2   20 B1    8 A2   24 A1   21 B1   22 B1   25 A1   26 A1                 
  3.437   3.517
 23 B1   24 B1                                                                 

--------------------------------------------------------------------------------
                                   HF Summary                                   
--------------------------------------------------------------------------------
  Energy:                                                  -78.5092180240 a.u.
  Dip. moment [a.u.]:                  [  -0.000000,   -0.000000,   -4.341092]
  Total dipole [Debye]:                                              11.033958
  <r^2> [a.u.]:                        [  52.353704,   16.377781,   82.019812]
  Total <r^2> [a.u.]:                                               150.751297
--------------------------------------------------------------------------------

--------------------------------------------------------------------------------
                                 MP(2) Summary                                  
--------------------------------------------------------------------------------
  MP energy contribution:                                   -0.3062643014 a.u.
  Total energy:                                            -78.8154823254 a.u.
  Dip. moment [a.u.]:                  [  -0.000000,   -0.000000,   -4.229476]
  Total dipole [Debye]:                                              10.750259
  <r^2> [a.u.]:                        [  52.687296,   16.352662,   81.496444]
  Total <r^2> [a.u.]:                                               150.536402

  Density matrix analysis:
  ------------------------
  NOs
    Occupation of frontier NOs:
       0.0449   1.9359
    Number of electrons: 18.000000
    Number of unpaired electrons: n_u =  0.46121, n_u,nl =  0.05053
    NO participation ratio (PR_NO): 16.159094
  
  
  Mulliken Population Analysis
  Atom      Charge (e)              h+              e-           Del q
  --------------------------------------------------------------------
   1 C       -0.400508        0.088131       -0.112444       -0.024313
   2 C       -0.400508        0.088131       -0.112444       -0.024313
   3 H        0.175960        0.016394       -0.018812       -0.002418
   4 H        0.175960        0.016394       -0.018812       -0.002418
   5 H        0.045333        0.019478       -0.011544        0.007933
   6 H        0.045333        0.019478       -0.011544        0.007933
   7 H       -0.641569        0.051485       -0.013889        0.037596
  --------------------------------------------------------------------
  Sum:       -1.000000        0.299490       -0.299490        0.000000
  
  Multipole moment analysis of the density matrix
    Molecular charge:                      -1.000000
    Number of electrons:                   18.000000
      Center of electronic charge [Ang]: [  0.000000,   0.000000,   0.124341]
    Total nuclear charge:                  17.000000
      Center of nuclear charge [Ang]:    [ -0.000000,   0.000000,   0.000000]
    Dipole moment [D]:                     10.750256
      Cartesian components [D]:          [ -0.000000,  -0.000000, -10.750256]
    RMS size of the density [Ang]:         1.525272
      Cartesian components [Ang]:        [  0.905353,   0.504381,   1.119103]
  
  Exciton analysis of the difference density matrix
    <r_h> [Ang]:                  [ -0.000000,  -0.000000,   0.268226]
    <r_e> [Ang]:                  [ -0.000000,  -0.000000,   0.071009]
    |<r_e - r_h>| [Ang]:            0.197217
    Hole size [Ang]:                1.826053
      Cartesian components [Ang]: [  0.959997,   0.759190,   1.355177]
    Electron size [Ang]:            1.788978
      Cartesian components [Ang]: [  1.110635,   0.743561,   1.189139]
--------------------------------------------------------------------------------
Less singles guess vectors found than requested: 85 (found), 100 (requested).
Adjusting number of doubles guess vectors to 15.
  Starting Davidson for singlet states of irrep A2 ... 
--------------------------------------------------------------------------------
   It NVec Conv  Avg. Norm  Max. Norm  Conv. states           Remark
--------------------------------------------------------------------------------
       100    0  9.894e-02  4.577e-01  0.1326 n n n n n n n n Guess.
    1  110    0  1.368e-02  1.254e-01  0.0925 n n n n n n n n 
    2  120    0  2.108e-03  2.005e-02  0.0923 n n n n n n n n 
    3  130    0  5.475e-04  5.443e-03  0.0923 n n n n n n n n 
    4  140    9  1.467e-05  1.456e-04  0.0923 y y y y y y y y 
    5  150   10  4.787e-07  4.755e-06  0.0923 y y y y y y y y Converged.
--------------------------------------------------------------------------------
  Davidson Summary: 
 ------------------------------------------------------------
  State  0: excitation energy =   0.0923 a.u.   (converged)
  State  1: excitation energy =   0.1629 a.u.   (converged)
  State  2: excitation energy =   0.2418 a.u.   (converged)
  State  3: excitation energy =   0.3097 a.u.   (converged)
  State  4: excitation energy =   0.3515 a.u.   (converged)
  State  5: excitation energy =   0.3672 a.u.   (converged)
  State  6: excitation energy =   0.3816 a.u.   (converged)
  State  7: excitation energy =   0.4146 a.u.   (converged)
  State  8: excitation energy =   0.4442 a.u.   (converged)
  State  9: excitation energy =   0.4472 a.u.   (converged)
 ------------------------------------------------------------


--------------------------------------------------------------------------------
                   State-averaged natural transition orbitals
--------------------------------------------------------------------------------
--------------------------------------------------------------------------------

--------------------------------------------------------------------------------
                             Excited State Summary
--------------------------------------------------------------------------------
--------------------------------------------------------------------------------

  Excited state 1 (singlet, A2)                                    [converged]
  ----------------------------------------------------------------------------
  Term symbol:  1 (1) A2                                    R^2 =  3.20849e-09

  Total energy:                                            -78.7231456275 a.u.
  Excitation energy:                                               2.512609 eV

  Osc. strength:                                                      0.000000
  Trans. dip. moment [a.u.]:           [  -0.000000,   -0.000000,    0.000000]
  <i|r^2|0> [a.u.]:                    [   0.000000,    0.000000,    0.000000]

  Dip. moment [a.u.]:                  [  -0.000000,   -0.000000,    0.552718]
  Total dipole [Debye]:                                               1.404869
  <r^2> [a.u.]:                        [  64.420475,   27.175698,   59.043604]
  Total <r^2> [a.u.]:                                               150.639777

  V1^2 = 0.9323, V2^2 = 0.0677

  Important amplitudes:
      occ i      occ j       vir a       vir b          v   
    ---------------------------------------------------------
     5 (A1) A               1 (A2) A                  0.6184
     5 (A1) A               2 (A2) A                  0.2858
    ---------------------------------------------------------

  Density matrix analysis:
  ------------------------
  NOs
    Occupation of frontier NOs:
       0.9914   0.9929
    Number of electrons: 18.000000
    Number of unpaired electrons: n_u =  2.41534, n_u,nl =  2.04451
    NO participation ratio (PR_NO):  2.945856
  
  
  Mulliken Population Analysis
  Atom      Charge (e)              h+              e-           Del q
  --------------------------------------------------------------------
   1 C       -0.683157        0.258149       -0.540798       -0.282649
   2 C       -0.683157        0.258149       -0.540798       -0.282649
   3 H        0.115706        0.020109       -0.080362       -0.060254
   4 H        0.115706        0.020109       -0.080362       -0.060254
   5 H        0.052568        0.011607       -0.004371        0.007236
   6 H        0.052568        0.011607       -0.004371        0.007236
   7 H        0.029765        0.701013       -0.029679        0.671334
  --------------------------------------------------------------------
  Sum:       -1.000000        1.280742       -1.280742       -0.000000
  
  Multipole moment analysis of the density matrix
    Molecular charge:                      -1.000000
    Number of electrons:                   18.000000
      Center of electronic charge [Ang]: [  0.000000,   0.000000,  -0.016249]
    Total nuclear charge:                  17.000000
      Center of nuclear charge [Ang]:    [ -0.000000,   0.000000,   0.000000]
    Dipole moment [D]:                     1.404868
      Cartesian components [D]:          [ -0.000000,  -0.000000,   1.404868]
    RMS size of the density [Ang]:         1.530771
      Cartesian components [Ang]:        [  1.001099,   0.650212,   0.958272]
  
  Exciton analysis of the difference density matrix
    <r_h> [Ang]:                  [  0.000000,   0.000000,   2.001620]
    <r_e> [Ang]:                  [  0.000000,   0.000000,   0.025712]
    |<r_e - r_h>| [Ang]:            1.975908
    Hole size [Ang]:                2.071040
      Cartesian components [Ang]: [  0.981075,   0.903055,   1.584675]
    Electron size [Ang]:            2.884031
      Cartesian components [Ang]: [  1.878274,   1.783793,   1.267992]

  Transition density matrix analysis:
  -----------------------------------
  
  CT numbers (Mulliken)
    omega =     0.9136
    <Phe> =     0.0002
  
  Exciton analysis of the transition density matrix
    Trans. dipole moment [D]:             0.000000
      Cartesian components [D]:         [ -0.000000,  -0.000000,   0.000000]
    <r_h> [Ang]:                        [  0.000000,   0.000000,   2.631798]
    <r_e> [Ang]:                        [  0.000000,   0.000000,  -0.175532]
    |<r_e - r_h>| [Ang]:                  2.807330
    Hole size [Ang]:                      1.503211
      Cartesian components [Ang]:       [  0.790468,   0.773589,   1.018020]
    Electron size [Ang]:                  3.022780
      Cartesian components [Ang]:       [  2.018530,   1.946344,   1.128930]
    RMS electron-hole separation [Ang]:   4.388200
      Cartesian components [Ang]:       [  2.163412,   2.093907,   3.192413]
    Covariance(r_h, r_e) [Ang^2]:         0.010823
    Correlation coefficient:              0.002382
    Center-of-mass size [Ang]:            1.689563
      Cartesian components [Ang]:       [  1.086077,   1.047490,   0.760147]

  Decomposition into state-averaged NTOs
    H- 1 -> L+ 0: -0.6145 ( 75.5%)
    H- 1 -> L+ 1: -0.2677 ( 14.3%)
    H- 1 -> L+ 6: -0.0859 (  1.5%)
                   omega =  91.4%
  ----------------------------------------------------------------------------


  Excited state 2 (singlet, A2)                                    [converged]
  ----------------------------------------------------------------------------
  Term symbol:  2 (1) A2                                    R^2 =  6.42034e-09

  Total energy:                                            -78.6525996350 a.u.
  Excitation energy:                                               4.432263 eV

  Osc. strength:                                                      0.000000
  Trans. dip. moment [a.u.]:           [   0.000000,   -0.000000,   -0.000000]
  <i|r^2|0> [a.u.]:                    [  -0.000000,    0.000000,    0.000000]

  Dip. moment [a.u.]:                  [  -0.000000,    0.000000,    0.566997]
  Total dipole [Debye]:                                               1.441162
  <r^2> [a.u.]:                        [  67.527000,   30.311834,   60.162157]
  Total <r^2> [a.u.]:                                               158.000991

  V1^2 = 0.9264, V2^2 = 0.0736

  Important amplitudes:
      occ i      occ j       vir a       vir b          v   
    ---------------------------------------------------------
     5 (A1) A               2 (A2) A                 -0.6039
     5 (A1) A               1 (A2) A                  0.2949
    ---------------------------------------------------------

  Density matrix analysis:
  ------------------------
  NOs
    Occupation of frontier NOs:
       0.9885   0.9906
    Number of electrons: 18.000000
    Number of unpaired electrons: n_u =  2.42559, n_u,nl =  2.04749
    NO participation ratio (PR_NO):  2.985447
  
  
  Mulliken Population Analysis
  Atom      Charge (e)              h+              e-           Del q
  --------------------------------------------------------------------
   1 C       -0.659146        0.269373       -0.528011       -0.258637
   2 C       -0.659146        0.269373       -0.528011       -0.258637
   3 H        0.103996        0.018499       -0.090463       -0.071964
   4 H        0.103996        0.018499       -0.090463       -0.071964
   5 H        0.038557        0.008423       -0.015199       -0.006776
   6 H        0.038557        0.008423       -0.015199       -0.006776
   7 H        0.033186        0.703523       -0.028767        0.674755
  --------------------------------------------------------------------
  Sum:       -1.000000        1.296112       -1.296112       -0.000000
  
  Multipole moment analysis of the density matrix
    Molecular charge:                      -1.000000
    Number of electrons:                   18.000000
      Center of electronic charge [Ang]: [  0.000000,  -0.000000,  -0.016669]
    Total nuclear charge:                  17.000000
      Center of nuclear charge [Ang]:    [ -0.000000,   0.000000,   0.000000]
    Dipole moment [D]:                     1.441161
      Cartesian components [D]:          [ -0.000000,   0.000000,   1.441161]
    RMS size of the density [Ang]:         1.567726
      Cartesian components [Ang]:        [  1.024952,   0.686706,   0.967302]
  
  Exciton analysis of the difference density matrix
    <r_h> [Ang]:                  [  0.000000,   0.000000,   1.981371]
    <r_e> [Ang]:                  [  0.000000,  -0.000000,   0.023065]
    |<r_e - r_h>| [Ang]:            1.958306
    Hole size [Ang]:                2.055486
      Cartesian components [Ang]: [  0.968519,   0.881758,   1.584139]
    Electron size [Ang]:            3.124590
      Cartesian components [Ang]: [  2.035728,   1.947669,   1.351097]

  Transition density matrix analysis:
  -----------------------------------
  
  CT numbers (Mulliken)
    omega =     0.9075
    <Phe> =    -0.0002
  
  Exciton analysis of the transition density matrix
    Trans. dipole moment [D]:             0.000000
      Cartesian components [D]:         [  0.000000,  -0.000000,  -0.000000]
    <r_h> [Ang]:                        [  0.000000,   0.000000,   2.631272]
    <r_e> [Ang]:                        [  0.000000,  -0.000000,  -0.175520]
    |<r_e - r_h>| [Ang]:                  2.806792
    Hole size [Ang]:                      1.503598
      Cartesian components [Ang]:       [  0.790240,   0.773411,   1.018903]
    Electron size [Ang]:                  3.351642
      Cartesian components [Ang]:       [  2.222727,   2.170300,   1.258088]
    RMS electron-hole separation [Ang]:   4.621301
      Cartesian components [Ang]:       [  2.356557,   2.303208,   3.240108]
    Covariance(r_h, r_e) [Ang^2]:         0.007983
    Correlation coefficient:              0.001584
    Center-of-mass size [Ang]:            1.837816
      Cartesian components [Ang]:       [  1.180745,   1.152385,   0.809580]

  Decomposition into state-averaged NTOs
    H- 1 -> L+ 1: -0.6135 ( 75.3%)
    H- 1 -> L+ 0:  0.2641 ( 13.9%)
    H- 1 -> L+ 6: -0.0860 (  1.5%)
                   omega =  90.7%
  ----------------------------------------------------------------------------


  Excited state 3 (singlet, A2)                                    [converged]
  ----------------------------------------------------------------------------
  Term symbol:  3 (1) A2                                    R^2 =  1.16865e-08

  Total energy:                                            -78.5736667330 a.u.
  Excitation energy:                                               6.580137 eV

  Osc. strength:                                                      0.000000
  Trans. dip. moment [a.u.]:           [  -0.000000,   -0.000000,   -0.000000]
  <i|r^2|0> [a.u.]:                    [  -0.000000,   -0.000000,   -0.000000]

  Dip. moment [a.u.]:                  [   0.000000,   -0.000000,   -2.556843]
  Total dipole [Debye]:                                               6.498848
  <r^2> [a.u.]:                        [  84.704765,   21.178633,   89.355913]
  Total <r^2> [a.u.]:                                               195.239310

  V1^2 = 0.9425, V2^2 = 0.0575

  Important amplitudes:
      occ i      occ j       vir a       vir b          v   
    ---------------------------------------------------------
     1 (B2) A               4 (B1) A                 -0.6727
     1 (B2) A               6 (B1) A                  0.1071
    ---------------------------------------------------------

  Density matrix analysis:
  ------------------------
  NOs
    Occupation of frontier NOs:
       0.9821   0.9934
    Number of electrons: 18.000000
    Number of unpaired electrons: n_u =  2.34572, n_u,nl =  2.02875
    NO participation ratio (PR_NO):  2.809084
  
  
  Mulliken Population Analysis
  Atom      Charge (e)              h+              e-           Del q
  --------------------------------------------------------------------
   1 C       -0.516585        0.546431       -0.662508       -0.116077
   2 C       -0.516585        0.546431       -0.662508       -0.116077
   3 H        0.235641        0.069996       -0.010314        0.059681
   4 H        0.235641        0.069996       -0.010314        0.059681
   5 H        0.094624        0.115702       -0.066411        0.049291
   6 H        0.094624        0.115702       -0.066411        0.049291
   7 H       -0.627359        0.037744       -0.023534        0.014209
  --------------------------------------------------------------------
  Sum:       -1.000000        1.502000       -1.502000       -0.000000
  
  Multipole moment analysis of the density matrix
    Molecular charge:                      -1.000000
    Number of electrons:                   18.000000
      Center of electronic charge [Ang]: [ -0.000000,   0.000000,   0.075168]
    Total nuclear charge:                  17.000000
      Center of nuclear charge [Ang]:    [ -0.000000,   0.000000,   0.000000]
    Dipole moment [D]:                     6.498846
      Cartesian components [D]:          [  0.000000,  -0.000000,  -6.498846]
    RMS size of the density [Ang]:         1.741182
      Cartesian components [Ang]:        [  1.147939,   0.574003,   1.176636]
  
  Exciton analysis of the difference density matrix
    <r_h> [Ang]:                  [ -0.000000,  -0.000000,  -0.130513]
    <r_e> [Ang]:                  [ -0.000000,   0.000000,  -0.719807]
    |<r_e - r_h>| [Ang]:            0.589294
    Hole size [Ang]:                1.758870
      Cartesian components [Ang]: [  1.082284,   0.902494,   1.052516]
    Electron size [Ang]:            3.305573
      Cartesian components [Ang]: [  2.672187,   1.309288,   1.439444]

  Transition density matrix analysis:
  -----------------------------------
  
  CT numbers (Mulliken)
    omega =     0.9117
    <Phe> =    -0.0025
  
  Exciton analysis of the transition density matrix
    Trans. dipole moment [D]:             0.000000
      Cartesian components [D]:         [ -0.000000,  -0.000000,  -0.000000]
    <r_h> [Ang]:                        [ -0.000000,  -0.000000,  -0.183976]
    <r_e> [Ang]:                        [ -0.000000,   0.000000,  -1.079758]
    |<r_e - r_h>| [Ang]:                  0.895782
    Hole size [Ang]:                      1.280129
      Cartesian components [Ang]:       [  0.765164,   0.883803,   0.521676]
    Electron size [Ang]:                  3.839629
      Cartesian components [Ang]:       [  3.192487,   1.540035,   1.476166]
    RMS electron-hole separation [Ang]:   4.137392
      Cartesian components [Ang]:       [  3.276201,   1.769906,   1.803316]
    Covariance(r_h, r_e) [Ang^2]:         0.032946
    Correlation coefficient:              0.006703
    Center-of-mass size [Ang]:            2.027768
      Cartesian components [Ang]:       [  1.644795,   0.890655,   0.783087]

  Decomposition into state-averaged NTOs
    H- 0 -> L+ 5: -0.5206 ( 54.2%)
    H- 0 -> L+ 3:  0.3312 ( 21.9%)
    H- 0 -> L+ 4: -0.2737 ( 15.0%)
                   omega =  91.2%
  ----------------------------------------------------------------------------


  Excited state 4 (singlet, A2)                                    [converged]
  ----------------------------------------------------------------------------
  Term symbol:  4 (1) A2                                    R^2 =  2.10400e-08

  Total energy:                                            -78.5057403670 a.u.
  Excitation energy:                                               8.428507 eV

  Osc. strength:                                                      0.000000
  Trans. dip. moment [a.u.]:           [  -0.000000,   -0.000000,    0.000000]
  <i|r^2|0> [a.u.]:                    [   0.000000,    0.000000,    0.000000]

  Dip. moment [a.u.]:                  [   0.000000,    0.000000,   -5.042753]
  Total dipole [Debye]:                                              12.817402
  <r^2> [a.u.]:                        [  76.640165,   20.395323,   98.734689]
  Total <r^2> [a.u.]:                                               195.770178

  V1^2 = 0.9427, V2^2 = 0.0573

  Important amplitudes:
      occ i      occ j       vir a       vir b          v   
    ---------------------------------------------------------
     1 (B2) A               5 (B1) A                  0.6781
     1 (B2) A               8 (B1) A                  0.0743
    ---------------------------------------------------------

  Density matrix analysis:
  ------------------------
  NOs
    Occupation of frontier NOs:
       0.9829   0.9956
    Number of electrons: 18.000000
    Number of unpaired electrons: n_u =  2.34289, n_u,nl =  2.02801
    NO participation ratio (PR_NO):  2.793986
  
  
  Mulliken Population Analysis
  Atom      Charge (e)              h+              e-           Del q
  --------------------------------------------------------------------
   1 C       -0.492185        0.538675       -0.630352       -0.091677
   2 C       -0.492185        0.538675       -0.630352       -0.091677
   3 H        0.195714        0.082785       -0.063031        0.019754
   4 H        0.195714        0.082785       -0.063031        0.019754
   5 H        0.095161        0.102887       -0.053059        0.049829
   6 H        0.095161        0.102887       -0.053059        0.049829
   7 H       -0.597381        0.054436       -0.010248        0.044188
  --------------------------------------------------------------------
  Sum:       -1.000000        1.503132       -1.503132       -0.000000
  
  Multipole moment analysis of the density matrix
    Molecular charge:                      -1.000000
    Number of electrons:                   18.000000
      Center of electronic charge [Ang]: [ -0.000000,  -0.000000,   0.148251]
    Total nuclear charge:                  17.000000
      Center of nuclear charge [Ang]:    [ -0.000000,   0.000000,   0.000000]
    Dipole moment [D]:                     12.817398
      Cartesian components [D]:          [  0.000000,   0.000000, -12.817398]
    RMS size of the density [Ang]:         1.738863
      Cartesian components [Ang]:        [  1.091926,   0.563288,   1.230468]
  
  Exciton analysis of the difference density matrix
    <r_h> [Ang]:                  [ -0.000000,  -0.000000,  -0.070931]
    <r_e> [Ang]:                  [ -0.000000,  -0.000000,   0.215383]
    |<r_e - r_h>| [Ang]:            0.286314
    Hole size [Ang]:                1.740577
      Cartesian components [Ang]: [  1.062468,   0.887403,   1.055123]
    Electron size [Ang]:            3.378632
      Cartesian components [Ang]: [  2.364567,   1.241216,   2.069627]

  Transition density matrix analysis:
  -----------------------------------
  
  CT numbers (Mulliken)
    omega =     0.9117
    <Phe> =    -0.0006
  
  Exciton analysis of the transition density matrix
    Trans. dipole moment [D]:             0.000000
      Cartesian components [D]:         [ -0.000000,  -0.000000,   0.000000]
    <r_h> [Ang]:                        [ -0.000000,  -0.000000,  -0.183571]
    <r_e> [Ang]:                        [ -0.000000,  -0.000000,   0.318432]
    |<r_e - r_h>| [Ang]:                  0.502003
    Hole size [Ang]:                      1.279941
      Cartesian components [Ang]:       [  0.764911,   0.884007,   0.521240]
    Electron size [Ang]:                  3.991886
      Cartesian components [Ang]:       [  2.807227,   1.454048,   2.437288]
    RMS electron-hole separation [Ang]:   4.217734
      Cartesian components [Ang]:       [  2.903897,   1.701395,   2.542031]
    Covariance(r_h, r_e) [Ang^2]:         0.018062
    Correlation coefficient:              0.003535
    Center-of-mass size [Ang]:            2.098185
      Cartesian components [Ang]:       [  1.457619,   0.850985,   1.246416]

  Decomposition into state-averaged NTOs
    H- 0 -> L+ 4: -0.5982 ( 71.6%)
    H- 0 -> L+ 3: -0.2816 ( 15.9%)
    H- 0 -> L+ 5:  0.1360 (  3.7%)
                   omega =  91.2%
  ----------------------------------------------------------------------------


  Excited state 5 (singlet, A2)                                    [converged]
  ----------------------------------------------------------------------------
  Term symbol:  5 (1) A2                                    R^2 =  2.60123e-07

  Total energy:                                            -78.4639811928 a.u.
  Excitation energy:                                               9.564832 eV

  Osc. strength:                                                      0.000000
  Trans. dip. moment [a.u.]:           [  -0.000000,   -0.000000,   -0.000000]
  <i|r^2|0> [a.u.]:                    [   0.000000,    0.000000,    0.000000]

  Dip. moment [a.u.]:                  [  -0.000000,   -0.000000,   -4.164025]
  Total dipole [Debye]:                                              10.583899
  <r^2> [a.u.]:                        [  54.027572,   20.157683,   81.221802]
  Total <r^2> [a.u.]:                                               155.407058

  V1^2 = 0.9532, V2^2 = 0.0468

  Important amplitudes:
      occ i      occ j       vir a       vir b          v   
    ---------------------------------------------------------
     4 (A1) A               2 (A2) A                  0.5126
     4 (A1) A               1 (A2) A                  0.4319
    ---------------------------------------------------------

  Density matrix analysis:
  ------------------------
  NOs
    Occupation of frontier NOs:
       0.9888   1.0064
    Number of electrons: 18.000000
    Number of unpaired electrons: n_u =  2.40364, n_u,nl =  2.04014
    NO participation ratio (PR_NO):  2.924703
  
  
  Mulliken Population Analysis
  Atom      Charge (e)              h+              e-           Del q
  --------------------------------------------------------------------
   1 C       -0.531060        0.441931       -0.572483       -0.130552
   2 C       -0.531060        0.441931       -0.572483       -0.130552
   3 H        0.237257        0.070805       -0.009508        0.061297
   4 H        0.237257        0.070805       -0.009508        0.061297
   5 H        0.113114        0.074729       -0.006947        0.067782
   6 H        0.113114        0.074729       -0.006947        0.067782
   7 H       -0.638622        0.008596       -0.005649        0.002947
  --------------------------------------------------------------------
  Sum:       -1.000000        1.183525       -1.183525        0.000000
  
  Multipole moment analysis of the density matrix
    Molecular charge:                      -1.000000
    Number of electrons:                   18.000000
      Center of electronic charge [Ang]: [  0.000000,   0.000000,   0.122417]
    Total nuclear charge:                  17.000000
      Center of nuclear charge [Ang]:    [ -0.000000,   0.000000,   0.000000]
    Dipole moment [D]:                     10.583896
      Cartesian components [D]:          [ -0.000000,  -0.000000, -10.583896]
    RMS size of the density [Ang]:         1.550066
      Cartesian components [Ang]:        [  0.916796,   0.559996,   1.117405]
  
  Exciton analysis of the difference density matrix
    <r_h> [Ang]:                  [ -0.000000,   0.000000,  -0.139338]
    <r_e> [Ang]:                  [  0.000000,   0.000000,  -0.168603]
    |<r_e - r_h>| [Ang]:            0.029264
    Hole size [Ang]:                1.476399
      Cartesian components [Ang]: [  1.123647,   0.567164,   0.771683]
    Electron size [Ang]:            1.822955
      Cartesian components [Ang]: [  1.256861,   1.105425,   0.722150]

  Transition density matrix analysis:
  -----------------------------------
  
  CT numbers (Mulliken)
    omega =     0.9213
    <Phe> =    -0.0153
  
  Exciton analysis of the transition density matrix
    Trans. dipole moment [D]:             0.000000
      Cartesian components [D]:         [ -0.000000,  -0.000000,  -0.000000]
    <r_h> [Ang]:                        [  0.000000,   0.000000,  -0.144153]
    <r_e> [Ang]:                        [  0.000000,   0.000000,  -0.184999]
    |<r_e - r_h>| [Ang]:                  0.040846
    Hole size [Ang]:                      1.299806
      Cartesian components [Ang]:       [  1.074198,   0.413144,   0.604075]
    Electron size [Ang]:                  1.895622
      Cartesian components [Ang]:       [  1.317760,   1.169807,   0.698888]
    RMS electron-hole separation [Ang]:   2.281757
      Cartesian components [Ang]:       [  1.677296,   1.240154,   0.924722]
    Covariance(r_h, r_e) [Ang^2]:         0.039066
    Correlation coefficient:              0.015855
    Center-of-mass size [Ang]:            1.157693
      Cartesian components [Ang]:       [  0.861317,   0.620542,   0.461860]

  Decomposition into state-averaged NTOs
    H- 2 -> L+ 0: -0.6722 ( 90.4%)
                   omega =  92.1%
  ----------------------------------------------------------------------------


  Excited state 6 (singlet, A2)                                    [converged]
  ----------------------------------------------------------------------------
  Term symbol:  6 (1) A2                                    R^2 =  1.21117e-07

  Total energy:                                            -78.4483064466 a.u.
  Excitation energy:                                               9.991364 eV

  Osc. strength:                                                      0.000000
  Trans. dip. moment [a.u.]:           [   0.000000,    0.000000,    0.000000]
  <i|r^2|0> [a.u.]:                    [   0.000000,    0.000000,    0.000000]

  Dip. moment [a.u.]:                  [   0.000000,    0.000000,   -4.089933]
  Total dipole [Debye]:                                              10.395575
  <r^2> [a.u.]:                        [  56.886350,   42.109658,   85.285117]
  Total <r^2> [a.u.]:                                               184.281125

  V1^2 = 0.9349, V2^2 = 0.0651

  Important amplitudes:
      occ i      occ j       vir a       vir b          v   
    ---------------------------------------------------------
     3 (B1) A               2 (B2) A                  0.6745
     3 (B1) A               3 (B2) A                  0.1047
    ---------------------------------------------------------

  Density matrix analysis:
  ------------------------
  NOs
    Occupation of frontier NOs:
       0.9940   1.0210
    Number of electrons: 18.000000
    Number of unpaired electrons: n_u =  2.48671, n_u,nl =  2.07703
    NO participation ratio (PR_NO):  3.143243
  
  
  Mulliken Population Analysis
  Atom      Charge (e)              h+              e-           Del q
  --------------------------------------------------------------------
   1 C       -0.710681        0.317994       -0.628166       -0.310172
   2 C       -0.710681        0.317994       -0.628166       -0.310172
   3 H        0.312133        0.157604       -0.021431        0.136173
   4 H        0.312133        0.157604       -0.021431        0.136173
   5 H        0.210541        0.175536       -0.010327        0.165209
   6 H        0.210541        0.175536       -0.010327        0.165209
   7 H       -0.623988        0.036838       -0.019257        0.017581
  --------------------------------------------------------------------
  Sum:       -1.000000        1.339107       -1.339107        0.000000
  
  Multipole moment analysis of the density matrix
    Molecular charge:                      -1.000000
    Number of electrons:                   18.000000
      Center of electronic charge [Ang]: [ -0.000000,  -0.000000,   0.120239]
    Total nuclear charge:                  17.000000
      Center of nuclear charge [Ang]:    [ -0.000000,   0.000000,   0.000000]
    Dipole moment [D]:                     10.395572
      Cartesian components [D]:          [  0.000000,   0.000000, -10.395572]
    RMS size of the density [Ang]:         1.688914
      Cartesian components [Ang]:        [  0.940738,   0.809386,   1.145572]
  
  Exciton analysis of the difference density matrix
    <r_h> [Ang]:                  [ -0.000000,  -0.000000,  -0.057309]
    <r_e> [Ang]:                  [ -0.000000,  -0.000000,  -0.112452]
    |<r_e - r_h>| [Ang]:            0.055144
    Hole size [Ang]:                1.826513
      Cartesian components [Ang]: [  1.204784,   0.670105,   1.198168]
    Electron size [Ang]:            3.222320
      Cartesian components [Ang]: [  1.526300,   2.415624,   1.489468]

  Transition density matrix analysis:
  -----------------------------------
  
  CT numbers (Mulliken)
    omega =     0.9187
    <Phe> =    -0.0007
  
  Exciton analysis of the transition density matrix
    Trans. dipole moment [D]:             0.000000
      Cartesian components [D]:         [  0.000000,   0.000000,   0.000000]
    <r_h> [Ang]:                        [ -0.000000,   0.000000,  -0.124994]
    <r_e> [Ang]:                        [ -0.000000,  -0.000000,  -0.176437]
    |<r_e - r_h>| [Ang]:                  0.051443
    Hole size [Ang]:                      1.522807
      Cartesian components [Ang]:       [  1.126704,   0.417197,   0.935641]
    Electron size [Ang]:                  3.592711
      Cartesian components [Ang]:       [  1.651329,   2.763192,   1.595448]
    RMS electron-hole separation [Ang]:   3.868646
      Cartesian components [Ang]:       [  1.933262,   2.793925,   1.850110]
    Covariance(r_h, r_e) [Ang^2]:         0.131368
    Correlation coefficient:              0.024012
    Center-of-mass size [Ang]:            1.967819
      Cartesian components [Ang]:       [  1.031407,   1.397547,   0.924865]

  Decomposition into state-averaged NTOs
    H- 3 -> L+ 2: -0.6769 ( 91.6%)
                   omega =  91.9%
  ----------------------------------------------------------------------------


  Excited state 7 (singlet, A2)                                    [converged]
  ----------------------------------------------------------------------------
  Term symbol:  7 (1) A2                                    R^2 =  2.54365e-07

  Total energy:                                            -78.4339298748 a.u.
  Excitation energy:                                              10.382570 eV

  Osc. strength:                                                      0.000000
  Trans. dip. moment [a.u.]:           [  -0.000000,   -0.000000,    0.000000]
  <i|r^2|0> [a.u.]:                    [   0.000000,   -0.000000,   -0.000000]

  Dip. moment [a.u.]:                  [   0.000000,    0.000000,   -3.838675]
  Total dipole [Debye]:                                               9.756939
  <r^2> [a.u.]:                        [  76.778262,   22.635363,   88.786316]
  Total <r^2> [a.u.]:                                               188.199940

  V1^2 = 0.9447, V2^2 = 0.0553

  Important amplitudes:
      occ i      occ j       vir a       vir b          v   
    ---------------------------------------------------------
     1 (B2) A               6 (B1) A                  0.6594
     1 (B2) A               4 (B1) A                  0.1171
    ---------------------------------------------------------

  Density matrix analysis:
  ------------------------
  NOs
    Occupation of frontier NOs:
       0.9837   0.9856
    Number of electrons: 18.000000
    Number of unpaired electrons: n_u =  2.35094, n_u,nl =  2.03032
    NO participation ratio (PR_NO):  2.838573
  
  
  Mulliken Population Analysis
  Atom      Charge (e)              h+              e-           Del q
  --------------------------------------------------------------------
   1 C       -0.571430        0.534106       -0.705028       -0.170922
   2 C       -0.571430        0.534106       -0.705028       -0.170922
   3 H        0.169378        0.065537       -0.072119       -0.006582
   4 H        0.169378        0.065537       -0.072119       -0.006582
   5 H        0.207977        0.101816        0.060828        0.162644
   6 H        0.207977        0.101816        0.060828        0.162644
   7 H       -0.611848        0.040576       -0.010855        0.029720
  --------------------------------------------------------------------
  Sum:       -1.000000        1.443494       -1.443494       -0.000000
  
  Multipole moment analysis of the density matrix
    Molecular charge:                      -1.000000
    Number of electrons:                   18.000000
      Center of electronic charge [Ang]: [ -0.000000,  -0.000000,   0.112852]
    Total nuclear charge:                  17.000000
      Center of nuclear charge [Ang]:    [ -0.000000,   0.000000,   0.000000]
    Dipole moment [D]:                     9.756936
      Cartesian components [D]:          [  0.000000,   0.000000,  -9.756936]
    RMS size of the density [Ang]:         1.707371
      Cartesian components [Ang]:        [  1.092909,   0.593415,   1.169840]
  
  Exciton analysis of the difference density matrix
    <r_h> [Ang]:                  [ -0.000000,  -0.000000,  -0.113310]
    <r_e> [Ang]:                  [ -0.000000,  -0.000000,  -0.256576]
    |<r_e - r_h>| [Ang]:            0.143266
    Hole size [Ang]:                1.712220
      Cartesian components [Ang]: [  1.063105,   0.890391,   1.004346]
    Electron size [Ang]:            3.191424
      Cartesian components [Ang]: [  2.409084,   1.418309,   1.539450]

  Transition density matrix analysis:
  -----------------------------------
  
  CT numbers (Mulliken)
    omega =     0.9133
    <Phe> =    -0.0034
  
  Exciton analysis of the transition density matrix
    Trans. dipole moment [D]:             0.000000
      Cartesian components [D]:         [ -0.000000,  -0.000000,   0.000000]
    <r_h> [Ang]:                        [ -0.000000,  -0.000000,  -0.183010]
    <r_e> [Ang]:                        [ -0.000000,  -0.000000,  -0.359440]
    |<r_e - r_h>| [Ang]:                  0.176430
    Hole size [Ang]:                      1.278934
      Cartesian components [Ang]:       [  0.764852,   0.881652,   0.522842]
    Electron size [Ang]:                  3.688891
      Cartesian components [Ang]:       [  2.807362,   1.653827,   1.729593]
    RMS electron-hole separation [Ang]:   3.899406
      Cartesian components [Ang]:       [  2.904151,   1.865161,   1.814511]
    Covariance(r_h, r_e) [Ang^2]:         0.034676
    Correlation coefficient:              0.007350
    Center-of-mass size [Ang]:            1.956588
      Cartesian components [Ang]:       [  1.457607,   0.941552,   0.903934]

  Decomposition into state-averaged NTOs
    H- 0 -> L+ 3:  0.5170 ( 53.5%)
    H- 0 -> L+ 5:  0.4059 ( 33.0%)
    H- 0 -> L+ 4: -0.1506 (  4.5%)
                   omega =  91.3%
  ----------------------------------------------------------------------------


  Excited state 8 (singlet, A2)                                    [converged]
  ----------------------------------------------------------------------------
  Term symbol:  8 (1) A2                                    R^2 =  2.20760e-07

  Total energy:                                            -78.4009298768 a.u.
  Excitation energy:                                              11.280546 eV

  Osc. strength:                                                      0.000000
  Trans. dip. moment [a.u.]:           [   0.000000,    0.000000,    0.000000]
  <i|r^2|0> [a.u.]:                    [  -0.000000,   -0.000000,   -0.000000]

  Dip. moment [a.u.]:                  [   0.000000,   -0.000000,    0.562034]
  Total dipole [Debye]:                                               1.428549
  <r^2> [a.u.]:                        [  63.547121,   26.965852,   58.957347]
  Total <r^2> [a.u.]:                                               149.470320

  V1^2 = 0.9185, V2^2 = 0.0815

  Important amplitudes:
      occ i      occ j       vir a       vir b          v   
    ---------------------------------------------------------
     5 (A1) A               3 (A2) A                 -0.6627
     5 (A1) A               2 (A2) A                 -0.1256
    ---------------------------------------------------------

  Density matrix analysis:
  ------------------------
  NOs
    Occupation of frontier NOs:
       0.9669   0.9909
    Number of electrons: 18.000000
    Number of unpaired electrons: n_u =  2.47277, n_u,nl =  2.06660
    NO participation ratio (PR_NO):  3.160064
  
  
  Mulliken Population Analysis
  Atom      Charge (e)              h+              e-           Del q
  --------------------------------------------------------------------
   1 C       -0.673844        0.255508       -0.528843       -0.273335
   2 C       -0.673844        0.255508       -0.528843       -0.273335
   3 H        0.111273        0.014430       -0.079117       -0.064687
   4 H        0.111273        0.014430       -0.079117       -0.064687
   5 H        0.045753        0.007327       -0.006907        0.000420
   6 H        0.045753        0.007327       -0.006907        0.000420
   7 H        0.033635        0.703007       -0.027803        0.675204
  --------------------------------------------------------------------
  Sum:       -1.000000        1.257538       -1.257538        0.000000
  
  Multipole moment analysis of the density matrix
    Molecular charge:                      -1.000000
    Number of electrons:                   18.000000
      Center of electronic charge [Ang]: [ -0.000000,   0.000000,  -0.016523]
    Total nuclear charge:                  17.000000
      Center of nuclear charge [Ang]:    [ -0.000000,   0.000000,   0.000000]
    Dipole moment [D]:                     1.428548
      Cartesian components [D]:          [  0.000000,  -0.000000,   1.428548]
    RMS size of the density [Ang]:         1.524814
      Cartesian components [Ang]:        [  0.994289,   0.647697,   0.957567]
  
  Exciton analysis of the difference density matrix
    <r_h> [Ang]:                  [  0.000000,   0.000000,   2.035689]
    <r_e> [Ang]:                  [  0.000000,   0.000000,   0.019400]
    |<r_e - r_h>| [Ang]:            2.016288
    Hole size [Ang]:                2.041088
      Cartesian components [Ang]: [  0.966651,   0.887518,   1.563310]
    Electron size [Ang]:            2.841179
      Cartesian components [Ang]: [  1.831033,   1.775115,   1.252431]

  Transition density matrix analysis:
  -----------------------------------
  
  CT numbers (Mulliken)
    omega =     0.9054
    <Phe> =    -0.0000
  
  Exciton analysis of the transition density matrix
    Trans. dipole moment [D]:             0.000000
      Cartesian components [D]:         [  0.000000,   0.000000,   0.000000]
    <r_h> [Ang]:                        [  0.000000,   0.000000,   2.620365]
    <r_e> [Ang]:                        [  0.000000,  -0.000000,  -0.176399]
    |<r_e - r_h>| [Ang]:                  2.796764
    Hole size [Ang]:                      1.513276
      Cartesian components [Ang]:       [  0.790678,   0.772124,   1.033759]
    Electron size [Ang]:                  2.971790
      Cartesian components [Ang]:       [  1.956679,   1.936608,   1.119147]
    RMS electron-hole separation [Ang]:   4.351907
      Cartesian components [Ang]:       [  2.108883,   2.085595,   3.184651]
    Covariance(r_h, r_e) [Ang^2]:         0.002166
    Correlation coefficient:              0.000482
    Center-of-mass size [Ang]:            1.667773
      Cartesian components [Ang]:       [  1.055952,   1.042059,   0.761936]

  Decomposition into state-averaged NTOs
    H- 1 -> L+ 6:  0.6601 ( 87.1%)
    H- 1 -> L+ 1: -0.1201 (  2.9%)
                   omega =  90.5%
  ----------------------------------------------------------------------------


  Excited state 9 (singlet, A2)                                    [converged]
  ----------------------------------------------------------------------------
  Term symbol:  9 (1) A2                                    R^2 =  4.75532e-06

  Total energy:                                            -78.3713287952 a.u.
  Excitation energy:                                              12.086032 eV

  Osc. strength:                                                      0.000000
  Trans. dip. moment [a.u.]:           [  -0.000000,    0.000000,    0.000000]
  <i|r^2|0> [a.u.]:                    [  -0.000000,   -0.000000,   -0.000000]

  Dip. moment [a.u.]:                  [  -0.000000,   -0.000000,   -4.191499]
  Total dipole [Debye]:                                              10.653730
  <r^2> [a.u.]:                        [  56.273708,   21.266774,   80.121639]
  Total <r^2> [a.u.]:                                               157.662121

  V1^2 = 0.9335, V2^2 = 0.0665

  Important amplitudes:
      occ i      occ j       vir a       vir b          v   
    ---------------------------------------------------------
     3 (A1) A               2 (A2) A                  0.4897
     3 (A1) A               1 (A2) A                  0.4450
    ---------------------------------------------------------

  Density matrix analysis:
  ------------------------
  NOs
    Occupation of frontier NOs:
       0.9808   1.0545
    Number of electrons: 18.000000
    Number of unpaired electrons: n_u =  2.47067, n_u,nl =  2.07089
    NO participation ratio (PR_NO):  3.253199
  
  
  Mulliken Population Analysis
  Atom      Charge (e)              h+              e-           Del q
  --------------------------------------------------------------------
   1 C       -0.588729        0.337679       -0.525900       -0.188221
   2 C       -0.588729        0.337679       -0.525900       -0.188221
   3 H        0.252531        0.085848       -0.009278        0.076571
   4 H        0.252531        0.085848       -0.009278        0.076571
   5 H        0.153537        0.118989       -0.010785        0.108204
   6 H        0.153537        0.118989       -0.010785        0.108204
   7 H       -0.634677        0.014643       -0.007751        0.006891
  --------------------------------------------------------------------
  Sum:       -1.000000        1.099676       -1.099676        0.000000
  
  Multipole moment analysis of the density matrix
    Molecular charge:                      -1.000000
    Number of electrons:                   18.000000
      Center of electronic charge [Ang]: [  0.000000,   0.000000,   0.123225]
    Total nuclear charge:                  17.000000
      Center of nuclear charge [Ang]:    [ -0.000000,   0.000000,   0.000000]
    Dipole moment [D]:                     10.653727
      Cartesian components [D]:          [ -0.000000,  -0.000000, -10.653727]
    RMS size of the density [Ang]:         1.561277
      Cartesian components [Ang]:        [  0.935659,   0.575196,   1.109630]
  
  Exciton analysis of the difference density matrix
    <r_h> [Ang]:                  [ -0.000000,   0.000000,  -0.144808]
    <r_e> [Ang]:                  [  0.000000,   0.000000,  -0.163083]
    |<r_e - r_h>| [Ang]:            0.018275
    Hole size [Ang]:                1.539858
      Cartesian components [Ang]: [  1.011308,   0.563437,   1.015360]
    Electron size [Ang]:            2.044523
      Cartesian components [Ang]: [  1.391406,   1.252526,   0.821730]

  Transition density matrix analysis:
  -----------------------------------
  
  CT numbers (Mulliken)
    omega =     0.9053
    <Phe> =    -0.0118
  
  Exciton analysis of the transition density matrix
    Trans. dipole moment [D]:             0.000000
      Cartesian components [D]:         [ -0.000000,   0.000000,   0.000000]
    <r_h> [Ang]:                        [ -0.000000,   0.000000,  -0.187360]
    <r_e> [Ang]:                        [  0.000000,   0.000000,  -0.186097]
    |<r_e - r_h>| [Ang]:                  0.001263
    Hole size [Ang]:                      1.379749
      Cartesian components [Ang]:       [  0.945325,   0.431878,   0.907496]
    Electron size [Ang]:                  2.052483
      Cartesian components [Ang]:       [  1.411549,   1.280185,   0.762457]
    RMS electron-hole separation [Ang]:   2.473594
      Cartesian components [Ang]:       [  1.703573,   1.349126,   1.181679]
    Covariance(r_h, r_e) [Ang^2]:        -0.001136
    Correlation coefficient:             -0.000401
    Center-of-mass size [Ang]:            1.236337
      Cartesian components [Ang]:       [  0.847063,   0.676506,   0.594436]

  Decomposition into state-averaged NTOs
    H- 4 -> L+ 0:  0.6597 ( 87.0%)
    H- 2 -> L+ 1: -0.0910 (  1.7%)
                   omega =  90.5%
  ----------------------------------------------------------------------------


  Excited state 10 (singlet, A2)                                    [converged]
  ----------------------------------------------------------------------------
  Term symbol:  10 (1) A2                                   R^2 =  3.32586e-07

  Total energy:                                            -78.3682617740 a.u.
  Excitation energy:                                              12.169490 eV

  Osc. strength:                                                      0.000000
  Trans. dip. moment [a.u.]:           [  -0.000000,    0.000000,    0.000000]
  <i|r^2|0> [a.u.]:                    [   0.000000,    0.000000,    0.000000]

  Dip. moment [a.u.]:                  [   0.000000,    0.000000,    8.300508]
  Total dipole [Debye]:                                              21.097791
  <r^2> [a.u.]:                        [ 102.408024,   52.226923,   47.048298]
  Total <r^2> [a.u.]:                                               201.683245

  V1^2 = 0.0005, V2^2 = 0.9995

  Important amplitudes:
      occ i      occ j       vir a       vir b          v   
    ---------------------------------------------------------
     5 (A1) A   5 (A1) B    4 (B1) A    2 (B2) B      0.3534
     5 (A1) A               3 (A2) A                 -0.0117
    ---------------------------------------------------------

  Density matrix analysis:
  ------------------------
  NOs
    Occupation of frontier NOs:
       1.0002   1.0017
    Number of electrons: 18.000000
    Number of unpaired electrons: n_u =  2.41117, n_u,nl =  2.06126
    NO participation ratio (PR_NO):  2.889443
  
  
  Mulliken Population Analysis
  Atom      Charge (e)              h+              e-           Del q
  --------------------------------------------------------------------
   1 C       -1.204945        0.143113       -0.947550       -0.804437
   2 C       -1.204945        0.143113       -0.947550       -0.804437
   3 H        0.196054        0.019154        0.000940        0.020094
   4 H        0.196054        0.019154        0.000940        0.020094
   5 H       -0.006804        0.001017       -0.053154       -0.052137
   6 H       -0.006804        0.001017       -0.053154       -0.052137
   7 H        1.031390        1.672958        0.000001        1.672959
  --------------------------------------------------------------------
  Sum:       -1.000000        1.999526       -1.999526       -0.000000
  
  Multipole moment analysis of the density matrix
    Molecular charge:                      -1.000000
    Number of electrons:                   18.000000
      Center of electronic charge [Ang]: [ -0.000000,  -0.000000,  -0.244024]
    Total nuclear charge:                  17.000000
      Center of nuclear charge [Ang]:    [ -0.000000,   0.000000,   0.000000]
    Dipole moment [D]:                     21.097784
      Cartesian components [D]:          [  0.000000,   0.000000,  21.097784]
    RMS size of the density [Ang]:         1.754442
      Cartesian components [Ang]:        [  1.262211,   0.901389,   0.819993]
  
  Exciton analysis of the difference density matrix
    <r_h> [Ang]:                  [ -0.000000,   0.000000,   2.679575]
    <r_e> [Ang]:                  [ -0.000000,  -0.000000,  -0.636502]
    |<r_e - r_h>| [Ang]:            3.316077
    Hole size [Ang]:                1.428583
      Cartesian components [Ang]: [  0.763558,   0.753273,   0.943614]
    Electron size [Ang]:            3.997352
      Cartesian components [Ang]: [  2.747049,   2.364639,   1.685533]

  Transition density matrix analysis:
  -----------------------------------
  
  CT numbers (Mulliken)
    omega =     0.0005
    <Phe> =     0.0114
  
  Exciton analysis of the transition density matrix
    Trans. dipole moment [D]:             0.000000
      Cartesian components [D]:         [ -0.000000,   0.000000,   0.000000]
    <r_h> [Ang]:                        [ -0.000000,  -0.000000,   1.536475]
    <r_e> [Ang]:                        [  0.000000,  -0.000000,  -0.244059]
    |<r_e - r_h>| [Ang]:                  1.780535
    Hole size [Ang]:                      2.103648
      Cartesian components [Ang]:       [  0.940733,   0.886225,   1.659808]
    Electron size [Ang]:                  2.919528
      Cartesian components [Ang]:       [  2.015050,   1.786330,   1.127937]
    RMS electron-hole separation [Ang]:   4.006043
      Cartesian components [Ang]:       [  2.218433,   2.008744,   2.663060]
    Covariance(r_h, r_e) [Ang^2]:         0.035450
    Correlation coefficient:              0.005772
    Center-of-mass size [Ang]:            1.804153
      Cartesian components [Ang]:       [  1.114604,   0.989657,   1.016468]

  Decomposition into state-averaged NTOs
                   omega =   0.1%
  ----------------------------------------------------------------------------


--------------------------------------------------------------------------------
  Time of ADC calculation:  CPU 114.51 s  wall 33.45 s
================================================================================
 
 --------------------------------------------------------------
             Orbital Energies (a.u.) and Symmetries
 --------------------------------------------------------------
 
 Alpha MOs, Restricted
 -- Occupied --                  
-11.065 -11.063  -0.871  -0.614  -0.488  -0.399  -0.342  -0.208
  1 A1    1 B1    2 A1    2 B1    3 A1    4 A1    3 B1    1 B2                 
 -0.024
  5 A1                                                                         
 -- Virtual --                   
  0.180   0.196   0.219   0.222   0.227   0.244   0.312   0.332
  4 B1    6 A1    2 B2    1 A2    7 A1    5 B1    8 A1    2 A2                 
  0.347   0.433   0.464   0.478   0.497   0.504   0.504   0.538
  6 B1    9 A1    7 B1   10 A1   11 A1    8 B1    3 B2    9 B1                 
  0.542   0.587   0.707   0.776   0.975   1.012   1.076   1.099
 12 A1    3 A2   10 B1   11 B1   13 A1   14 A1   15 A1   12 B1                 
  1.140   1.191   1.241   1.279   1.285   1.290   1.300   1.325
 16 A1   13 B1   17 A1    4 B2   18 A1    5 B2   14 B1    4 A2                 
  1.449   1.456   1.459   1.625   1.791   1.850   1.904   1.911
 15 B1    5 A2    6 B2   16 B1   19 A1   17 B1    7 B2   20 A1                 
  1.953   2.033   2.045   2.112   2.137   2.193   2.243   2.276
 18 B1   21 A1    6 A2    8 B2   19 B1    9 B2   22 A1   23 A1                 
  2.350   2.501   2.584   2.659   2.736   2.764   3.007   3.035
  7 A2   20 B1    8 A2   24 A1   21 B1   22 B1   25 A1   26 A1                 
  3.437   3.517
 23 B1   24 B1                                                                 
 
 Beta MOs, Restricted
 -- Occupied --                  
-11.065 -11.063  -0.871  -0.614  -0.488  -0.399  -0.342  -0.208
  1 A1    1 B1    2 A1    2 B1    3 A1    4 A1    3 B1    1 B2                 
 -0.024
  5 A1                                                                         
 -- Virtual --                   
  0.180   0.196   0.219   0.222   0.227   0.244   0.312   0.332
  4 B1    6 A1    2 B2    1 A2    7 A1    5 B1    8 A1    2 A2                 
  0.347   0.433   0.464   0.478   0.497   0.504   0.504   0.538
  6 B1    9 A1    7 B1   10 A1   11 A1    8 B1    3 B2    9 B1                 
  0.542   0.587   0.707   0.776   0.975   1.012   1.076   1.099
 12 A1    3 A2   10 B1   11 B1   13 A1   14 A1   15 A1   12 B1                 
  1.140   1.191   1.241   1.279   1.285   1.290   1.300   1.325
 16 A1   13 B1   17 A1    4 B2   18 A1    5 B2   14 B1    4 A2                 
  1.449   1.456   1.459   1.625   1.791   1.850   1.904   1.911
 15 B1    5 A2    6 B2   16 B1   19 A1   17 B1    7 B2   20 A1                 
  1.953   2.033   2.045   2.112   2.137   2.193   2.243   2.276
 18 B1   21 A1    6 A2    8 B2   19 B1    9 B2   22 A1   23 A1                 
  2.350   2.501   2.584   2.659   2.736   2.764   3.007   3.035
  7 A2   20 B1    8 A2   24 A1   21 B1   22 B1   25 A1   26 A1                 
  3.437   3.517
 23 B1   24 B1                                                                 
 --------------------------------------------------------------
 
          Ground-State Mulliken Net Atomic Charges

     Atom                 Charge (a.u.)
  ----------------------------------------
      1 C                    -0.376196
      2 C                    -0.376196
      3 H                     0.178378
      4 H                     0.178378
      5 H                     0.037399
      6 H                     0.037399
      7 H                    -0.679165
  ----------------------------------------
  Sum of atomic charges =    -1.000000

 -----------------------------------------------------------------
                    Cartesian Multipole Moments
 -----------------------------------------------------------------
    Charge (ESU x 10^10)
                -4.8032
    Dipole Moment (Debye)
         X      -0.0000      Y      -0.0000      Z     -11.0340
       Tot      11.0340
    Quadrupole Moments (Debye-Ang)
        XX     -19.1549     XY      -0.0000     YY     -22.0287
        XZ      -0.0000     YZ      -0.0000     ZZ     -51.8402
    Octopole Moments (Debye-Ang^2)
       XXX       0.0000    XXY      -0.0000    XYY      -0.0000
       YYY       0.0000    XXZ      -8.7164    XYZ      -0.0000
       YYZ      -9.4692    XZZ      -0.0000    YZZ      -0.0000
       ZZZ    -115.6126
    Hexadecapole Moments (Debye-Ang^3)
      XXXX     -89.4424   XXXY      -0.0000   XXYY     -22.1929
      XYYY       0.0000   YYYY     -40.5756   XXXZ       0.0000
      XXYZ      -0.0000   XYYZ      -0.0000   YYYZ       0.0000
      XXZZ     -56.8778   XYZZ      -0.0000   YYZZ     -51.3793
      XZZZ      -0.0000   YZZZ      -0.0000   ZZZZ    -498.0721
 -----------------------------------------------------------------
 Total job time:  115.77s(wall), 159.25s(cpu) 
 Sun Mar 27 17:55:31 2022

        *************************************************************
        *                                                           *
        *  Thank you very much for using Q-Chem.  Have a nice day.  *
        *                                                           *
        *************************************************************


