/src/tsommerfeld/qchem/exe/qcprog.exe .input0.861111.32605.qcin.1 /src/jdavis/qchem.scratch/qchem32605/

                  Welcome to Q-Chem
     A Quantum Leap Into The Future Of Chemistry


 Q-Chem 5.4 (devel), Q-Chem, Inc., Pleasanton, CA (2021)

 E. Epifanovsky,  A. T. B. Gilbert,  Xintian Feng,  Joonho Lee,  Yuezhi Mao,  
 N. Mardirossian,  P. Pokhilko,  A. White,  M. Wormit,  M. P. Coons,  
 A. L. Dempwolff,  Zhengting Gan,  D. Hait,  P. R. Horn,  L. D. Jacobson,  
 I. Kaliman,  J. Kussmann,  A. W. Lange,  Ka Un Lao,  D. S. Levine,  Jie Liu,  
 S. C. McKenzie,  A. F. Morrison,  K. Nanda,  F. Plasser,  D. R. Rehn,  
 M. L. Vidal,  Zhi-Qiang You,  Ying Zhu,  B. Alam,  B. Albrecht,  
 A. Aldossary,  E. Alguire,  J. H. Andersen,  D. Barton,  K. Begam,  A. Behn,  
 Y. A. Bernard,  E. J. Berquist,  H. Burton,  A. Carreras,  K. Carter-Fenk,  
 R. Chakraborty,  A. D. Chien,  K. D. Closser,  V. Cofer-Shabica,  
 S. Dasgupta,  Jia Deng,  M. de Wergifosse,  M. Diedenhofen,  Hainam Do,  
 S. Ehlert,  Po-Tung Fang,  S. Fatehi,  Qingguo Feng,  T. Friedhoff,  
 J. Gayvert,  Qinghui Ge,  G. Gidofalvi,  M. Goldey,  J. Gomes,  
 C. Gonzalez-Espinoza,  S. Gulania,  A. Gunina,  M. W. D. Hanson-Heine,  
 P. H. P. Harbach,  A. W. Hauser,  M. F. Herbst,  M. Hernandez Vera,  
 M. Hodecker,  Z. C. Holden,  S. Houck,  Xunkun Huang,  Kerwin Hui,  
 B. C. Huynh,  M. Ivanov,  Hyunjun Ji,  Hanjie Jiang,  B. Kaduk,  S. Kaehler,  
 K. Khistyaev,  Jaehoon Kim,  P. Klunzinger,  Z. Koczor-Benda,  
 Joong Hoon Koh,  D. Kosenkov,  L. Koulias,  T. Kowalczyk,  C. M. Krauter,  
 K. Kue,  A. Kunitsa,  T. Kus,  A. Landau,  K. V. Lawler,  D. Lefrancois,  
 S. Lehtola,  Rain Li,  Yi-Pei Li,  Jiashu Liang,  M. Liebenthal,  
 Hung-Hsuan Lin,  You-Sheng Lin,  Fenglai Liu,  Kuan-Yu Liu,  
 M. Loipersberger,  A. Luenser,  A. Manjanath,  P. Manohar,  E. Mansoor,  
 S. F. Manzer,  Shan-Ping Mao,  A. V. Marenich,  T. Markovich,  S. Mason,  
 S. A. Maurer,  P. F. McLaughlin,  M. F. S. J. Menger,  J.-M. Mewes,  
 S. A. Mewes,  P. Morgante,  J. W. Mullinax,  K. J. Oosterbaan,  G. Paran,  
 Alexander C. Paul,  Suranjan K. Paul,  F. Pavosevic,  Zheng Pei,  S. Prager,  
 E. I. Proynov,  E. Ramos,  B. Rana,  A. E. Rask,  A. Rettig,  R. M. Richard,  
 F. Rob,  E. Rossomme,  T. Scheele,  M. Scheurer,  M. Schneider,  
 N. Sergueev,  S. M. Sharada,  W. Skomorowski,  D. W. Small,  C. J. Stein,  
 Yu-Chuan Su,  E. J. Sundstrom,  Zhen Tao,  J. Thirman,  T. Tsuchimochi,  
 N. M. Tubman,  S. P. Veccham,  O. Vydrov,  J. Wenzel,  J. Witte,  A. Yamada,  
 Kun Yao,  S. Yeganeh,  S. R. Yost,  A. Zech,  Igor Ying Zhang,  Xing Zhang,  
 Yu Zhang,  D. Zuev,  A. Aspuru-Guzik,  A. T. Bell,  N. A. Besley,  
 K. B. Bravaya,  B. R. Brooks,  D. Casanova,  Jeng-Da Chai,  S. Coriani,  
 C. J. Cramer,  A. E. DePrince, III,  R. A. DiStasio Jr.,  A. Dreuw,  
 B. D. Dunietz,  T. R. Furlani,  W. A. Goddard III,  S. Grimme,  
 S. Hammes-Schiffer,  T. Head-Gordon,  W. J. Hehre,  Chao-Ping Hsu,  
 T.-C. Jagau,  Yousung Jung,  A. Klamt,  Jing Kong,  D. S. Lambrecht,  
 WanZhen Liang,  N. J. Mayhall,  C. W. McCurdy,  J. B. Neaton,  
 C. Ochsenfeld,  J. A. Parkhill,  R. Peverati,  V. A. Rassolov,  Yihan Shao,  
 L. V. Slipchenko,  T. Stauch,  R. P. Steele,  J. E. Subotnik,  
 A. J. W. Thom,  A. Tkatchenko,  D. G. Truhlar,  T. Van Voorhis,  
 T. A. Wesolowski,  K. B. Whaley,  H. L. Woodcock III,  P. M. Zimmerman,  
 S. Faraji,  P. M. W. Gill,  M. Head-Gordon,  J. M. Herbert,  A. I. Krylov

 Additional authors for Version 5.4.1: 
 S. Kotaru,  Shaozhi Li,  Xiangyuan Li,  F. Matz,  A. Molle,  Haisheng Ren,  
 Yingli Su,  Hung-Yi Tsai,  C. Utku,  Fang Wang

 Contributors to earlier versions of Q-Chem not listed above: 
 R. D. Adamson,  B. Austin,  R. Baer,  J. Baker,  G. J. O. Beran,  
 K. Brandhorst,  S. T. Brown,  E. F. C. Byrd,  A. K. Chakraborty,  
 G. K. L. Chan,  Chun-Min Chang,  Yunqing Chen,  C.-L. Cheng,  
 Siu Hung Chien,  D. M. Chipman,  D. L. Crittenden,  H. Dachsel,  
 R. J. Doerksen,  A. D. Dutoi,  R. G. Edgar,  J. Fosso-Tande,  
 L. Fusti-Molnar,  D. Ghosh,  A. Ghysels,  A. Golubeva-Zadorozhnaya,  
 J. Gonthier,  M. S. Gordon,  S. R. Gwaltney,  G. Hawkins,  J. E. Herr,  
 A. Heyden,  S. Hirata,  E. G. Hohenstein,  G. Kedziora,  F. J. Keil,  
 C. Kelley,  Jihan Kim,  R. A. King,  R. Z. Khaliullin,  P. P. Korambath,  
 W. Kurlancheek,  A. Laurent,  A. M. Lee,  M. S. Lee,  S. V. Levchenko,  
 Ching Yeh Lin,  D. Liotard,  E. Livshits,  R. C. Lochan,  I. Lotan,  
 L. A. Martinez-Martinez,  P. E. Maslen,  N. Nair,  D. P. O'Neill,  
 D. Neuhauser,  E. Neuscamman,  C. M. Oana,  R. Olivares-Amaya,  R. Olson,  
 T. M. Perrine,  B. Peters,  P. A. Pieniazek,  A. Prociuk,  Y. M. Rhee,  
 J. Ritchie,  M. A. Rohrdanz,  E. Rosta,  N. J. Russ,  H. F. Schaefer III,  
 M. W. Schmidt,  N. E. Schultz,  S. Sharma,  N. Shenvi,  C. D. Sherrill,  
 A. C. Simmonett,  A. Sodt,  T. Stein,  D. Stuck,  K. S. Thanthiriwatte,  
 V. Vanovschi,  L. Vogt,  Tao Wang,  A. Warshel,  M. A. Watson,  
 C. F. Williams,  Q. Wu,  X. Xu,  Jun Yang,  W. Zhang,  Yan Zhao

 Please cite Q-Chem as follows:
 Y. Shao et al., Mol. Phys. 113, 184-215 (2015)
 DOI: 10.1080/00268976.2014.952696

 Q-Chem 5.4.1 for Intel X86 EM64T Linux

 Parts of Q-Chem use Armadillo 9.900.5 (Nocturnal Misbehaviour).
 http://arma.sourceforge.net/

 Q-Chem begins on Sun Mar 27 17:19:01 2022  

 Host: node01
0

     Scratch files written to /src/jdavis/qchem.scratch/qchem32605//
 Processing $rem in /src/tsommerfeld/qchem/config/preferences:
 Processing $rem in /home/jdavis/.qchemrc:

 Checking the input file for inconsistencies... 	...done.

--------------------------------------------------------------
User input:
--------------------------------------------------------------
$molecule
-1 1
C        -0.6645000000    0.0000000000   -0.1764707059
C         0.6645000000    0.0000000000   -0.1764707059
H        -1.1590800000    0.0000000000    0.7858782941
H         1.1590800000    0.0000000000    0.7858782941
H        -1.1590800000    0.0000000000   -1.1388187059
H         1.1590800000    0.0000000000   -1.1388187059
H         0.0000000000    0.0000000000    2.8235292941
$end

$rem
   METHOD adc(2)
   BASIS gen
   PURECART 11
   EE_STATES [0,10,0,0]
   scf_convergence 8
   ADC_DAVIDSON_MAXITER 120
   ADC_DAVIDSON_MAXSUBSPACE 200
   adc_nguess_singles 100
   THRESH 14
   S2THRESH 14
   adc_davidson_conv 5
   adc_davidson_thresh 14
   THREADS 10
   MEM_TOTAL 95000
   STATE_ANALYSIS TRUE
$end
$basis
C 1
S   9   1.00
      6.665000D+03           6.920000D-04
      1.000000D+03           5.329000D-03
      2.280000D+02           2.707700D-02
      6.471000D+01           1.017180D-01
      2.106000D+01           2.747400D-01
      7.495000D+00           4.485640D-01
      2.797000D+00           2.850740D-01
      5.215000D-01           1.520400D-02
      1.596000D-01          -3.191000D-03
S   9   1.00
      6.665000D+03          -1.460000D-04
      1.000000D+03          -1.154000D-03
      2.280000D+02          -5.725000D-03
      6.471000D+01          -2.331200D-02
      2.106000D+01          -6.395500D-02
      7.495000D+00          -1.499810D-01
      2.797000D+00          -1.272620D-01
      5.215000D-01           5.445290D-01
      1.596000D-01           5.804960D-01
S   1   1.00
      1.596000D-01           1.000000D+00
S   1   1.00
      0.0469000              1.0000000
P   4   1.00
      9.439000D+00           3.810900D-02
      2.002000D+00           2.094800D-01
      5.456000D-01           5.085570D-01
      1.517000D-01           4.688420D-01
P   1   1.00
      1.517000D-01           1.000000D+00
P   1   1.00
      0.0522522      1.0000000
P   1   1.00
      0.0261261      1.0000000
D   1   1.00
      5.500000D-01           1.0000000
****
C 2
S   9   1.00
      6.665000D+03           6.920000D-04
      1.000000D+03           5.329000D-03
      2.280000D+02           2.707700D-02
      6.471000D+01           1.017180D-01
      2.106000D+01           2.747400D-01
      7.495000D+00           4.485640D-01
      2.797000D+00           2.850740D-01
      5.215000D-01           1.520400D-02
      1.596000D-01          -3.191000D-03
S   9   1.00
      6.665000D+03          -1.460000D-04
      1.000000D+03          -1.154000D-03
      2.280000D+02          -5.725000D-03
      6.471000D+01          -2.331200D-02
      2.106000D+01          -6.395500D-02
      7.495000D+00          -1.499810D-01
      2.797000D+00          -1.272620D-01
      5.215000D-01           5.445290D-01
      1.596000D-01           5.804960D-01
S   1   1.00
      1.596000D-01           1.000000D+00
S   1   1.00
      0.0469000              1.0000000
P   4   1.00
      9.439000D+00           3.810900D-02
      2.002000D+00           2.094800D-01
      5.456000D-01           5.085570D-01
      1.517000D-01           4.688420D-01
P   1   1.00
      1.517000D-01           1.000000D+00
P   1   1.00
      0.0522522      1.0000000
P   1   1.00
      0.0261261      1.0000000
D   1   1.00
      5.500000D-01           1.0000000
****
H 3
cc-pVDZ
****
H 4
cc-pVDZ
****
H 5
cc-pVDZ
****
H 6
cc-pVDZ
****
H 7
aug-cc-pVDZ
****
$end
--------------------------------------------------------------
 ----------------------------------------------------------------
             Standard Nuclear Orientation (Angstroms)
    I     Atom           X                Y                Z
 ----------------------------------------------------------------
    1      C      -0.6645000000    -0.0000000000    -0.1764707059
    2      C       0.6645000000     0.0000000000    -0.1764707059
    3      H      -1.1590800000    -0.0000000000     0.7858782941
    4      H       1.1590800000     0.0000000000     0.7858782941
    5      H      -1.1590800000    -0.0000000000    -1.1388187059
    6      H       1.1590800000     0.0000000000    -1.1388187059
    7      H       0.0000000000     0.0000000000     2.8235292941
 ----------------------------------------------------------------
 Molecular Point Group                 C2v   NOp =  4
 Largest Abelian Subgroup              C2v   NOp =  4
 Nuclear Repulsion Energy =          36.36366470 hartrees
 There are        9 alpha and        9 beta electrons
 Requested basis set is non-standard
 There are 33 shells and 67 basis functions
 Total memory of 95000 MB is distributed as follows: 
   MEM_STATIC is set to 192 MB
   QALLOC/CCMAN JOB total memory use is  94808 MB
 Warning: actual memory use might exceed 95000 MB

 Total QAlloc Memory Limit  95000 MB
 Mega-Array Size       188 MB
 MEM_STATIC part       192 MB

                       Distance Matrix (Angstroms)
             C (  1)   C (  2)   H (  3)   H (  4)   H (  5)   H (  6)
   C (  2)  1.329000
   H (  3)  1.082000  2.061931
   H (  4)  2.061931  1.082000  2.318160
   H (  5)  1.082000  2.061931  1.924697  3.013026
   H (  6)  2.061931  1.082000  3.013026  1.924697  2.318160
   H (  7)  3.072712  3.072712  2.344246  2.344246  4.128398  4.128398

 
 A cutoff of  1.0D-14 yielded    561 shell pairs
 There are      2337 function pairs (      2484 Cartesian)
 Smallest overlap matrix eigenvalue = 1.79E-04

 Scale SEOQF with 1.000000e-01/1.000000e-01/1.000000e-01

 Standard Electronic Orientation quadrupole field applied
 Nucleus-field energy     =    -0.0000000009 hartrees
 ================ Generating on-the-fly SAD Guess ================
Attempting to make child job directory: /src/jdavis/qchem.scratch/qchem32605//Frg1/
Attempting to make child job directory: /src/jdavis/qchem.scratch/qchem32605//Frg2/
Creating input file /src/jdavis/qchem.scratch/qchem32605/Frg1.input
using default PutDataFrgm: nothing
calling putenv with: QCSCRATCH=/src/jdavis/qchem.scratch/qchem32605/ 
Spawning Job For Fragment 0
Done Job For Fragment 0
calling putenv with: QCSCRATCH=/src/jdavis/qchem.scratch 
calling putenv with: QCTHREADS=1 
Creating input file /src/jdavis/qchem.scratch/qchem32605/Frg2.input
using default PutDataFrgm: nothing
calling putenv with: QCSCRATCH=/src/jdavis/qchem.scratch/qchem32605/ 
Spawning Job For Fragment 1
Done Job For Fragment 1
calling putenv with: QCSCRATCH=/src/jdavis/qchem.scratch 
calling putenv with: QCTHREADS=1 
 Time for running child jobs:  CPU 1.81 s  wall 54.45 s
 ============= Method Specific SAD Guess Constructed =============
 Guess from on-the-fly superposition of atomic densities
 Warning: Energy on first SCF cycle will be non-variational
 A restricted Hartree-Fock SCF calculation will be
 performed using Pulay DIIS extrapolation
 SCF converges when DIIS error is below 1.0E-08
 using 10 threads for integral computing
 -------------------------------------------------------
 OpenMP Integral computing Module                
 Release: version 1.0, May 2013, Q-Chem Inc. Pittsburgh 
 -------------------------------------------------------
 ---------------------------------------
  Cycle       Energy         DIIS Error
 ---------------------------------------
    1     -78.8140310139      7.37E-02
    2     -78.4601999603      6.97E-03
    3     -78.5098710918      1.75E-03
    4     -78.5125533995      5.52E-04
    5     -78.5128727828      1.22E-04
    6     -78.5128987918      2.88E-05
    7     -78.5129010946      7.74E-06
    8     -78.5129013138      1.16E-06
    9     -78.5129013198      2.73E-07
   10     -78.5129013203      5.79E-08
   11     -78.5129013203      1.23E-08
   12     -78.5129013203      1.79E-09 Convergence criterion met
 ---------------------------------------
 SCF time:  CPU 11.27 s  wall 1.13 s
 SCF   energy in the final basis set = -78.51290132
 Total energy in the final basis set = -78.51290132
================================================================================
|                                                                              |
|                                 A D C  M A N                                 |
|                                                                              |
 ------------------------------------------------------------------------------ 
|                                                                              |
| Components:                                                                  |
|                                                                              |
| - libvmm - 1.3-trunk                                                         |
|   Authors:                                                                   |
|   Evgeny Epifanovsky, Ilya Kaliman                                           |
|                                                                              |
| - libtensor - 2.5-trunk                                                      |
|   Authors:                                                                   |
|   Evgeny Epifanovsky, Michael Wormit, Dmitry Zuev, Sam Manzer,               |
|   Ilya Kaliman                                                               |
|                                                                              |
| - libwfa - 1.1-trunk                                                         |
|   Authors:                                                                   |
|   Felix Plasser, Stefanie Mewes (Baeppler), Benjamin Thomitzni,              |
|   Michael Wormit, Feng Chen, Anna I. Krylov, Pavel Pokhilko                  |
|                                                                              |
| - libadc - 1.1-trunk                                                         |
|   Authors:                                                                   |
|   Michael Wormit, Adrian L. Dempwolff, Philipp H. P. Harbach,                |
|   Caroline Krauter, Dirk Rehn, Matthias Schneider, Jan Wenzel                |
|                                                                              |
| - adcman - 2.6-trunk                                                         |
|   Authors:                                                                   |
|   Michael Wormit, Adrian L. Dempwolff, Philipp H. P. Harbach,                |
|   Caroline Krauter, Daniel Lefrancois, Jan-Michael Mewes, Dirk Rehn,         |
|   Matthias Schneider, Jan Wenzel, Andreas Dreuw                              |
|                                                                              |
| Authors of earlier versions of ADCMAN:                                       |
| Andreas Dreuw, Jan Hendrik Starcke, Dirk Rehn, Michael Wormit                |
|                                                                              |
================================================================================

 
 Alpha MOs, Restricted
 -- Occupied --                  
-11.070 -11.068  -0.876  -0.619  -0.493  -0.404  -0.347  -0.213
  1 A1    1 B1    2 A1    2 B1    3 A1    4 A1    3 B1    1 B2                 
 -0.033
  5 A1                                                                         
 -- Virtual --                   
  0.147   0.170   0.172   0.176   0.179   0.189   0.269   0.290
  4 B1    2 B2    6 A1    1 A2    7 A1    5 B1    8 A1    2 A2                 
  0.321   0.346   0.352   0.377   0.379   0.388   0.460   0.476
  6 B1    7 B1    9 A1    8 B1    3 B2   10 A1    3 A2   11 A1                 
  0.503   0.508   0.672   0.717   0.895   0.996   1.031   1.034
 12 A1    9 B1   10 B1   11 B1   13 A1   14 A1   15 A1   16 A1                 
  1.087   1.103   1.122   1.150   1.165   1.231   1.244   1.280
 12 B1    4 B2   17 A1    4 A2   13 B1   14 B1   18 A1    5 B2                 
  1.448   1.451   1.457   1.519   1.776   1.780   1.882   1.886
  6 B2    5 A2   15 B1   16 B1   19 A1   17 B1   20 A1    7 B2                 
  1.936   1.983   2.023   2.091   2.104   2.180   2.187   2.242
 18 B1   21 A1    6 A2   19 B1    8 B2   22 A1    9 B2   23 A1                 
  2.337   2.486   2.579   2.627   2.729   2.753   2.964   2.994
  7 A2   20 B1    8 A2   24 A1   21 B1   22 B1   25 A1   26 A1                 
  3.407   3.509
 23 B1   24 B1                                                                 
 
 Beta MOs, Restricted
 -- Occupied --                  
-11.070 -11.068  -0.876  -0.619  -0.493  -0.404  -0.347  -0.213
  1 A1    1 B1    2 A1    2 B1    3 A1    4 A1    3 B1    1 B2                 
 -0.033
  5 A1                                                                         
 -- Virtual --                   
  0.147   0.170   0.172   0.176   0.179   0.189   0.269   0.290
  4 B1    2 B2    6 A1    1 A2    7 A1    5 B1    8 A1    2 A2                 
  0.321   0.346   0.352   0.377   0.379   0.388   0.460   0.476
  6 B1    7 B1    9 A1    8 B1    3 B2   10 A1    3 A2   11 A1                 
  0.503   0.508   0.672   0.717   0.895   0.996   1.031   1.034
 12 A1    9 B1   10 B1   11 B1   13 A1   14 A1   15 A1   16 A1                 
  1.087   1.103   1.122   1.150   1.165   1.231   1.244   1.280
 12 B1    4 B2   17 A1    4 A2   13 B1   14 B1   18 A1    5 B2                 
  1.448   1.451   1.457   1.519   1.776   1.780   1.882   1.886
  6 B2    5 A2   15 B1   16 B1   19 A1   17 B1   20 A1    7 B2                 
  1.936   1.983   2.023   2.091   2.104   2.180   2.187   2.242
 18 B1   21 A1    6 A2   19 B1    8 B2   22 A1    9 B2   23 A1                 
  2.337   2.486   2.579   2.627   2.729   2.753   2.964   2.994
  7 A2   20 B1    8 A2   24 A1   21 B1   22 B1   25 A1   26 A1                 
  3.407   3.509
 23 B1   24 B1                                                                 

--------------------------------------------------------------------------------
                                   HF Summary                                   
--------------------------------------------------------------------------------
  Energy:                                                  -78.5129013203 a.u.
  Dip. moment [a.u.]:                  [  -0.000000,    0.000000,   -4.260036]
  Total dipole [Debye]:                                              10.827934
  <r^2> [a.u.]:                        [  53.251840,   17.155184,   84.287955]
  Total <r^2> [a.u.]:                                               154.694979
--------------------------------------------------------------------------------

--------------------------------------------------------------------------------
                                 MP(2) Summary                                  
--------------------------------------------------------------------------------
  MP energy contribution:                                   -0.3056556514 a.u.
  Total energy:                                            -78.8185569717 a.u.
  Dip. moment [a.u.]:                  [  -0.000000,    0.000000,   -4.085027]
  Total dipole [Debye]:                                              10.383104
  <r^2> [a.u.]:                        [  53.838563,   17.366053,   84.191238]
  Total <r^2> [a.u.]:                                               155.395853

  Density matrix analysis:
  ------------------------
  NOs
    Occupation of frontier NOs:
       0.0449   1.9361
    Number of electrons: 18.000000
    Number of unpaired electrons: n_u =  0.46903, n_u,nl =  0.05171
    NO participation ratio (PR_NO): 16.333777
  
  
  Mulliken Population Analysis
  Atom      Charge (e)              h+              e-           Del q
  --------------------------------------------------------------------
   1 C       -0.372732        0.089332       -0.119829       -0.030497
   2 C       -0.372732        0.089332       -0.119829       -0.030497
   3 H        0.138148        0.015152       -0.017643       -0.002491
   4 H        0.138148        0.015152       -0.017643       -0.002491
   5 H        0.028302        0.019208       -0.011587        0.007621
   6 H        0.028302        0.019208       -0.011587        0.007621
   7 H       -0.587436        0.064059       -0.013325        0.050734
  --------------------------------------------------------------------
  Sum:       -1.000000        0.311444       -0.311444       -0.000000
  
  Multipole moment analysis of the density matrix
    Molecular charge:                      -1.000000
    Number of electrons:                   18.000000
      Center of electronic charge [Ang]: [  0.000000,  -0.000000,   0.120095]
    Total nuclear charge:                  17.000000
      Center of nuclear charge [Ang]:    [ -0.000000,   0.000000,   0.000000]
    Dipole moment [D]:                     10.383101
      Cartesian components [D]:          [ -0.000000,   0.000000, -10.383101]
    RMS size of the density [Ang]:         1.550191
      Cartesian components [Ang]:        [  0.915191,   0.519775,   1.138135]
  
  Exciton analysis of the difference density matrix
    <r_h> [Ang]:                  [  0.000000,  -0.000000,   0.327667]
    <r_e> [Ang]:                  [  0.000000,  -0.000000,   0.030307]
    |<r_e - r_h>| [Ang]:            0.297360
    Hole size [Ang]:                1.921886
      Cartesian components [Ang]: [  0.977880,   0.786240,   1.455755]
    Electron size [Ang]:            2.104821
      Cartesian components [Ang]: [  1.218109,   0.898761,   1.462433]
--------------------------------------------------------------------------------
Less singles guess vectors found than requested: 85 (found), 100 (requested).
Adjusting number of doubles guess vectors to 15.
  Starting Davidson for singlet states of irrep A2 ... 
--------------------------------------------------------------------------------
   It NVec Conv  Avg. Norm  Max. Norm  Conv. states           Remark
--------------------------------------------------------------------------------
       100    0  7.800e-02  3.709e-01  0.1051 n n n n n n n n Guess.
    1  110    0  1.364e-02  1.235e-01  0.0806 n n n n n n n n 
    2  120    0  9.423e-03  9.212e-02  0.0806 n n n n n n n n 
    3  130    1  3.287e-03  3.280e-02  0.0806 y n n n n n n n 
    4  140    5  2.099e-04  2.097e-03  0.0806 y y y y n n n n 
    5  150    9  5.218e-06  5.214e-05  0.0806 y y y y y y y y 
    6  160   10  1.106e-07  1.105e-06  0.0806 y y y y y y y y Converged.
--------------------------------------------------------------------------------
  Davidson Summary: 
 ------------------------------------------------------------
  State  0: excitation energy =   0.0806 a.u.   (converged)
  State  1: excitation energy =   0.1303 a.u.   (converged)
  State  2: excitation energy =   0.2310 a.u.   (converged)
  State  3: excitation energy =   0.2833 a.u.   (converged)
  State  4: excitation energy =   0.3025 a.u.   (converged)
  State  5: excitation energy =   0.3461 a.u.   (converged)
  State  6: excitation energy =   0.3515 a.u.   (converged)
  State  7: excitation energy =   0.3584 a.u.   (converged)
  State  8: excitation energy =   0.3833 a.u.   (converged)
  State  9: excitation energy =   0.3932 a.u.   (converged)
 ------------------------------------------------------------


--------------------------------------------------------------------------------
                   State-averaged natural transition orbitals
--------------------------------------------------------------------------------
--------------------------------------------------------------------------------

--------------------------------------------------------------------------------
                             Excited State Summary
--------------------------------------------------------------------------------
--------------------------------------------------------------------------------

  Excited state 1 (singlet, A2)                                    [converged]
  ----------------------------------------------------------------------------
  Term symbol:  1 (1) A2                                    R^2 =  3.47863e-11

  Total energy:                                            -78.7379906132 a.u.
  Excitation energy:                                               2.192322 eV

  Osc. strength:                                                      0.000000
  Trans. dip. moment [a.u.]:           [  -0.000000,   -0.000000,   -0.000000]
  <i|r^2|0> [a.u.]:                    [  -0.000000,   -0.000000,   -0.000000]

  Dip. moment [a.u.]:                  [   0.000000,    0.000000,    0.576637]
  Total dipole [Debye]:                                               1.465665
  <r^2> [a.u.]:                        [  79.631061,   42.691381,   63.865456]
  Total <r^2> [a.u.]:                                               186.187899

  V1^2 = 0.9200, V2^2 = 0.0800

  Important amplitudes:
      occ i      occ j       vir a       vir b          v   
    ---------------------------------------------------------
     5 (A1) A               1 (A2) A                  0.6437
     5 (A1) A               2 (A2) A                 -0.2109
    ---------------------------------------------------------

  Density matrix analysis:
  ------------------------
  NOs
    Occupation of frontier NOs:
       0.9864   0.9954
    Number of electrons: 18.000000
    Number of unpaired electrons: n_u =  2.41812, n_u,nl =  2.04737
    NO participation ratio (PR_NO):  2.958769
  
  
  Mulliken Population Analysis
  Atom      Charge (e)              h+              e-           Del q
  --------------------------------------------------------------------
   1 C       -0.672365        0.248035       -0.547669       -0.299633
   2 C       -0.672365        0.248035       -0.547669       -0.299633
   3 H        0.104568        0.026366       -0.059945       -0.033580
   4 H        0.104568        0.026366       -0.059945       -0.033580
   5 H        0.052241        0.024201       -0.000262        0.023939
   6 H        0.052241        0.024201       -0.000262        0.023939
   7 H        0.031113        0.667443       -0.048895        0.618548
  --------------------------------------------------------------------
  Sum:       -1.000000        1.264648       -1.264648        0.000000
  
  Multipole moment analysis of the density matrix
    Molecular charge:                      -1.000000
    Number of electrons:                   18.000000
      Center of electronic charge [Ang]: [ -0.000000,  -0.000000,  -0.016952]
    Total nuclear charge:                  17.000000
      Center of nuclear charge [Ang]:    [ -0.000000,   0.000000,   0.000000]
    Dipole moment [D]:                     1.465664
      Cartesian components [D]:          [  0.000000,   0.000000,   1.465664]
    RMS size of the density [Ang]:         1.701841
      Cartesian components [Ang]:        [  1.113028,   0.814958,   0.996633]
  
  Exciton analysis of the difference density matrix
    <r_h> [Ang]:                  [  0.000000,   0.000000,   1.966403]
    <r_e> [Ang]:                  [ -0.000000,  -0.000000,   0.015785]
    |<r_e - r_h>| [Ang]:            1.950619
    Hole size [Ang]:                2.510793
      Cartesian components [Ang]: [  1.163115,   1.071565,   1.950127]
    Electron size [Ang]:            4.121747
      Cartesian components [Ang]: [  2.657822,   2.599229,   1.780110]

  Transition density matrix analysis:
  -----------------------------------
  
  CT numbers (Mulliken)
    omega =     0.9057
    <Phe> =     0.0010
  
  Exciton analysis of the transition density matrix
    Trans. dipole moment [D]:             0.000000
      Cartesian components [D]:         [ -0.000000,  -0.000000,  -0.000000]
    <r_h> [Ang]:                        [  0.000000,   0.000000,   2.584646]
    <r_e> [Ang]:                        [ -0.000000,  -0.000000,  -0.176181]
    |<r_e - r_h>| [Ang]:                  2.760827
    Hole size [Ang]:                      1.816236
      Cartesian components [Ang]:       [  0.902179,   0.877282,   1.309642]
    Electron size [Ang]:                  4.395138
      Cartesian components [Ang]:       [  2.900277,   2.859452,   1.652018]
    RMS electron-hole separation [Ang]:   5.497641
      Cartesian components [Ang]:       [  3.035449,   2.990617,   3.473661]
    Covariance(r_h, r_e) [Ang^2]:         0.007027
    Correlation coefficient:              0.000880
    Center-of-mass size [Ang]:            2.378550
      Cartesian components [Ang]:       [  1.519631,   1.495693,   1.054098]

  Decomposition into state-averaged NTOs
    H- 1 -> L+ 0: -0.4624 ( 42.8%)
    H- 1 -> L+ 6:  0.4457 ( 39.7%)
    H- 1 -> L+ 7: -0.2006 (  8.0%)
                   omega =  90.6%
  ----------------------------------------------------------------------------


  Excited state 2 (singlet, A2)                                    [converged]
  ----------------------------------------------------------------------------
  Term symbol:  2 (1) A2                                    R^2 =  1.79070e-10

  Total energy:                                            -78.6882186195 a.u.
  Excitation energy:                                               3.546687 eV

  Osc. strength:                                                      0.000000
  Trans. dip. moment [a.u.]:           [  -0.000000,   -0.000000,   -0.000000]
  <i|r^2|0> [a.u.]:                    [  -0.000000,   -0.000000,    0.000000]

  Dip. moment [a.u.]:                  [   0.000000,    0.000000,    0.576741]
  Total dipole [Debye]:                                               1.465930
  <r^2> [a.u.]:                        [  66.239033,   28.747057,   60.291411]
  Total <r^2> [a.u.]:                                               155.277501

  V1^2 = 0.9144, V2^2 = 0.0856

  Important amplitudes:
      occ i      occ j       vir a       vir b          v   
    ---------------------------------------------------------
     5 (A1) A               2 (A2) A                  0.6213
     5 (A1) A               1 (A2) A                  0.2115
    ---------------------------------------------------------

  Density matrix analysis:
  ------------------------
  NOs
    Occupation of frontier NOs:
       0.9859   0.9914
    Number of electrons: 18.000000
    Number of unpaired electrons: n_u =  2.41311, n_u,nl =  2.04317
    NO participation ratio (PR_NO):  2.961603
  
  
  Mulliken Population Analysis
  Atom      Charge (e)              h+              e-           Del q
  --------------------------------------------------------------------
   1 C       -0.606213        0.309147       -0.542628       -0.233481
   2 C       -0.606213        0.309147       -0.542628       -0.233481
   3 H        0.074563        0.030246       -0.093830       -0.063584
   4 H        0.074563        0.030246       -0.093830       -0.063584
   5 H        0.009663        0.008069       -0.026708       -0.018639
   6 H        0.009663        0.008069       -0.026708       -0.018639
   7 H        0.043972        0.666501       -0.035093        0.631408
  --------------------------------------------------------------------
  Sum:       -1.000000        1.361425       -1.361425       -0.000000
  
  Multipole moment analysis of the density matrix
    Molecular charge:                      -1.000000
    Number of electrons:                   18.000000
      Center of electronic charge [Ang]: [ -0.000000,  -0.000000,  -0.016955]
    Total nuclear charge:                  17.000000
      Center of nuclear charge [Ang]:    [ -0.000000,   0.000000,   0.000000]
    Dipole moment [D]:                     1.465929
      Cartesian components [D]:          [  0.000000,   0.000000,   1.465929]
    RMS size of the density [Ang]:         1.554151
      Cartesian components [Ang]:        [  1.015130,   0.668747,   0.968336]
  
  Exciton analysis of the difference density matrix
    <r_h> [Ang]:                  [  0.000000,  -0.000000,   1.812062]
    <r_e> [Ang]:                  [ -0.000000,  -0.000000,   0.000063]
    |<r_e - r_h>| [Ang]:            1.812000
    Hole size [Ang]:                2.399725
      Cartesian components [Ang]: [  1.101096,   1.005569,   1.880186]
    Electron size [Ang]:            3.002983
      Cartesian components [Ang]: [  1.939855,   1.830875,   1.379407]

  Transition density matrix analysis:
  -----------------------------------
  
  CT numbers (Mulliken)
    omega =     0.8909
    <Phe> =    -0.0005
  
  Exciton analysis of the transition density matrix
    Trans. dipole moment [D]:             0.000000
      Cartesian components [D]:         [ -0.000000,  -0.000000,  -0.000000]
    <r_h> [Ang]:                        [  0.000000,   0.000000,   2.575684]
    <r_e> [Ang]:                        [ -0.000000,  -0.000000,  -0.175176]
    |<r_e - r_h>| [Ang]:                  2.750860
    Hole size [Ang]:                      1.814159
      Cartesian components [Ang]:       [  0.898026,   0.871965,   1.313164]
    Electron size [Ang]:                  3.156440
      Cartesian components [Ang]:       [  2.102574,   2.035231,   1.183273]
    RMS electron-hole separation [Ang]:   4.560525
      Cartesian components [Ang]:       [  2.281999,   2.213641,   3.269657]
    Covariance(r_h, r_e) [Ang^2]:         0.011568
    Correlation coefficient:              0.002020
    Center-of-mass size [Ang]:            1.821910
      Cartesian components [Ang]:       [  1.145318,   1.107335,   0.883974]

  Decomposition into state-averaged NTOs
    H- 1 -> L+ 0:  0.4734 ( 44.8%)
    H- 1 -> L+ 6:  0.4643 ( 43.1%)
    H- 1 -> L+ 7: -0.0737 (  1.1%)
                   omega =  89.1%
  ----------------------------------------------------------------------------


  Excited state 3 (singlet, A2)                                    [converged]
  ----------------------------------------------------------------------------
  Term symbol:  3 (1) A2                                    R^2 =  2.10300e-10

  Total energy:                                            -78.5875582232 a.u.
  Excitation energy:                                               6.285796 eV

  Osc. strength:                                                      0.000000
  Trans. dip. moment [a.u.]:           [   0.000000,   -0.000000,   -0.000000]
  <i|r^2|0> [a.u.]:                    [   0.000000,    0.000000,    0.000000]

  Dip. moment [a.u.]:                  [   0.000000,   -0.000000,   -1.598145]
  Total dipole [Debye]:                                               4.062079
  <r^2> [a.u.]:                        [  91.429487,   25.936214,   97.672074]
  Total <r^2> [a.u.]:                                               215.037775

  V1^2 = 0.9397, V2^2 = 0.0603

  Important amplitudes:
      occ i      occ j       vir a       vir b          v   
    ---------------------------------------------------------
     1 (B2) A               4 (B1) A                 -0.6644
     1 (B2) A               6 (B1) A                  0.1251
    ---------------------------------------------------------

  Density matrix analysis:
  ------------------------
  NOs
    Occupation of frontier NOs:
       0.9824   0.9952
    Number of electrons: 18.000000
    Number of unpaired electrons: n_u =  2.35811, n_u,nl =  2.03051
    NO participation ratio (PR_NO):  2.832132
  
  
  Mulliken Population Analysis
  Atom      Charge (e)              h+              e-           Del q
  --------------------------------------------------------------------
   1 C       -0.502911        0.561960       -0.692139       -0.130179
   2 C       -0.502911        0.561960       -0.692139       -0.130179
   3 H        0.196563        0.071556       -0.013140        0.058415
   4 H        0.196563        0.071556       -0.013140        0.058415
   5 H        0.101238        0.117463       -0.044527        0.072936
   6 H        0.101238        0.117463       -0.044527        0.072936
   7 H       -0.589780        0.039648       -0.041992       -0.002345
  --------------------------------------------------------------------
  Sum:       -1.000000        1.541605       -1.541605       -0.000000
  
  Multipole moment analysis of the density matrix
    Molecular charge:                      -1.000000
    Number of electrons:                   18.000000
      Center of electronic charge [Ang]: [ -0.000000,   0.000000,   0.046983]
    Total nuclear charge:                  17.000000
      Center of nuclear charge [Ang]:    [ -0.000000,   0.000000,   0.000000]
    Dipole moment [D]:                     4.062078
      Cartesian components [D]:          [  0.000000,  -0.000000,  -4.062078]
    RMS size of the density [Ang]:         1.828432
      Cartesian components [Ang]:        [  1.192636,   0.635211,   1.231784]
  
  Exciton analysis of the difference density matrix
    <r_h> [Ang]:                  [  0.000000,  -0.000000,  -0.122064]
    <r_e> [Ang]:                  [ -0.000000,   0.000000,  -0.975720]
    |<r_e - r_h>| [Ang]:            0.853656
    Hole size [Ang]:                1.897961
      Cartesian components [Ang]: [  1.131471,   0.950911,   1.190713]
    Electron size [Ang]:            3.674088
      Cartesian components [Ang]: [  2.847546,   1.568751,   1.711556]

  Transition density matrix analysis:
  -----------------------------------
  
  CT numbers (Mulliken)
    omega =     0.9093
    <Phe> =    -0.0016
  
  Exciton analysis of the transition density matrix
    Trans. dipole moment [D]:             0.000000
      Cartesian components [D]:         [  0.000000,  -0.000000,  -0.000000]
    <r_h> [Ang]:                        [ -0.000000,  -0.000000,  -0.183720]
    <r_e> [Ang]:                        [ -0.000000,   0.000000,  -1.538833]
    |<r_e - r_h>| [Ang]:                  1.355114
    Hole size [Ang]:                      1.277937
      Cartesian components [Ang]:       [  0.764159,   0.882153,   0.520567]
    Electron size [Ang]:                  4.254075
      Cartesian components [Ang]:       [  3.441569,   1.872286,   1.657499]
    RMS electron-hole separation [Ang]:   4.637776
      Cartesian components [Ang]:       [  3.520500,   2.064390,   2.203030]
    Covariance(r_h, r_e) [Ang^2]:         0.028820
    Correlation coefficient:              0.005301
    Center-of-mass size [Ang]:            2.224180
      Cartesian components [Ang]:       [  1.765131,   1.037496,   0.868847]

  Decomposition into state-averaged NTOs
    H- 0 -> L+ 5: -0.5262 ( 55.4%)
    H- 0 -> L+ 3: -0.2998 ( 18.0%)
    H- 0 -> L+ 1: -0.2186 (  9.6%)
    H- 0 -> L+ 4:  0.2000 (  8.0%)
                   omega =  90.9%
  ----------------------------------------------------------------------------


  Excited state 4 (singlet, A2)                                    [converged]
  ----------------------------------------------------------------------------
  Term symbol:  4 (1) A2                                    R^2 =  5.22210e-10

  Total energy:                                            -78.5352807433 a.u.
  Excitation energy:                                               7.708338 eV

  Osc. strength:                                                      0.000000
  Trans. dip. moment [a.u.]:           [  -0.000000,    0.000000,    0.000000]
  <i|r^2|0> [a.u.]:                    [   0.000000,    0.000000,    0.000000]

  Dip. moment [a.u.]:                  [   0.000000,   -0.000000,   -5.950867]
  Total dipole [Debye]:                                              15.125597
  <r^2> [a.u.]:                        [  89.072158,   25.323014,  111.119804]
  Total <r^2> [a.u.]:                                               225.514977

  V1^2 = 0.9396, V2^2 = 0.0604

  Important amplitudes:
      occ i      occ j       vir a       vir b          v   
    ---------------------------------------------------------
     1 (B2) A               5 (B1) A                 -0.6682
     1 (B2) A               8 (B1) A                 -0.0995
    ---------------------------------------------------------

  Density matrix analysis:
  ------------------------
  NOs
    Occupation of frontier NOs:
       0.9833   0.9966
    Number of electrons: 18.000000
    Number of unpaired electrons: n_u =  2.35492, n_u,nl =  2.02986
    NO participation ratio (PR_NO):  2.817908
  
  
  Mulliken Population Analysis
  Atom      Charge (e)              h+              e-           Del q
  --------------------------------------------------------------------
   1 C       -0.504670        0.552257       -0.684195       -0.131938
   2 C       -0.504670        0.552257       -0.684195       -0.131938
   3 H        0.161542        0.087266       -0.063872        0.023394
   4 H        0.161542        0.087266       -0.063872        0.023394
   5 H        0.118245        0.102942       -0.012998        0.089943
   6 H        0.118245        0.102942       -0.012998        0.089943
   7 H       -0.550234        0.057129       -0.019927        0.037202
  --------------------------------------------------------------------
  Sum:       -1.000000        1.542059       -1.542059       -0.000000
  
  Multipole moment analysis of the density matrix
    Molecular charge:                      -1.000000
    Number of electrons:                   18.000000
      Center of electronic charge [Ang]: [ -0.000000,   0.000000,   0.174948]
    Total nuclear charge:                  17.000000
      Center of nuclear charge [Ang]:    [ -0.000000,   0.000000,   0.000000]
    Dipole moment [D]:                     15.125593
      Cartesian components [D]:          [  0.000000,  -0.000000, -15.125593]
    RMS size of the density [Ang]:         1.864876
      Cartesian components [Ang]:        [  1.177161,   0.627657,   1.303111]
  
  Exciton analysis of the difference density matrix
    <r_h> [Ang]:                  [  0.000000,  -0.000000,  -0.052269]
    <r_e> [Ang]:                  [ -0.000000,   0.000000,   0.588018]
    |<r_e - r_h>| [Ang]:            0.640287
    Hole size [Ang]:                1.841022
      Cartesian components [Ang]: [  1.106524,   0.917868,   1.149994]
    Electron size [Ang]:            3.972347
      Cartesian components [Ang]: [  2.760906,   1.512421,   2.422709]

  Transition density matrix analysis:
  -----------------------------------
  
  CT numbers (Mulliken)
    omega =     0.9092
    <Phe> =    -0.0005
  
  Exciton analysis of the transition density matrix
    Trans. dipole moment [D]:             0.000000
      Cartesian components [D]:         [ -0.000000,   0.000000,   0.000000]
    <r_h> [Ang]:                        [ -0.000000,  -0.000000,  -0.182709]
    <r_e> [Ang]:                        [ -0.000000,   0.000000,   0.884373]
    |<r_e - r_h>| [Ang]:                  1.067082
    Hole size [Ang]:                      1.278663
      Cartesian components [Ang]:       [  0.764193,   0.882484,   0.521739]
    Electron size [Ang]:                  4.747296
      Cartesian components [Ang]:       [  3.335814,   1.808787,   2.852622]
    RMS electron-hole separation [Ang]:   5.027663
      Cartesian components [Ang]:       [  3.417906,   2.011794,   3.089983]
    Covariance(r_h, r_e) [Ang^2]:         0.016536
    Correlation coefficient:              0.002724
    Center-of-mass size [Ang]:            2.459922
      Cartesian components [Ang]:       [  1.713273,   1.006686,   1.449999]

  Decomposition into state-averaged NTOs
    H- 0 -> L+ 4: -0.5984 ( 71.6%)
    H- 0 -> L+ 5: -0.2415 ( 11.7%)
    H- 0 -> L+ 1:  0.1688 (  5.7%)
    H- 0 -> L+ 3: -0.0974 (  1.9%)
                   omega =  90.9%
  ----------------------------------------------------------------------------


  Excited state 5 (singlet, A2)                                    [converged]
  ----------------------------------------------------------------------------
  Term symbol:  5 (1) A2                                    R^2 =  2.97694e-09

  Total energy:                                            -78.5161024594 a.u.
  Excitation energy:                                               8.230206 eV

  Osc. strength:                                                      0.000000
  Trans. dip. moment [a.u.]:           [  -0.000000,   -0.000000,    0.000000]
  <i|r^2|0> [a.u.]:                    [  -0.000000,    0.000000,   -0.000000]

  Dip. moment [a.u.]:                  [   0.000000,    0.000000,    0.583543]
  Total dipole [Debye]:                                               1.483217
  <r^2> [a.u.]:                        [  67.325656,   30.546824,   60.413794]
  Total <r^2> [a.u.]:                                               158.286273

  V1^2 = 0.9118, V2^2 = 0.0882

  Important amplitudes:
      occ i      occ j       vir a       vir b          v   
    ---------------------------------------------------------
     5 (A1) A               3 (A2) A                 -0.6509
     5 (A1) A               2 (A2) A                  0.1704
    ---------------------------------------------------------

  Density matrix analysis:
  ------------------------
  NOs
    Occupation of frontier NOs:
       0.9780   0.9844
    Number of electrons: 18.000000
    Number of unpaired electrons: n_u =  2.44866, n_u,nl =  2.05751
    NO participation ratio (PR_NO):  3.089308
  
  
  Mulliken Population Analysis
  Atom      Charge (e)              h+              e-           Del q
  --------------------------------------------------------------------
   1 C       -0.633426        0.272374       -0.533068       -0.260694
   2 C       -0.633426        0.272374       -0.533068       -0.260694
   3 H        0.086229        0.024755       -0.076674       -0.051919
   4 H        0.086229        0.024755       -0.076674       -0.051919
   5 H        0.026356        0.006561       -0.008507       -0.001946
   6 H        0.026356        0.006561       -0.008507       -0.001946
   7 H        0.041681        0.667816       -0.038699        0.629117
  --------------------------------------------------------------------
  Sum:       -1.000000        1.275197       -1.275197       -0.000000
  
  Multipole moment analysis of the density matrix
    Molecular charge:                      -1.000000
    Number of electrons:                   18.000000
      Center of electronic charge [Ang]: [ -0.000000,  -0.000000,  -0.017155]
    Total nuclear charge:                  17.000000
      Center of nuclear charge [Ang]:    [ -0.000000,   0.000000,   0.000000]
    Dipole moment [D]:                     1.483217
      Cartesian components [D]:          [  0.000000,   0.000000,   1.483217]
    RMS size of the density [Ang]:         1.569136
      Cartesian components [Ang]:        [  1.023423,   0.689363,   0.969315]
  
  Exciton analysis of the difference density matrix
    <r_h> [Ang]:                  [  0.000000,   0.000000,   1.958494]
    <r_e> [Ang]:                  [ -0.000000,   0.000000,   0.021146]
    |<r_e - r_h>| [Ang]:            1.937348
    Hole size [Ang]:                2.406997
      Cartesian components [Ang]: [  1.115753,   1.030708,   1.867183]
    Electron size [Ang]:            3.203688
      Cartesian components [Ang]: [  2.051004,   1.989172,   1.449203]

  Transition density matrix analysis:
  -----------------------------------
  
  CT numbers (Mulliken)
    omega =     0.8960
    <Phe> =    -0.0001
  
  Exciton analysis of the transition density matrix
    Trans. dipole moment [D]:             0.000000
      Cartesian components [D]:         [ -0.000000,  -0.000000,   0.000000]
    <r_h> [Ang]:                        [  0.000000,   0.000000,   2.578320]
    <r_e> [Ang]:                        [ -0.000000,  -0.000000,  -0.175781]
    |<r_e - r_h>| [Ang]:                  2.754100
    Hole size [Ang]:                      1.814457
      Cartesian components [Ang]:       [  0.898980,   0.873361,   1.311994]
    Electron size [Ang]:                  3.338315
      Cartesian components [Ang]:       [  2.200579,   2.173763,   1.255609]
    RMS electron-hole separation [Ang]:   4.691817
      Cartesian components [Ang]:       [  2.375687,   2.341947,   3.299174]
    Covariance(r_h, r_e) [Ang^2]:         0.004259
    Correlation coefficient:              0.000703
    Center-of-mass size [Ang]:            1.900337
      Cartesian components [Ang]:       [  1.189279,   1.171676,   0.907783]

  Decomposition into state-averaged NTOs
    H- 1 -> L+ 7:  0.6354 ( 80.7%)
    H- 1 -> L+ 6:  0.1953 (  7.6%)
    H- 1 -> L+ 0: -0.0757 (  1.1%)
                   omega =  89.6%
  ----------------------------------------------------------------------------


  Excited state 6 (singlet, A2)                                    [converged]
  ----------------------------------------------------------------------------
  Term symbol:  6 (1) A2                                    R^2 =  1.56392e-08

  Total energy:                                            -78.4724627351 a.u.
  Excitation energy:                                               9.417703 eV

  Osc. strength:                                                      0.000000
  Trans. dip. moment [a.u.]:           [  -0.000000,   -0.000000,   -0.000000]
  <i|r^2|0> [a.u.]:                    [   0.000000,    0.000000,    0.000000]

  Dip. moment [a.u.]:                  [  -0.000000,    0.000000,   -3.978806]
  Total dipole [Debye]:                                              10.113117
  <r^2> [a.u.]:                        [  61.553547,   54.411301,   91.156737]
  Total <r^2> [a.u.]:                                               207.121586

  V1^2 = 0.9303, V2^2 = 0.0697

  Important amplitudes:
      occ i      occ j       vir a       vir b          v   
    ---------------------------------------------------------
     3 (B1) A               2 (B2) A                  0.6692
     3 (B1) A               3 (B2) A                  0.1259
    ---------------------------------------------------------

  Density matrix analysis:
  ------------------------
  NOs
    Occupation of frontier NOs:
       0.9954   1.0221
    Number of electrons: 18.000000
    Number of unpaired electrons: n_u =  2.50103, n_u,nl =  2.07993
    NO participation ratio (PR_NO):  3.177569
  
  
  Mulliken Population Analysis
  Atom      Charge (e)              h+              e-           Del q
  --------------------------------------------------------------------
   1 C       -0.710452        0.309203       -0.646924       -0.337720
   2 C       -0.710452        0.309203       -0.646924       -0.337720
   3 H        0.292059        0.176643       -0.022731        0.153912
   4 H        0.292059        0.176643       -0.022731        0.153912
   5 H        0.208873        0.190891       -0.010320        0.180571
   6 H        0.208873        0.190891       -0.010320        0.180571
   7 H       -0.580960        0.039250       -0.032775        0.006475
  --------------------------------------------------------------------
  Sum:       -1.000000        1.392724       -1.392724        0.000000
  
  Multipole moment analysis of the density matrix
    Molecular charge:                      -1.000000
    Number of electrons:                   18.000000
      Center of electronic charge [Ang]: [  0.000000,  -0.000000,   0.116972]
    Total nuclear charge:                  17.000000
      Center of nuclear charge [Ang]:    [ -0.000000,   0.000000,   0.000000]
    Dipole moment [D]:                     10.113114
      Cartesian components [D]:          [ -0.000000,   0.000000, -10.113114]
    RMS size of the density [Ang]:         1.791239
      Cartesian components [Ang]:        [  0.978569,   0.920046,   1.185097]
  
  Exciton analysis of the difference density matrix
    <r_h> [Ang]:                  [  0.000000,  -0.000000,  -0.045277]
    <r_e> [Ang]:                  [  0.000000,  -0.000000,  -0.085637]
    |<r_e - r_h>| [Ang]:            0.040360
    Hole size [Ang]:                1.961228
      Cartesian components [Ang]: [  1.248460,   0.769028,   1.302444]
    Electron size [Ang]:            3.773776
      Cartesian components [Ang]: [  1.763481,   2.835475,   1.758294]

  Transition density matrix analysis:
  -----------------------------------
  
  CT numbers (Mulliken)
    omega =     0.9149
    <Phe> =    -0.0003
  
  Exciton analysis of the transition density matrix
    Trans. dipole moment [D]:             0.000000
      Cartesian components [D]:         [ -0.000000,  -0.000000,  -0.000000]
    <r_h> [Ang]:                        [ -0.000000,   0.000000,  -0.124056]
    <r_e> [Ang]:                        [  0.000000,  -0.000000,  -0.176301]
    |<r_e - r_h>| [Ang]:                  0.052245
    Hole size [Ang]:                      1.523328
      Cartesian components [Ang]:       [  1.127741,   0.414520,   0.936430]
    Electron size [Ang]:                  4.280069
      Cartesian components [Ang]:       [  1.954188,   3.297650,   1.904112]
    RMS electron-hole separation [Ang]:   4.516110
      Cartesian components [Ang]:       [  2.201401,   3.323274,   2.122482]
    Covariance(r_h, r_e) [Ang^2]:         0.123498
    Correlation coefficient:              0.018942
    Center-of-mass size [Ang]:            2.285088
      Cartesian components [Ang]:       [  1.154895,   1.661964,   1.061000]

  Decomposition into state-averaged NTOs
    H- 3 -> L+ 2:  0.6755 ( 91.3%)
                   omega =  91.5%
  ----------------------------------------------------------------------------


  Excited state 7 (singlet, A2)                                    [converged]
  ----------------------------------------------------------------------------
  Term symbol:  7 (1) A2                                    R^2 =  4.42692e-08

  Total energy:                                            -78.4670173274 a.u.
  Excitation energy:                                               9.565880 eV

  Osc. strength:                                                      0.000000
  Trans. dip. moment [a.u.]:           [  -0.000000,   -0.000000,    0.000000]
  <i|r^2|0> [a.u.]:                    [   0.000000,    0.000000,    0.000000]

  Dip. moment [a.u.]:                  [   0.000000,    0.000000,   -3.959023]
  Total dipole [Debye]:                                              10.062836
  <r^2> [a.u.]:                        [  56.851832,   21.840402,   84.399707]
  Total <r^2> [a.u.]:                                               163.091941

  V1^2 = 0.9518, V2^2 = 0.0482

  Important amplitudes:
      occ i      occ j       vir a       vir b          v   
    ---------------------------------------------------------
     4 (A1) A               2 (A2) A                  0.5595
     4 (A1) A               1 (A2) A                 -0.2848
    ---------------------------------------------------------

  Density matrix analysis:
  ------------------------
  NOs
    Occupation of frontier NOs:
       0.9472   1.0473
    Number of electrons: 18.000000
    Number of unpaired electrons: n_u =  2.41464, n_u,nl =  2.06394
    NO participation ratio (PR_NO):  3.195721
  
  
  Mulliken Population Analysis
  Atom      Charge (e)              h+              e-           Del q
  --------------------------------------------------------------------
   1 C       -0.505045        0.436497       -0.568810       -0.132313
   2 C       -0.505045        0.436497       -0.568810       -0.132313
   3 H        0.197985        0.071267       -0.011430        0.059837
   4 H        0.197985        0.071267       -0.011430        0.059837
   5 H        0.100168        0.077063       -0.005197        0.071866
   6 H        0.100168        0.077063       -0.005197        0.071866
   7 H       -0.586214        0.009652       -0.008431        0.001221
  --------------------------------------------------------------------
  Sum:       -1.000000        1.179305       -1.179305        0.000000
  
  Multipole moment analysis of the density matrix
    Molecular charge:                      -1.000000
    Number of electrons:                   18.000000
      Center of electronic charge [Ang]: [ -0.000000,  -0.000000,   0.116390]
    Total nuclear charge:                  17.000000
      Center of nuclear charge [Ang]:    [ -0.000000,   0.000000,   0.000000]
    Dipole moment [D]:                     10.062833
      Cartesian components [D]:          [  0.000000,   0.000000, -10.062833]
    RMS size of the density [Ang]:         1.588615
      Cartesian components [Ang]:        [  0.940453,   0.582902,   1.139944]
  
  Exciton analysis of the difference density matrix
    <r_h> [Ang]:                  [  0.000000,  -0.000000,  -0.135004]
    <r_e> [Ang]:                  [ -0.000000,  -0.000000,  -0.191544]
    |<r_e - r_h>| [Ang]:            0.056540
    Hole size [Ang]:                1.537689
      Cartesian components [Ang]: [  1.138797,   0.614159,   0.830927]
    Electron size [Ang]:            2.042909
      Cartesian components [Ang]: [  1.418579,   1.199848,   0.849399]

  Transition density matrix analysis:
  -----------------------------------
  
  CT numbers (Mulliken)
    omega =     0.9202
    <Phe> =    -0.0150
  
  Exciton analysis of the transition density matrix
    Trans. dipole moment [D]:             0.000000
      Cartesian components [D]:         [ -0.000000,  -0.000000,   0.000000]
    <r_h> [Ang]:                        [ -0.000000,  -0.000000,  -0.148116]
    <r_e> [Ang]:                        [ -0.000000,  -0.000000,  -0.223765]
    |<r_e - r_h>| [Ang]:                  0.075648
    Hole size [Ang]:                      1.300670
      Cartesian components [Ang]:       [  1.064199,   0.442011,   0.603200]
    Electron size [Ang]:                  2.112362
      Cartesian components [Ang]:       [  1.485415,   1.262335,   0.813712]
    RMS electron-hole separation [Ang]:   2.466478
      Cartesian components [Ang]:       [  1.809822,   1.333816,   1.014392]
    Covariance(r_h, r_e) [Ang^2]:         0.038013
    Correlation coefficient:              0.013836
    Center-of-mass size [Ang]:            1.247983
      Cartesian components [Ang]:       [  0.922292,   0.670571,   0.507121]

  Decomposition into state-averaged NTOs
    H- 2 -> L+ 0: -0.6604 ( 87.2%)
    H- 0 -> L+ 3: -0.1114 (  2.5%)
    H- 0 -> L+ 5:  0.0769 (  1.2%)
                   omega =  92.0%
  ----------------------------------------------------------------------------


  Excited state 8 (singlet, A2)                                    [converged]
  ----------------------------------------------------------------------------
  Term symbol:  8 (1) A2                                    R^2 =  1.57804e-08

  Total energy:                                            -78.4601985223 a.u.
  Excitation energy:                                               9.751429 eV

  Osc. strength:                                                      0.000000
  Trans. dip. moment [a.u.]:           [   0.000000,    0.000000,    0.000000]
  <i|r^2|0> [a.u.]:                    [   0.000000,    0.000000,    0.000000]

  Dip. moment [a.u.]:                  [   0.000000,    0.000000,   -2.320231]
  Total dipole [Debye]:                                               5.897441
  <r^2> [a.u.]:                        [  80.824670,   24.805604,   93.195996]
  Total <r^2> [a.u.]:                                               198.826270

  V1^2 = 0.9443, V2^2 = 0.0557

  Important amplitudes:
      occ i      occ j       vir a       vir b          v   
    ---------------------------------------------------------
     1 (B2) A               6 (B1) A                 -0.6260
     1 (B2) A               7 (B1) A                  0.1645
    ---------------------------------------------------------

  Density matrix analysis:
  ------------------------
  NOs
    Occupation of frontier NOs:
       0.9455   1.0228
    Number of electrons: 18.000000
    Number of unpaired electrons: n_u =  2.39804, n_u,nl =  2.05607
    NO participation ratio (PR_NO):  3.082344
  
  
  Mulliken Population Analysis
  Atom      Charge (e)              h+              e-           Del q
  --------------------------------------------------------------------
   1 C       -0.641748        0.525544       -0.794561       -0.269016
   2 C       -0.641748        0.525544       -0.794561       -0.269016
   3 H        0.174759        0.058416       -0.021804        0.036612
   4 H        0.174759        0.058416       -0.021804        0.036612
   5 H        0.262205        0.110748        0.123155        0.233903
   6 H        0.262205        0.110748        0.123155        0.233903
   7 H       -0.590433        0.030136       -0.033132       -0.002997
  --------------------------------------------------------------------
  Sum:       -1.000000        1.419551       -1.419551       -0.000000
  
  Multipole moment analysis of the density matrix
    Molecular charge:                      -1.000000
    Number of electrons:                   18.000000
      Center of electronic charge [Ang]: [ -0.000000,  -0.000000,   0.068212]
    Total nuclear charge:                  17.000000
      Center of nuclear charge [Ang]:    [ -0.000000,   0.000000,   0.000000]
    Dipole moment [D]:                     5.897439
      Cartesian components [D]:          [  0.000000,   0.000000,  -5.897439]
    RMS size of the density [Ang]:         1.757417
      Cartesian components [Ang]:        [  1.121339,   0.621212,   1.202169]
  
  Exciton analysis of the difference density matrix
    <r_h> [Ang]:                  [  0.000000,  -0.000000,  -0.143594]
    <r_e> [Ang]:                  [ -0.000000,  -0.000000,  -0.801471]
    |<r_e - r_h>| [Ang]:            0.657877
    Hole size [Ang]:                1.854569
      Cartesian components [Ang]: [  1.127832,   0.946292,   1.127808]
    Electron size [Ang]:            3.374168
      Cartesian components [Ang]: [  2.568157,   1.537217,   1.557737]

  Transition density matrix analysis:
  -----------------------------------
  
  CT numbers (Mulliken)
    omega =     0.9130
    <Phe> =    -0.0043
  
  Exciton analysis of the transition density matrix
    Trans. dipole moment [D]:             0.000000
      Cartesian components [D]:         [  0.000000,   0.000000,   0.000000]
    <r_h> [Ang]:                        [  0.000000,  -0.000000,  -0.181457]
    <r_e> [Ang]:                        [ -0.000000,  -0.000000,  -1.169993]
    |<r_e - r_h>| [Ang]:                  0.988536
    Hole size [Ang]:                      1.274697
      Cartesian components [Ang]:       [  0.777395,   0.864720,   0.522272]
    Electron size [Ang]:                  3.763077
      Cartesian components [Ang]:       [  2.960352,   1.761072,   1.515153]
    RMS electron-hole separation [Ang]:   4.086323
      Cartesian components [Ang]:       [  3.055043,   1.955901,   1.881276]
    Covariance(r_h, r_e) [Ang^2]:         0.032381
    Correlation coefficient:              0.006751
    Center-of-mass size [Ang]:            1.990625
      Cartesian components [Ang]:       [  1.533196,   0.983957,   0.802327]

  Decomposition into state-averaged NTOs
    H- 0 -> L+ 3:  0.5432 ( 59.0%)
    H- 0 -> L+ 5: -0.3331 ( 22.2%)
    H- 0 -> L+ 1:  0.1488 (  4.4%)
    H- 2 -> L+ 0: -0.1430 (  4.1%)
    H- 0 -> L+ 4:  0.0867 (  1.5%)
                   omega =  91.3%
  ----------------------------------------------------------------------------


  Excited state 9 (singlet, A2)                                    [converged]
  ----------------------------------------------------------------------------
  Term symbol:  9 (1) A2                                    R^2 =  6.60702e-10

  Total energy:                                            -78.4352074044 a.u.
  Excitation energy:                                              10.431472 eV

  Osc. strength:                                                      0.000000
  Trans. dip. moment [a.u.]:           [  -0.000000,   -0.000000,   -0.000000]
  <i|r^2|0> [a.u.]:                    [   0.000000,   -0.000000,   -0.000000]

  Dip. moment [a.u.]:                  [  -0.000000,   -0.000000,    9.922700]
  Total dipole [Debye]:                                              25.220992
  <r^2> [a.u.]:                        [ 113.201426,   71.671850,   62.828707]
  Total <r^2> [a.u.]:                                               247.701983

  V1^2 = 0.0000, V2^2 = 1.0000

  Important amplitudes:
      occ i      occ j       vir a       vir b          v   
    ---------------------------------------------------------
     5 (A1) A   5 (A1) B    4 (B1) A    2 (B2) B      0.3535
     5 (A1) A               3 (A2) A                  0.0031
    ---------------------------------------------------------

  Density matrix analysis:
  ------------------------
  NOs
    Occupation of frontier NOs:
       1.0003   1.0009
    Number of electrons: 18.000000
    Number of unpaired electrons: n_u =  2.41144, n_u,nl =  2.06994
    NO participation ratio (PR_NO):  2.885427
  
  
  Mulliken Population Analysis
  Atom      Charge (e)              h+              e-           Del q
  --------------------------------------------------------------------
   1 C       -1.178418        0.157131       -0.962817       -0.805686
   2 C       -1.178418        0.157131       -0.962817       -0.805686
   3 H        0.167766        0.025963        0.003655        0.029618
   4 H        0.167766        0.025963        0.003655        0.029618
   5 H       -0.011902        0.000609       -0.040813       -0.040204
   6 H       -0.011902        0.000609       -0.040813       -0.040204
   7 H        1.045108        1.632563       -0.000019        1.632544
  --------------------------------------------------------------------
  Sum:       -1.000000        1.999970       -1.999970        0.000000
  
  Multipole moment analysis of the density matrix
    Molecular charge:                      -1.000000
    Number of electrons:                   18.000000
      Center of electronic charge [Ang]: [  0.000000,   0.000000,  -0.291715]
    Total nuclear charge:                  17.000000
      Center of nuclear charge [Ang]:    [ -0.000000,   0.000000,   0.000000]
    Dipole moment [D]:                     25.220984
      Cartesian components [D]:          [ -0.000000,  -0.000000,  25.220984]
    RMS size of the density [Ang]:         1.941246
      Cartesian components [Ang]:        [  1.327061,   1.055940,   0.944636]
  
  Exciton analysis of the difference density matrix
    <r_h> [Ang]:                  [  0.000000,   0.000000,   2.650048]
    <r_e> [Ang]:                  [  0.000000,   0.000000,  -1.056293]
    |<r_e - r_h>| [Ang]:            3.706341
    Hole size [Ang]:                1.663240
      Cartesian components [Ang]: [  0.844779,   0.826576,   1.170251]
    Electron size [Ang]:            4.647336
      Cartesian components [Ang]: [  3.004234,   2.878703,   2.070116]

  Transition density matrix analysis:
  -----------------------------------
  
  CT numbers (Mulliken)
    omega =     0.0001
    <Phe> =     0.1778
  
  Exciton analysis of the transition density matrix
    Trans. dipole moment [D]:             0.000000
      Cartesian components [D]:         [ -0.000000,  -0.000000,  -0.000000]
    <r_h> [Ang]:                        [  0.000000,  -0.000000,   1.125996]
    <r_e> [Ang]:                        [  0.000000,   0.000000,  -0.990888]
    |<r_e - r_h>| [Ang]:                  2.116884
    Hole size [Ang]:                      3.006740
      Cartesian components [Ang]:       [  1.370020,   1.782236,   1.996789]
    Electron size [Ang]:                  4.355089
      Cartesian components [Ang]:       [  3.137749,   2.379496,   1.859928]
    RMS electron-hole separation [Ang]:   5.563547
      Cartesian components [Ang]:       [  3.414437,   2.908564,   3.291646]
    Covariance(r_h, r_e) [Ang^2]:         0.767713
    Correlation coefficient:              0.058628
    Center-of-mass size [Ang]:            2.717660
      Cartesian components [Ang]:       [  1.716571,   1.517975,   1.461100]

  Decomposition into state-averaged NTOs
                   omega =   0.0%
  ----------------------------------------------------------------------------


  Excited state 10 (singlet, A2)                                    [converged]
  ----------------------------------------------------------------------------
  Term symbol:  10 (1) A2                                   R^2 =  1.10450e-06

  Total energy:                                            -78.4253326519 a.u.
  Excitation energy:                                              10.700178 eV

  Osc. strength:                                                      0.000000
  Trans. dip. moment [a.u.]:           [   0.000000,    0.000000,   -0.000000]
  <i|r^2|0> [a.u.]:                    [   0.000000,   -0.000000,   -0.000000]

  Dip. moment [a.u.]:                  [   0.000000,   -0.000000,   -4.650466]
  Total dipole [Debye]:                                              11.820308
  <r^2> [a.u.]:                        [  74.524401,   24.171024,   93.588577]
  Total <r^2> [a.u.]:                                               192.284001

  V1^2 = 0.9455, V2^2 = 0.0545

  Important amplitudes:
      occ i      occ j       vir a       vir b          v   
    ---------------------------------------------------------
     1 (B2) A               7 (B1) A                 -0.6481
     1 (B2) A               6 (B1) A                 -0.1757
    ---------------------------------------------------------

  Density matrix analysis:
  ------------------------
  NOs
    Occupation of frontier NOs:
       0.9827   0.9929
    Number of electrons: 18.000000
    Number of unpaired electrons: n_u =  2.35536, n_u,nl =  2.03012
    NO participation ratio (PR_NO):  2.831273
  
  
  Mulliken Population Analysis
  Atom      Charge (e)              h+              e-           Del q
  --------------------------------------------------------------------
   1 C       -0.620449        0.534482       -0.782200       -0.247717
   2 C       -0.620449        0.534482       -0.782200       -0.247717
   3 H        0.284580        0.087381        0.059051        0.146433
   4 H        0.284580        0.087381        0.059051        0.146433
   5 H        0.122790        0.104842       -0.010354        0.094488
   6 H        0.122790        0.104842       -0.010354        0.094488
   7 H       -0.573842        0.035970       -0.022377        0.013594
  --------------------------------------------------------------------
  Sum:       -1.000000        1.489382       -1.489382       -0.000000
  
  Multipole moment analysis of the density matrix
    Molecular charge:                      -1.000000
    Number of electrons:                   18.000000
      Center of electronic charge [Ang]: [ -0.000000,   0.000000,   0.136718]
    Total nuclear charge:                  17.000000
      Center of nuclear charge [Ang]:    [ -0.000000,   0.000000,   0.000000]
    Dipole moment [D]:                     11.820304
      Cartesian components [D]:          [  0.000000,  -0.000000, -11.820304]
    RMS size of the density [Ang]:         1.724151
      Cartesian components [Ang]:        [  1.076748,   0.613214,   1.198866]
  
  Exciton analysis of the difference density matrix
    <r_h> [Ang]:                  [ -0.000000,  -0.000000,  -0.104442]
    <r_e> [Ang]:                  [ -0.000000,   0.000000,   0.096458]
    |<r_e - r_h>| [Ang]:            0.200900
    Hole size [Ang]:                1.784682
      Cartesian components [Ang]: [  1.083086,   0.914045,   1.084683]
    Electron size [Ang]:            3.181553
      Cartesian components [Ang]: [  2.249968,   1.454278,   1.716099]

  Transition density matrix analysis:
  -----------------------------------
  
  CT numbers (Mulliken)
    omega =     0.9147
    <Phe> =    -0.0015
  
  Exciton analysis of the transition density matrix
    Trans. dipole moment [D]:             0.000000
      Cartesian components [D]:         [  0.000000,   0.000000,  -0.000000]
    <r_h> [Ang]:                        [  0.000000,  -0.000000,  -0.183309]
    <r_e> [Ang]:                        [ -0.000000,   0.000000,   0.132594]
    |<r_e - r_h>| [Ang]:                  0.315903
    Hole size [Ang]:                      1.276798
      Cartesian components [Ang]:       [  0.763956,   0.881110,   0.519836]
    Electron size [Ang]:                  3.708951
      Cartesian components [Ang]:       [  2.654469,   1.711537,   1.944416]
    RMS electron-hole separation [Ang]:   3.929533
      Cartesian components [Ang]:       [  2.756838,   1.921312,   2.037065]
    Covariance(r_h, r_e) [Ang^2]:         0.022550
    Correlation coefficient:              0.004762
    Center-of-mass size [Ang]:            1.964156
      Cartesian components [Ang]:       [  1.383791,   0.964364,   1.006495]

  Decomposition into state-averaged NTOs
    H- 0 -> L+ 1: -0.5982 ( 71.6%)
    H- 0 -> L+ 3:  0.2235 ( 10.0%)
    H- 0 -> L+ 4: -0.2187 (  9.6%)
                   omega =  91.5%
  ----------------------------------------------------------------------------


--------------------------------------------------------------------------------
  Time of ADC calculation:  CPU 139.78 s  wall 40.30 s
================================================================================
 
 --------------------------------------------------------------
             Orbital Energies (a.u.) and Symmetries
 --------------------------------------------------------------
 
 Alpha MOs, Restricted
 -- Occupied --                  
-11.070 -11.068  -0.876  -0.619  -0.493  -0.404  -0.347  -0.213
  1 A1    1 B1    2 A1    2 B1    3 A1    4 A1    3 B1    1 B2                 
 -0.033
  5 A1                                                                         
 -- Virtual --                   
  0.147   0.170   0.172   0.176   0.179   0.189   0.269   0.290
  4 B1    2 B2    6 A1    1 A2    7 A1    5 B1    8 A1    2 A2                 
  0.321   0.346   0.352   0.377   0.379   0.388   0.460   0.476
  6 B1    7 B1    9 A1    8 B1    3 B2   10 A1    3 A2   11 A1                 
  0.503   0.508   0.672   0.717   0.895   0.996   1.031   1.034
 12 A1    9 B1   10 B1   11 B1   13 A1   14 A1   15 A1   16 A1                 
  1.087   1.103   1.122   1.150   1.165   1.231   1.244   1.280
 12 B1    4 B2   17 A1    4 A2   13 B1   14 B1   18 A1    5 B2                 
  1.448   1.451   1.457   1.519   1.776   1.780   1.882   1.886
  6 B2    5 A2   15 B1   16 B1   19 A1   17 B1   20 A1    7 B2                 
  1.936   1.983   2.023   2.091   2.104   2.180   2.187   2.242
 18 B1   21 A1    6 A2   19 B1    8 B2   22 A1    9 B2   23 A1                 
  2.337   2.486   2.579   2.627   2.729   2.753   2.964   2.994
  7 A2   20 B1    8 A2   24 A1   21 B1   22 B1   25 A1   26 A1                 
  3.407   3.509
 23 B1   24 B1                                                                 
 
 Beta MOs, Restricted
 -- Occupied --                  
-11.070 -11.068  -0.876  -0.619  -0.493  -0.404  -0.347  -0.213
  1 A1    1 B1    2 A1    2 B1    3 A1    4 A1    3 B1    1 B2                 
 -0.033
  5 A1                                                                         
 -- Virtual --                   
  0.147   0.170   0.172   0.176   0.179   0.189   0.269   0.290
  4 B1    2 B2    6 A1    1 A2    7 A1    5 B1    8 A1    2 A2                 
  0.321   0.346   0.352   0.377   0.379   0.388   0.460   0.476
  6 B1    7 B1    9 A1    8 B1    3 B2   10 A1    3 A2   11 A1                 
  0.503   0.508   0.672   0.717   0.895   0.996   1.031   1.034
 12 A1    9 B1   10 B1   11 B1   13 A1   14 A1   15 A1   16 A1                 
  1.087   1.103   1.122   1.150   1.165   1.231   1.244   1.280
 12 B1    4 B2   17 A1    4 A2   13 B1   14 B1   18 A1    5 B2                 
  1.448   1.451   1.457   1.519   1.776   1.780   1.882   1.886
  6 B2    5 A2   15 B1   16 B1   19 A1   17 B1   20 A1    7 B2                 
  1.936   1.983   2.023   2.091   2.104   2.180   2.187   2.242
 18 B1   21 A1    6 A2   19 B1    8 B2   22 A1    9 B2   23 A1                 
  2.337   2.486   2.579   2.627   2.729   2.753   2.964   2.994
  7 A2   20 B1    8 A2   24 A1   21 B1   22 B1   25 A1   26 A1                 
  3.407   3.509
 23 B1   24 B1                                                                 
 --------------------------------------------------------------
 
          Ground-State Mulliken Net Atomic Charges

     Atom                 Charge (a.u.)
  ----------------------------------------
      1 C                    -0.342235
      2 C                    -0.342235
      3 H                     0.140639
      4 H                     0.140639
      5 H                     0.020681
      6 H                     0.020681
      7 H                    -0.638170
  ----------------------------------------
  Sum of atomic charges =    -1.000000

 -----------------------------------------------------------------
                    Cartesian Multipole Moments
 -----------------------------------------------------------------
    Charge (ESU x 10^10)
                -4.8032
    Dipole Moment (Debye)
         X      -0.0000      Y       0.0000      Z     -10.8279
       Tot      10.8279
    Quadrupole Moments (Debye-Ang)
        XX     -20.3629     XY      -0.0000     YY     -23.0743
        XZ      -0.0000     YZ      -0.0000     ZZ     -54.8909
    Octopole Moments (Debye-Ang^2)
       XXX      -0.0000    XXY       0.0000    XYY      -0.0000
       YYY       0.0000    XXZ      -7.3471    XYZ      -0.0000
       YYZ     -10.0764    XZZ      -0.0000    YZZ       0.0000
       ZZZ    -117.7807
    Hexadecapole Moments (Debye-Ang^3)
      XXXX    -109.9084   XXXY      -0.0000   XXYY     -27.4555
      XYYY      -0.0000   YYYY     -54.8240   XXXZ       0.0000
      XXYZ      -0.0000   XYYZ      -0.0000   YYYZ      -0.0000
      XXZZ     -73.5588   XYZZ      -0.0000   YYZZ     -66.4633
      XZZZ      -0.0000   YZZZ      -0.0000   ZZZZ    -583.2726
 -----------------------------------------------------------------
 Total job time:  123.10s(wall), 185.13s(cpu) 
 Sun Mar 27 17:21:04 2022

        *************************************************************
        *                                                           *
        *  Thank you very much for using Q-Chem.  Have a nice day.  *
        *                                                           *
        *************************************************************


