/src/tsommerfeld/qchem/exe/qcprog.exe .input1.416667.1595.qcin.1 /src/jdavis/qchem.scratch/qchem1595/

                  Welcome to Q-Chem
     A Quantum Leap Into The Future Of Chemistry


 Q-Chem 5.4 (devel), Q-Chem, Inc., Pleasanton, CA (2021)

 E. Epifanovsky,  A. T. B. Gilbert,  Xintian Feng,  Joonho Lee,  Yuezhi Mao,  
 N. Mardirossian,  P. Pokhilko,  A. White,  M. Wormit,  M. P. Coons,  
 A. L. Dempwolff,  Zhengting Gan,  D. Hait,  P. R. Horn,  L. D. Jacobson,  
 I. Kaliman,  J. Kussmann,  A. W. Lange,  Ka Un Lao,  D. S. Levine,  Jie Liu,  
 S. C. McKenzie,  A. F. Morrison,  K. Nanda,  F. Plasser,  D. R. Rehn,  
 M. L. Vidal,  Zhi-Qiang You,  Ying Zhu,  B. Alam,  B. Albrecht,  
 A. Aldossary,  E. Alguire,  J. H. Andersen,  D. Barton,  K. Begam,  A. Behn,  
 Y. A. Bernard,  E. J. Berquist,  H. Burton,  A. Carreras,  K. Carter-Fenk,  
 R. Chakraborty,  A. D. Chien,  K. D. Closser,  V. Cofer-Shabica,  
 S. Dasgupta,  Jia Deng,  M. de Wergifosse,  M. Diedenhofen,  Hainam Do,  
 S. Ehlert,  Po-Tung Fang,  S. Fatehi,  Qingguo Feng,  T. Friedhoff,  
 J. Gayvert,  Qinghui Ge,  G. Gidofalvi,  M. Goldey,  J. Gomes,  
 C. Gonzalez-Espinoza,  S. Gulania,  A. Gunina,  M. W. D. Hanson-Heine,  
 P. H. P. Harbach,  A. W. Hauser,  M. F. Herbst,  M. Hernandez Vera,  
 M. Hodecker,  Z. C. Holden,  S. Houck,  Xunkun Huang,  Kerwin Hui,  
 B. C. Huynh,  M. Ivanov,  Hyunjun Ji,  Hanjie Jiang,  B. Kaduk,  S. Kaehler,  
 K. Khistyaev,  Jaehoon Kim,  P. Klunzinger,  Z. Koczor-Benda,  
 Joong Hoon Koh,  D. Kosenkov,  L. Koulias,  T. Kowalczyk,  C. M. Krauter,  
 K. Kue,  A. Kunitsa,  T. Kus,  A. Landau,  K. V. Lawler,  D. Lefrancois,  
 S. Lehtola,  Rain Li,  Yi-Pei Li,  Jiashu Liang,  M. Liebenthal,  
 Hung-Hsuan Lin,  You-Sheng Lin,  Fenglai Liu,  Kuan-Yu Liu,  
 M. Loipersberger,  A. Luenser,  A. Manjanath,  P. Manohar,  E. Mansoor,  
 S. F. Manzer,  Shan-Ping Mao,  A. V. Marenich,  T. Markovich,  S. Mason,  
 S. A. Maurer,  P. F. McLaughlin,  M. F. S. J. Menger,  J.-M. Mewes,  
 S. A. Mewes,  P. Morgante,  J. W. Mullinax,  K. J. Oosterbaan,  G. Paran,  
 Alexander C. Paul,  Suranjan K. Paul,  F. Pavosevic,  Zheng Pei,  S. Prager,  
 E. I. Proynov,  E. Ramos,  B. Rana,  A. E. Rask,  A. Rettig,  R. M. Richard,  
 F. Rob,  E. Rossomme,  T. Scheele,  M. Scheurer,  M. Schneider,  
 N. Sergueev,  S. M. Sharada,  W. Skomorowski,  D. W. Small,  C. J. Stein,  
 Yu-Chuan Su,  E. J. Sundstrom,  Zhen Tao,  J. Thirman,  T. Tsuchimochi,  
 N. M. Tubman,  S. P. Veccham,  O. Vydrov,  J. Wenzel,  J. Witte,  A. Yamada,  
 Kun Yao,  S. Yeganeh,  S. R. Yost,  A. Zech,  Igor Ying Zhang,  Xing Zhang,  
 Yu Zhang,  D. Zuev,  A. Aspuru-Guzik,  A. T. Bell,  N. A. Besley,  
 K. B. Bravaya,  B. R. Brooks,  D. Casanova,  Jeng-Da Chai,  S. Coriani,  
 C. J. Cramer,  A. E. DePrince, III,  R. A. DiStasio Jr.,  A. Dreuw,  
 B. D. Dunietz,  T. R. Furlani,  W. A. Goddard III,  S. Grimme,  
 S. Hammes-Schiffer,  T. Head-Gordon,  W. J. Hehre,  Chao-Ping Hsu,  
 T.-C. Jagau,  Yousung Jung,  A. Klamt,  Jing Kong,  D. S. Lambrecht,  
 WanZhen Liang,  N. J. Mayhall,  C. W. McCurdy,  J. B. Neaton,  
 C. Ochsenfeld,  J. A. Parkhill,  R. Peverati,  V. A. Rassolov,  Yihan Shao,  
 L. V. Slipchenko,  T. Stauch,  R. P. Steele,  J. E. Subotnik,  
 A. J. W. Thom,  A. Tkatchenko,  D. G. Truhlar,  T. Van Voorhis,  
 T. A. Wesolowski,  K. B. Whaley,  H. L. Woodcock III,  P. M. Zimmerman,  
 S. Faraji,  P. M. W. Gill,  M. Head-Gordon,  J. M. Herbert,  A. I. Krylov

 Additional authors for Version 5.4.1: 
 S. Kotaru,  Shaozhi Li,  Xiangyuan Li,  F. Matz,  A. Molle,  Haisheng Ren,  
 Yingli Su,  Hung-Yi Tsai,  C. Utku,  Fang Wang

 Contributors to earlier versions of Q-Chem not listed above: 
 R. D. Adamson,  B. Austin,  R. Baer,  J. Baker,  G. J. O. Beran,  
 K. Brandhorst,  S. T. Brown,  E. F. C. Byrd,  A. K. Chakraborty,  
 G. K. L. Chan,  Chun-Min Chang,  Yunqing Chen,  C.-L. Cheng,  
 Siu Hung Chien,  D. M. Chipman,  D. L. Crittenden,  H. Dachsel,  
 R. J. Doerksen,  A. D. Dutoi,  R. G. Edgar,  J. Fosso-Tande,  
 L. Fusti-Molnar,  D. Ghosh,  A. Ghysels,  A. Golubeva-Zadorozhnaya,  
 J. Gonthier,  M. S. Gordon,  S. R. Gwaltney,  G. Hawkins,  J. E. Herr,  
 A. Heyden,  S. Hirata,  E. G. Hohenstein,  G. Kedziora,  F. J. Keil,  
 C. Kelley,  Jihan Kim,  R. A. King,  R. Z. Khaliullin,  P. P. Korambath,  
 W. Kurlancheek,  A. Laurent,  A. M. Lee,  M. S. Lee,  S. V. Levchenko,  
 Ching Yeh Lin,  D. Liotard,  E. Livshits,  R. C. Lochan,  I. Lotan,  
 L. A. Martinez-Martinez,  P. E. Maslen,  N. Nair,  D. P. O'Neill,  
 D. Neuhauser,  E. Neuscamman,  C. M. Oana,  R. Olivares-Amaya,  R. Olson,  
 T. M. Perrine,  B. Peters,  P. A. Pieniazek,  A. Prociuk,  Y. M. Rhee,  
 J. Ritchie,  M. A. Rohrdanz,  E. Rosta,  N. J. Russ,  H. F. Schaefer III,  
 M. W. Schmidt,  N. E. Schultz,  S. Sharma,  N. Shenvi,  C. D. Sherrill,  
 A. C. Simmonett,  A. Sodt,  T. Stein,  D. Stuck,  K. S. Thanthiriwatte,  
 V. Vanovschi,  L. Vogt,  Tao Wang,  A. Warshel,  M. A. Watson,  
 C. F. Williams,  Q. Wu,  X. Xu,  Jun Yang,  W. Zhang,  Yan Zhao

 Please cite Q-Chem as follows:
 Y. Shao et al., Mol. Phys. 113, 184-215 (2015)
 DOI: 10.1080/00268976.2014.952696

 Q-Chem 5.4.1 for Intel X86 EM64T Linux

 Parts of Q-Chem use Armadillo 9.900.5 (Nocturnal Misbehaviour).
 http://arma.sourceforge.net/

 Q-Chem begins on Sun Mar 27 17:59:29 2022  

 Host: node01
0

     Scratch files written to /src/jdavis/qchem.scratch/qchem1595//
 Processing $rem in /src/tsommerfeld/qchem/config/preferences:
 Processing $rem in /home/jdavis/.qchemrc:

 Checking the input file for inconsistencies... 	...done.

--------------------------------------------------------------
User input:
--------------------------------------------------------------
$molecule
-1 1
C        -0.6645000000    0.0000000000   -0.1764707059
C         0.6645000000    0.0000000000   -0.1764707059
H        -1.1590800000    0.0000000000    0.7858782941
H         1.1590800000    0.0000000000    0.7858782941
H        -1.1590800000    0.0000000000   -1.1388187059
H         1.1590800000    0.0000000000   -1.1388187059
H         0.0000000000    0.0000000000    2.8235292941
$end

$rem
   METHOD adc(2)
   BASIS gen
   PURECART 11
   EE_STATES [0,10,0,0]
   scf_convergence 8
   ADC_DAVIDSON_MAXITER 120
   ADC_DAVIDSON_MAXSUBSPACE 200
   adc_nguess_singles 100
   THRESH 14
   S2THRESH 14
   adc_davidson_conv 5
   adc_davidson_thresh 14
   THREADS 10
   MEM_TOTAL 95000
   STATE_ANALYSIS TRUE
$end
$basis
C 1
S   9   1.00
      6.665000D+03           6.920000D-04
      1.000000D+03           5.329000D-03
      2.280000D+02           2.707700D-02
      6.471000D+01           1.017180D-01
      2.106000D+01           2.747400D-01
      7.495000D+00           4.485640D-01
      2.797000D+00           2.850740D-01
      5.215000D-01           1.520400D-02
      1.596000D-01          -3.191000D-03
S   9   1.00
      6.665000D+03          -1.460000D-04
      1.000000D+03          -1.154000D-03
      2.280000D+02          -5.725000D-03
      6.471000D+01          -2.331200D-02
      2.106000D+01          -6.395500D-02
      7.495000D+00          -1.499810D-01
      2.797000D+00          -1.272620D-01
      5.215000D-01           5.445290D-01
      1.596000D-01           5.804960D-01
S   1   1.00
      1.596000D-01           1.000000D+00
S   1   1.00
      0.0469000              1.0000000
P   4   1.00
      9.439000D+00           3.810900D-02
      2.002000D+00           2.094800D-01
      5.456000D-01           5.085570D-01
      1.517000D-01           4.688420D-01
P   1   1.00
      1.517000D-01           1.000000D+00
P   1   1.00
      0.0859633      1.0000000
P   1   1.00
      0.0429817      1.0000000
D   1   1.00
      5.500000D-01           1.0000000
****
C 2
S   9   1.00
      6.665000D+03           6.920000D-04
      1.000000D+03           5.329000D-03
      2.280000D+02           2.707700D-02
      6.471000D+01           1.017180D-01
      2.106000D+01           2.747400D-01
      7.495000D+00           4.485640D-01
      2.797000D+00           2.850740D-01
      5.215000D-01           1.520400D-02
      1.596000D-01          -3.191000D-03
S   9   1.00
      6.665000D+03          -1.460000D-04
      1.000000D+03          -1.154000D-03
      2.280000D+02          -5.725000D-03
      6.471000D+01          -2.331200D-02
      2.106000D+01          -6.395500D-02
      7.495000D+00          -1.499810D-01
      2.797000D+00          -1.272620D-01
      5.215000D-01           5.445290D-01
      1.596000D-01           5.804960D-01
S   1   1.00
      1.596000D-01           1.000000D+00
S   1   1.00
      0.0469000              1.0000000
P   4   1.00
      9.439000D+00           3.810900D-02
      2.002000D+00           2.094800D-01
      5.456000D-01           5.085570D-01
      1.517000D-01           4.688420D-01
P   1   1.00
      1.517000D-01           1.000000D+00
P   1   1.00
      0.0859633      1.0000000
P   1   1.00
      0.0429817      1.0000000
D   1   1.00
      5.500000D-01           1.0000000
****
H 3
cc-pVDZ
****
H 4
cc-pVDZ
****
H 5
cc-pVDZ
****
H 6
cc-pVDZ
****
H 7
aug-cc-pVDZ
****
$end
--------------------------------------------------------------
 ----------------------------------------------------------------
             Standard Nuclear Orientation (Angstroms)
    I     Atom           X                Y                Z
 ----------------------------------------------------------------
    1      C      -0.6645000000    -0.0000000000    -0.1764707059
    2      C       0.6645000000     0.0000000000    -0.1764707059
    3      H      -1.1590800000    -0.0000000000     0.7858782941
    4      H       1.1590800000     0.0000000000     0.7858782941
    5      H      -1.1590800000    -0.0000000000    -1.1388187059
    6      H       1.1590800000     0.0000000000    -1.1388187059
    7      H       0.0000000000     0.0000000000     2.8235292941
 ----------------------------------------------------------------
 Molecular Point Group                 C2v   NOp =  4
 Largest Abelian Subgroup              C2v   NOp =  4
 Nuclear Repulsion Energy =          36.36366470 hartrees
 There are        9 alpha and        9 beta electrons
 Requested basis set is non-standard
 There are 33 shells and 67 basis functions
 Total memory of 95000 MB is distributed as follows: 
   MEM_STATIC is set to 192 MB
   QALLOC/CCMAN JOB total memory use is  94808 MB
 Warning: actual memory use might exceed 95000 MB

 Total QAlloc Memory Limit  95000 MB
 Mega-Array Size       188 MB
 MEM_STATIC part       192 MB

                       Distance Matrix (Angstroms)
             C (  1)   C (  2)   H (  3)   H (  4)   H (  5)   H (  6)
   C (  2)  1.329000
   H (  3)  1.082000  2.061931
   H (  4)  2.061931  1.082000  2.318160
   H (  5)  1.082000  2.061931  1.924697  3.013026
   H (  6)  2.061931  1.082000  3.013026  1.924697  2.318160
   H (  7)  3.072712  3.072712  2.344246  2.344246  4.128398  4.128398

 
 A cutoff of  1.0D-14 yielded    561 shell pairs
 There are      2337 function pairs (      2484 Cartesian)
 Smallest overlap matrix eigenvalue = 2.13E-04

 Scale SEOQF with 1.000000e-01/1.000000e-01/1.000000e-01

 Standard Electronic Orientation quadrupole field applied
 Nucleus-field energy     =    -0.0000000009 hartrees
 ================ Generating on-the-fly SAD Guess ================
Attempting to make child job directory: /src/jdavis/qchem.scratch/qchem1595//Frg1/
Attempting to make child job directory: /src/jdavis/qchem.scratch/qchem1595//Frg2/
Creating input file /src/jdavis/qchem.scratch/qchem1595/Frg1.input
using default PutDataFrgm: nothing
calling putenv with: QCSCRATCH=/src/jdavis/qchem.scratch/qchem1595/ 
Spawning Job For Fragment 0
Done Job For Fragment 0
calling putenv with: QCSCRATCH=/src/jdavis/qchem.scratch 
calling putenv with: QCTHREADS=1 
Creating input file /src/jdavis/qchem.scratch/qchem1595/Frg2.input
using default PutDataFrgm: nothing
calling putenv with: QCSCRATCH=/src/jdavis/qchem.scratch/qchem1595/ 
Spawning Job For Fragment 1
Done Job For Fragment 1
calling putenv with: QCSCRATCH=/src/jdavis/qchem.scratch 
calling putenv with: QCTHREADS=1 
 Time for running child jobs:  CPU 1.77 s  wall 54.40 s
 ============= Method Specific SAD Guess Constructed =============
 Guess from on-the-fly superposition of atomic densities
 Warning: Energy on first SCF cycle will be non-variational
 A restricted Hartree-Fock SCF calculation will be
 performed using Pulay DIIS extrapolation
 SCF converges when DIIS error is below 1.0E-08
 using 10 threads for integral computing
 -------------------------------------------------------
 OpenMP Integral computing Module                
 Release: version 1.0, May 2013, Q-Chem Inc. Pittsburgh 
 -------------------------------------------------------
 ---------------------------------------
  Cycle       Energy         DIIS Error
 ---------------------------------------
    1     -78.8158359508      7.37E-02
    2     -78.4587740334      6.97E-03
    3     -78.5056037227      1.74E-03
    4     -78.5083161534      5.61E-04
    5     -78.5086452170      1.21E-04
    6     -78.5086725119      2.91E-05
    7     -78.5086750771      7.80E-06
    8     -78.5086753040      1.11E-06
    9     -78.5086753092      2.57E-07
   10     -78.5086753096      5.19E-08
   11     -78.5086753096      1.14E-08
   12     -78.5086753096      1.56E-09 Convergence criterion met
 ---------------------------------------
 SCF time:  CPU 11.07 s  wall 1.11 s
 SCF   energy in the final basis set = -78.50867531
 Total energy in the final basis set = -78.50867531
================================================================================
|                                                                              |
|                                 A D C  M A N                                 |
|                                                                              |
 ------------------------------------------------------------------------------ 
|                                                                              |
| Components:                                                                  |
|                                                                              |
| - libvmm - 1.3-trunk                                                         |
|   Authors:                                                                   |
|   Evgeny Epifanovsky, Ilya Kaliman                                           |
|                                                                              |
| - libtensor - 2.5-trunk                                                      |
|   Authors:                                                                   |
|   Evgeny Epifanovsky, Michael Wormit, Dmitry Zuev, Sam Manzer,               |
|   Ilya Kaliman                                                               |
|                                                                              |
| - libwfa - 1.1-trunk                                                         |
|   Authors:                                                                   |
|   Felix Plasser, Stefanie Mewes (Baeppler), Benjamin Thomitzni,              |
|   Michael Wormit, Feng Chen, Anna I. Krylov, Pavel Pokhilko                  |
|                                                                              |
| - libadc - 1.1-trunk                                                         |
|   Authors:                                                                   |
|   Michael Wormit, Adrian L. Dempwolff, Philipp H. P. Harbach,                |
|   Caroline Krauter, Dirk Rehn, Matthias Schneider, Jan Wenzel                |
|                                                                              |
| - adcman - 2.6-trunk                                                         |
|   Authors:                                                                   |
|   Michael Wormit, Adrian L. Dempwolff, Philipp H. P. Harbach,                |
|   Caroline Krauter, Daniel Lefrancois, Jan-Michael Mewes, Dirk Rehn,         |
|   Matthias Schneider, Jan Wenzel, Andreas Dreuw                              |
|                                                                              |
| Authors of earlier versions of ADCMAN:                                       |
| Andreas Dreuw, Jan Hendrik Starcke, Dirk Rehn, Michael Wormit                |
|                                                                              |
================================================================================

 
 Alpha MOs, Restricted
 -- Occupied --                  
-11.065 -11.063  -0.870  -0.613  -0.487  -0.398  -0.341  -0.207
  1 A1    1 B1    2 A1    2 B1    3 A1    4 A1    3 B1    1 B2                 
 -0.023
  5 A1                                                                         
 -- Virtual --                   
  0.188   0.199   0.227   0.228   0.235   0.254   0.317   0.339
  4 B1    6 A1    2 B2    1 A2    7 A1    5 B1    8 A1    2 A2                 
  0.353   0.441   0.473   0.486   0.507   0.508   0.525   0.555
  6 B1    9 A1    7 B1   10 A1   11 A1    8 B1    3 B2   12 A1                 
  0.557   0.608   0.703   0.779   0.980   1.011   1.079   1.098
  9 B1    3 A2   10 B1   11 B1   13 A1   14 A1   15 A1   12 B1                 
  1.165   1.193   1.256   1.285   1.306   1.307   1.314   1.357
 16 A1   13 B1   17 A1    4 B2   18 A1   14 B1    5 B2    4 A2                 
  1.457   1.462   1.465   1.642   1.793   1.878   1.906   1.914
  5 A2    6 B2   15 B1   16 B1   19 A1   17 B1    7 B2   20 A1                 
  1.955   2.041   2.048   2.113   2.142   2.193   2.251   2.280
 18 B1   21 A1    6 A2    8 B2   19 B1    9 B2   22 A1   23 A1                 
  2.352   2.504   2.585   2.664   2.732   2.764   3.019   3.046
  7 A2   20 B1    8 A2   24 A1   21 B1   22 B1   25 A1   26 A1                 
  3.445   3.520
 23 B1   24 B1                                                                 
 
 Beta MOs, Restricted
 -- Occupied --                  
-11.065 -11.063  -0.870  -0.613  -0.487  -0.398  -0.341  -0.207
  1 A1    1 B1    2 A1    2 B1    3 A1    4 A1    3 B1    1 B2                 
 -0.023
  5 A1                                                                         
 -- Virtual --                   
  0.188   0.199   0.227   0.228   0.235   0.254   0.317   0.339
  4 B1    6 A1    2 B2    1 A2    7 A1    5 B1    8 A1    2 A2                 
  0.353   0.441   0.473   0.486   0.507   0.508   0.525   0.555
  6 B1    9 A1    7 B1   10 A1   11 A1    8 B1    3 B2   12 A1                 
  0.557   0.608   0.703   0.779   0.980   1.011   1.079   1.098
  9 B1    3 A2   10 B1   11 B1   13 A1   14 A1   15 A1   12 B1                 
  1.165   1.193   1.256   1.285   1.306   1.307   1.314   1.357
 16 A1   13 B1   17 A1    4 B2   18 A1   14 B1    5 B2    4 A2                 
  1.457   1.462   1.465   1.642   1.793   1.878   1.906   1.914
  5 A2    6 B2   15 B1   16 B1   19 A1   17 B1    7 B2   20 A1                 
  1.955   2.041   2.048   2.113   2.142   2.193   2.251   2.280
 18 B1   21 A1    6 A2    8 B2   19 B1    9 B2   22 A1   23 A1                 
  2.352   2.504   2.585   2.664   2.732   2.764   3.019   3.046
  7 A2   20 B1    8 A2   24 A1   21 B1   22 B1   25 A1   26 A1                 
  3.445   3.520
 23 B1   24 B1                                                                 

--------------------------------------------------------------------------------
                                   HF Summary                                   
--------------------------------------------------------------------------------
  Energy:                                                  -78.5086753096 a.u.
  Dip. moment [a.u.]:                  [   0.000000,    0.000000,   -4.350047]
  Total dipole [Debye]:                                              11.056718
  <r^2> [a.u.]:                        [  52.270261,   16.295084,   81.767655]
  Total <r^2> [a.u.]:                                               150.333001
--------------------------------------------------------------------------------

--------------------------------------------------------------------------------
                                 MP(2) Summary                                  
--------------------------------------------------------------------------------
  MP energy contribution:                                   -0.3064158072 a.u.
  Total energy:                                            -78.8150911168 a.u.
  Dip. moment [a.u.]:                  [   0.000000,   -0.000000,   -4.245024]
  Total dipole [Debye]:                                              10.789778
  <r^2> [a.u.]:                        [  52.585079,   16.251459,   81.217201]
  Total <r^2> [a.u.]:                                               150.053739

  Density matrix analysis:
  ------------------------
  NOs
    Occupation of frontier NOs:
       0.0449   1.9359
    Number of electrons: 18.000000
    Number of unpaired electrons: n_u =  0.46031, n_u,nl =  0.05041
    NO participation ratio (PR_NO): 16.132708
  
  
  Mulliken Population Analysis
  Atom      Charge (e)              h+              e-           Del q
  --------------------------------------------------------------------
   1 C       -0.407496        0.088072       -0.111845       -0.023773
   2 C       -0.407496        0.088072       -0.111845       -0.023773
   3 H        0.183503        0.016569       -0.018849       -0.002280
   4 H        0.183503        0.016569       -0.018849       -0.002280
   5 H        0.049866        0.019569       -0.011479        0.008090
   6 H        0.049866        0.019569       -0.011479        0.008090
   7 H       -0.651746        0.050043       -0.014118        0.035925
  --------------------------------------------------------------------
  Sum:       -1.000000        0.298464       -0.298464       -0.000000
  
  Multipole moment analysis of the density matrix
    Molecular charge:                      -1.000000
    Number of electrons:                   18.000000
      Center of electronic charge [Ang]: [ -0.000000,   0.000000,   0.124798]
    Total nuclear charge:                  17.000000
      Center of nuclear charge [Ang]:    [ -0.000000,   0.000000,   0.000000]
    Dipole moment [D]:                     10.789775
      Cartesian components [D]:          [  0.000000,  -0.000000, -10.789775]
    RMS size of the density [Ang]:         1.522771
      Cartesian components [Ang]:        [  0.904474,   0.502818,   1.117109]
  
  Exciton analysis of the difference density matrix
    <r_h> [Ang]:                  [  0.000000,  -0.000000,   0.263130]
    <r_e> [Ang]:                  [ -0.000000,   0.000000,   0.076925]
    |<r_e - r_h>| [Ang]:            0.186205
    Hole size [Ang]:                1.818345
      Cartesian components [Ang]: [  0.958870,   0.758100,   1.346191]
    Electron size [Ang]:            1.762863
      Cartesian components [Ang]: [  1.102181,   0.730606,   1.165803]
--------------------------------------------------------------------------------
Less singles guess vectors found than requested: 85 (found), 100 (requested).
Adjusting number of doubles guess vectors to 15.
  Starting Davidson for singlet states of irrep A2 ... 
--------------------------------------------------------------------------------
   It NVec Conv  Avg. Norm  Max. Norm  Conv. states           Remark
--------------------------------------------------------------------------------
       100    0  9.465e-02  4.592e-01  0.1365 n n n n n n n n Guess.
    1  110    0  1.324e-02  1.203e-01  0.0934 n n n n n n n n 
    2  120    0  3.142e-03  3.056e-02  0.0933 n n n n n n n n 
    3  130    0  2.983e-03  2.835e-02  0.0933 n n n n n n n n 
    4  140    7  1.191e-04  1.151e-03  0.0933 y y y y y y y n 
    5  150    9  3.250e-06  3.136e-05  0.0933 y y y y y y y y 
    6  160   10  6.641e-08  6.403e-07  0.0933 y y y y y y y y Converged.
--------------------------------------------------------------------------------
  Davidson Summary: 
 ------------------------------------------------------------
  State  0: excitation energy =   0.0933 a.u.   (converged)
  State  1: excitation energy =   0.1691 a.u.   (converged)
  State  2: excitation energy =   0.2453 a.u.   (converged)
  State  3: excitation energy =   0.3145 a.u.   (converged)
  State  4: excitation energy =   0.3515 a.u.   (converged)
  State  5: excitation energy =   0.3710 a.u.   (converged)
  State  6: excitation energy =   0.3877 a.u.   (converged)
  State  7: excitation energy =   0.4326 a.u.   (converged)
  State  8: excitation energy =   0.4443 a.u.   (converged)
  State  9: excitation energy =   0.4575 a.u.   (converged)
 ------------------------------------------------------------


--------------------------------------------------------------------------------
                   State-averaged natural transition orbitals
--------------------------------------------------------------------------------
--------------------------------------------------------------------------------

--------------------------------------------------------------------------------
                             Excited State Summary
--------------------------------------------------------------------------------
--------------------------------------------------------------------------------

  Excited state 1 (singlet, A2)                                    [converged]
  ----------------------------------------------------------------------------
  Term symbol:  1 (1) A2                                    R^2 =  3.66934e-11

  Total energy:                                            -78.7218338587 a.u.
  Excitation energy:                                               2.537659 eV

  Osc. strength:                                                      0.000000
  Trans. dip. moment [a.u.]:           [  -0.000000,    0.000000,    0.000000]
  <i|r^2|0> [a.u.]:                    [   0.000000,    0.000000,    0.000000]

  Dip. moment [a.u.]:                  [   0.000000,   -0.000000,    0.552883]
  Total dipole [Debye]:                                               1.405289
  <r^2> [a.u.]:                        [  63.208439,   25.930496,   58.662649]
  Total <r^2> [a.u.]:                                               147.801583

  V1^2 = 0.9331, V2^2 = 0.0669

  Important amplitudes:
      occ i      occ j       vir a       vir b          v   
    ---------------------------------------------------------
     5 (A1) A               1 (A2) A                 -0.6193
     5 (A1) A               2 (A2) A                 -0.2845
    ---------------------------------------------------------

  Density matrix analysis:
  ------------------------
  NOs
    Occupation of frontier NOs:
       0.9919   0.9928
    Number of electrons: 18.000000
    Number of unpaired electrons: n_u =  2.41468, n_u,nl =  2.04411
    NO participation ratio (PR_NO):  2.943377
  
  
  Mulliken Population Analysis
  Atom      Charge (e)              h+              e-           Del q
  --------------------------------------------------------------------
   1 C       -0.689634        0.260177       -0.542315       -0.282138
   2 C       -0.689634        0.260177       -0.542315       -0.282138
   3 H        0.119612        0.018287       -0.082178       -0.063891
   4 H        0.119612        0.018287       -0.082178       -0.063891
   5 H        0.055292        0.011320       -0.005893        0.005426
   6 H        0.055292        0.011320       -0.005893        0.005426
   7 H        0.029459        0.708980       -0.027774        0.681206
  --------------------------------------------------------------------
  Sum:       -1.000000        1.288547       -1.288547       -0.000000
  
  Multipole moment analysis of the density matrix
    Molecular charge:                      -1.000000
    Number of electrons:                   18.000000
      Center of electronic charge [Ang]: [ -0.000000,   0.000000,  -0.016254]
    Total nuclear charge:                  17.000000
      Center of nuclear charge [Ang]:    [ -0.000000,   0.000000,   0.000000]
    Dipole moment [D]:                     1.405289
      Cartesian components [D]:          [  0.000000,  -0.000000,   1.405289]
    RMS size of the density [Ang]:         1.516280
      Cartesian components [Ang]:        [  0.991636,   0.635141,   0.955175]
  
  Exciton analysis of the difference density matrix
    <r_h> [Ang]:                  [ -0.000000,  -0.000000,   1.995267]
    <r_e> [Ang]:                  [ -0.000000,   0.000000,   0.024874]
    |<r_e - r_h>| [Ang]:            1.970393
    Hole size [Ang]:                2.028911
      Cartesian components [Ang]: [  0.965779,   0.884413,   1.549699]
    Electron size [Ang]:            2.758172
      Cartesian components [Ang]: [  1.800392,   1.698719,   1.216739]

  Transition density matrix analysis:
  -----------------------------------
  
  CT numbers (Mulliken)
    omega =     0.9139
    <Phe> =     0.0002
  
  Exciton analysis of the transition density matrix
    Trans. dipole moment [D]:             0.000000
      Cartesian components [D]:         [ -0.000000,   0.000000,   0.000000]
    <r_h> [Ang]:                        [ -0.000000,  -0.000000,   2.636817]
    <r_e> [Ang]:                        [ -0.000000,   0.000000,  -0.175440]
    |<r_e - r_h>| [Ang]:                  2.812257
    Hole size [Ang]:                      1.468515
      Cartesian components [Ang]:       [  0.780301,   0.762605,   0.982904]
    Electron size [Ang]:                  2.881553
      Cartesian components [Ang]:       [  1.928697,   1.851494,   1.074918]
    RMS electron-hole separation [Ang]:   4.283264
      Cartesian components [Ang]:       [  2.075868,   2.001814,   3.166996]
    Covariance(r_h, r_e) [Ang^2]:         0.011161
    Correlation coefficient:              0.002638
    Center-of-mass size [Ang]:            1.618812
      Cartesian components [Ang]:       [  1.042624,   1.001490,   0.728359]

  Decomposition into state-averaged NTOs
    H- 1 -> L+ 0: -0.6323 ( 80.0%)
    H- 1 -> L+ 1: -0.2380 ( 11.3%)
                   omega =  91.4%
  ----------------------------------------------------------------------------


  Excited state 2 (singlet, A2)                                    [converged]
  ----------------------------------------------------------------------------
  Term symbol:  2 (1) A2                                    R^2 =  9.04272e-11

  Total energy:                                            -78.6459820419 a.u.
  Excitation energy:                                               4.601692 eV

  Osc. strength:                                                      0.000000
  Trans. dip. moment [a.u.]:           [   0.000000,    0.000000,    0.000000]
  <i|r^2|0> [a.u.]:                    [   0.000000,    0.000000,   -0.000000]

  Dip. moment [a.u.]:                  [   0.000000,    0.000000,    0.566222]
  Total dipole [Debye]:                                               1.439192
  <r^2> [a.u.]:                        [  67.307133,   30.132740,   60.033626]
  Total <r^2> [a.u.]:                                               157.473499

  V1^2 = 0.9283, V2^2 = 0.0717

  Important amplitudes:
      occ i      occ j       vir a       vir b          v   
    ---------------------------------------------------------
     5 (A1) A               2 (A2) A                  0.6057
     5 (A1) A               1 (A2) A                 -0.2946
    ---------------------------------------------------------

  Density matrix analysis:
  ------------------------
  NOs
    Occupation of frontier NOs:
       0.9880   0.9911
    Number of electrons: 18.000000
    Number of unpaired electrons: n_u =  2.42734, n_u,nl =  2.04815
    NO participation ratio (PR_NO):  2.989106
  
  
  Mulliken Population Analysis
  Atom      Charge (e)              h+              e-           Del q
  --------------------------------------------------------------------
   1 C       -0.670577        0.263660       -0.526741       -0.263081
   2 C       -0.670577        0.263660       -0.526741       -0.263081
   3 H        0.109799        0.015789       -0.089493       -0.073704
   4 H        0.109799        0.015789       -0.089493       -0.073704
   5 H        0.044793        0.008686       -0.013758       -0.005073
   6 H        0.044793        0.008686       -0.013758       -0.005073
   7 H        0.031970        0.711401       -0.027685        0.683716
  --------------------------------------------------------------------
  Sum:       -1.000000        1.287670       -1.287670       -0.000000
  
  Multipole moment analysis of the density matrix
    Molecular charge:                      -1.000000
    Number of electrons:                   18.000000
      Center of electronic charge [Ang]: [ -0.000000,  -0.000000,  -0.016646]
    Total nuclear charge:                  17.000000
      Center of nuclear charge [Ang]:    [ -0.000000,   0.000000,   0.000000]
    Dipole moment [D]:                     1.439192
      Cartesian components [D]:          [  0.000000,   0.000000,   1.439192]
    RMS size of the density [Ang]:         1.565107
      Cartesian components [Ang]:        [  1.023282,   0.684675,   0.966268]
  
  Exciton analysis of the difference density matrix
    <r_h> [Ang]:                  [ -0.000000,  -0.000000,   2.004255]
    <r_e> [Ang]:                  [ -0.000000,  -0.000000,   0.027038]
    |<r_e - r_h>| [Ang]:            1.977217
    Hole size [Ang]:                2.010308
      Cartesian components [Ang]: [  0.956157,   0.867324,   1.541055]
    Electron size [Ang]:            3.109857
      Cartesian components [Ang]: [  2.028751,   1.941907,   1.335807]

  Transition density matrix analysis:
  -----------------------------------
  
  CT numbers (Mulliken)
    omega =     0.9100
    <Phe> =    -0.0002
  
  Exciton analysis of the transition density matrix
    Trans. dipole moment [D]:             0.000000
      Cartesian components [D]:         [  0.000000,   0.000000,   0.000000]
    <r_h> [Ang]:                        [ -0.000000,  -0.000000,   2.637565]
    <r_e> [Ang]:                        [ -0.000000,  -0.000000,  -0.175577]
    |<r_e - r_h>| [Ang]:                  2.813142
    Hole size [Ang]:                      1.468037
      Cartesian components [Ang]:       [  0.780171,   0.762719,   0.982204]
    Electron size [Ang]:                  3.336219
      Cartesian components [Ang]:       [  2.212075,   2.160805,   1.252200]
    RMS electron-hole separation [Ang]:   4.602601
      Cartesian components [Ang]:       [  2.343317,   2.290634,   3.231997]
    Covariance(r_h, r_e) [Ang^2]:         0.007661
    Correlation coefficient:              0.001564
    Center-of-mass size [Ang]:            1.823514
      Cartesian components [Ang]:       [  1.173962,   1.146150,   0.795837]

  Decomposition into state-averaged NTOs
    H- 1 -> L+ 1: -0.6335 ( 80.3%)
    H- 1 -> L+ 0:  0.2211 (  9.8%)
                   omega =  91.0%
  ----------------------------------------------------------------------------


  Excited state 3 (singlet, A2)                                    [converged]
  ----------------------------------------------------------------------------
  Term symbol:  3 (1) A2                                    R^2 =  1.38344e-10

  Total energy:                                            -78.5698386593 a.u.
  Excitation energy:                                               6.673659 eV

  Osc. strength:                                                      0.000000
  Trans. dip. moment [a.u.]:           [  -0.000000,    0.000000,    0.000000]
  <i|r^2|0> [a.u.]:                    [  -0.000000,   -0.000000,   -0.000000]

  Dip. moment [a.u.]:                  [  -0.000000,   -0.000000,   -2.642136]
  Total dipole [Debye]:                                               6.715640
  <r^2> [a.u.]:                        [  82.903807,   20.539833,   88.440662]
  Total <r^2> [a.u.]:                                               191.884301

  V1^2 = 0.9429, V2^2 = 0.0571

  Important amplitudes:
      occ i      occ j       vir a       vir b          v   
    ---------------------------------------------------------
     1 (B2) A               4 (B1) A                 -0.6740
     1 (B2) A               6 (B1) A                 -0.0925
    ---------------------------------------------------------

  Density matrix analysis:
  ------------------------
  NOs
    Occupation of frontier NOs:
       0.9820   0.9929
    Number of electrons: 18.000000
    Number of unpaired electrons: n_u =  2.34451, n_u,nl =  2.02864
    NO participation ratio (PR_NO):  2.807674
  
  
  Mulliken Population Analysis
  Atom      Charge (e)              h+              e-           Del q
  --------------------------------------------------------------------
   1 C       -0.522157        0.544797       -0.659459       -0.114662
   2 C       -0.522157        0.544797       -0.659459       -0.114662
   3 H        0.239371        0.068677       -0.012810        0.055868
   4 H        0.239371        0.068677       -0.012810        0.055868
   5 H        0.100520        0.114943       -0.064289        0.050654
   6 H        0.100520        0.114943       -0.064289        0.050654
   7 H       -0.635467        0.037433       -0.021154        0.016279
  --------------------------------------------------------------------
  Sum:       -1.000000        1.494269       -1.494269       -0.000000
  
  Multipole moment analysis of the density matrix
    Molecular charge:                      -1.000000
    Number of electrons:                   18.000000
      Center of electronic charge [Ang]: [  0.000000,   0.000000,   0.077675]
    Total nuclear charge:                  17.000000
      Center of nuclear charge [Ang]:    [ -0.000000,   0.000000,   0.000000]
    Dipole moment [D]:                     6.715638
      Cartesian components [D]:          [ -0.000000,  -0.000000,  -6.715638]
    RMS size of the density [Ang]:         1.726018
      Cartesian components [Ang]:        [  1.135670,   0.565280,   1.170406]
  
  Exciton analysis of the difference density matrix
    <r_h> [Ang]:                  [ -0.000000,  -0.000000,  -0.132200]
    <r_e> [Ang]:                  [  0.000000,   0.000000,  -0.699844]
    |<r_e - r_h>| [Ang]:            0.567644
    Hole size [Ang]:                1.742656
      Cartesian components [Ang]: [  1.076737,   0.897492,   1.035371]
    Electron size [Ang]:            3.225471
      Cartesian components [Ang]: [  2.615558,   1.268519,   1.397633]

  Transition density matrix analysis:
  -----------------------------------
  
  CT numbers (Mulliken)
    omega =     0.9121
    <Phe> =    -0.0027
  
  Exciton analysis of the transition density matrix
    Trans. dipole moment [D]:             0.000000
      Cartesian components [D]:         [ -0.000000,   0.000000,   0.000000]
    <r_h> [Ang]:                        [  0.000000,  -0.000000,  -0.184019]
    <r_e> [Ang]:                        [  0.000000,   0.000000,  -1.041294]
    |<r_e - r_h>| [Ang]:                  0.857274
    Hole size [Ang]:                      1.280201
      Cartesian components [Ang]:       [  0.765257,   0.883794,   0.521733]
    Electron size [Ang]:                  3.738520
      Cartesian components [Ang]:       [  3.115478,   1.487256,   1.434711]
    RMS electron-hole separation [Ang]:   4.035180
      Cartesian components [Ang]:       [  3.201021,   1.724066,   1.750353]
    Covariance(r_h, r_e) [Ang^2]:         0.033843
    Correlation coefficient:              0.007071
    Center-of-mass size [Ang]:            1.980097
      Cartesian components [Ang]:       [  1.607568,   0.867992,   0.763607]

  Decomposition into state-averaged NTOs
    H- 0 -> L+ 4: -0.5962 ( 71.1%)
    H- 0 -> L+ 3: -0.2896 ( 16.8%)
    H- 0 -> L+ 5:  0.1282 (  3.3%)
                   omega =  91.2%
  ----------------------------------------------------------------------------


  Excited state 4 (singlet, A2)                                    [converged]
  ----------------------------------------------------------------------------
  Term symbol:  4 (1) A2                                    R^2 =  2.63364e-10

  Total energy:                                            -78.5005447065 a.u.
  Excitation energy:                                               8.559243 eV

  Osc. strength:                                                      0.000000
  Trans. dip. moment [a.u.]:           [   0.000000,    0.000000,    0.000000]
  <i|r^2|0> [a.u.]:                    [  -0.000000,   -0.000000,   -0.000000]

  Dip. moment [a.u.]:                  [   0.000000,   -0.000000,   -4.841732]
  Total dipole [Debye]:                                              12.306457
  <r^2> [a.u.]:                        [  75.249114,   19.841899,   97.250873]
  Total <r^2> [a.u.]:                                               192.341886

  V1^2 = 0.9432, V2^2 = 0.0568

  Important amplitudes:
      occ i      occ j       vir a       vir b          v   
    ---------------------------------------------------------
     1 (B2) A               5 (B1) A                 -0.6785
     1 (B2) A               9 (B1) A                 -0.0756
    ---------------------------------------------------------

  Density matrix analysis:
  ------------------------
  NOs
    Occupation of frontier NOs:
       0.9829   0.9952
    Number of electrons: 18.000000
    Number of unpaired electrons: n_u =  2.34177, n_u,nl =  2.02788
    NO participation ratio (PR_NO):  2.792457
  
  
  Mulliken Population Analysis
  Atom      Charge (e)              h+              e-           Del q
  --------------------------------------------------------------------
   1 C       -0.516447        0.536172       -0.645123       -0.108951
   2 C       -0.516447        0.536172       -0.645123       -0.108951
   3 H        0.215103        0.082398       -0.050799        0.031600
   4 H        0.215103        0.082398       -0.050799        0.031600
   5 H        0.105418        0.103107       -0.047555        0.055552
   6 H        0.105418        0.103107       -0.047555        0.055552
   7 H       -0.608149        0.053117       -0.009519        0.043598
  --------------------------------------------------------------------
  Sum:       -1.000000        1.496472       -1.496472       -0.000000
  
  Multipole moment analysis of the density matrix
    Molecular charge:                      -1.000000
    Number of electrons:                   18.000000
      Center of electronic charge [Ang]: [ -0.000000,   0.000000,   0.142341]
    Total nuclear charge:                  17.000000
      Center of nuclear charge [Ang]:    [ -0.000000,   0.000000,   0.000000]
    Dipole moment [D]:                     12.306453
      Cartesian components [D]:          [  0.000000,  -0.000000, -12.306453]
    RMS size of the density [Ang]:         1.723957
      Cartesian components [Ang]:        [  1.081971,   0.555593,   1.221755]
  
  Exciton analysis of the difference density matrix
    <r_h> [Ang]:                  [ -0.000000,  -0.000000,  -0.076515]
    <r_e> [Ang]:                  [ -0.000000,   0.000000,   0.134491]
    |<r_e - r_h>| [Ang]:            0.211006
    Hole size [Ang]:                1.729743
      Cartesian components [Ang]: [  1.058876,   0.884991,   1.042872]
    Electron size [Ang]:            3.300451
      Cartesian components [Ang]: [  2.315652,   1.206264,   2.018827]

  Transition density matrix analysis:
  -----------------------------------
  
  CT numbers (Mulliken)
    omega =     0.9121
    <Phe> =    -0.0007
  
  Exciton analysis of the transition density matrix
    Trans. dipole moment [D]:             0.000000
      Cartesian components [D]:         [  0.000000,   0.000000,   0.000000]
    <r_h> [Ang]:                        [  0.000000,  -0.000000,  -0.183632]
    <r_e> [Ang]:                        [ -0.000000,   0.000000,   0.199618]
    |<r_e - r_h>| [Ang]:                  0.383250
    Hole size [Ang]:                      1.279966
      Cartesian components [Ang]:       [  0.764973,   0.884000,   0.521221]
    Electron size [Ang]:                  3.890506
      Cartesian components [Ang]:       [  2.741012,   1.408184,   2.374850]
    RMS electron-hole separation [Ang]:   4.109102
      Cartesian components [Ang]:       [  2.839864,   1.662436,   2.460934]
    Covariance(r_h, r_e) [Ang^2]:         0.018256
    Correlation coefficient:              0.003666
    Center-of-mass size [Ang]:            2.050053
      Cartesian components [Ang]:       [  1.425818,   0.831442,   1.215920]

  Decomposition into state-averaged NTOs
    H- 0 -> L+ 5:  0.5814 ( 67.6%)
    H- 0 -> L+ 3:  0.3409 ( 23.2%)
                   omega =  91.2%
  ----------------------------------------------------------------------------


  Excited state 5 (singlet, A2)                                    [converged]
  ----------------------------------------------------------------------------
  Term symbol:  5 (1) A2                                    R^2 =  3.20018e-09

  Total energy:                                            -78.4635701876 a.u.
  Excitation energy:                                               9.565371 eV

  Osc. strength:                                                      0.000000
  Trans. dip. moment [a.u.]:           [  -0.000000,    0.000000,   -0.000000]
  <i|r^2|0> [a.u.]:                    [   0.000000,   -0.000000,   -0.000000]

  Dip. moment [a.u.]:                  [   0.000000,   -0.000000,   -4.179892]
  Total dipole [Debye]:                                              10.624227
  <r^2> [a.u.]:                        [  53.792745,   19.960382,   80.909062]
  Total <r^2> [a.u.]:                                               154.662189

  V1^2 = 0.9533, V2^2 = 0.0467

  Important amplitudes:
      occ i      occ j       vir a       vir b          v   
    ---------------------------------------------------------
     4 (A1) A               2 (A2) A                 -0.4974
     4 (A1) A               1 (A2) A                 -0.4528
    ---------------------------------------------------------

  Density matrix analysis:
  ------------------------
  NOs
    Occupation of frontier NOs:
       0.9901   1.0051
    Number of electrons: 18.000000
    Number of unpaired electrons: n_u =  2.40231, n_u,nl =  2.03935
    NO participation ratio (PR_NO):  2.913967
  
  
  Mulliken Population Analysis
  Atom      Charge (e)              h+              e-           Del q
  --------------------------------------------------------------------
   1 C       -0.538473        0.441710       -0.572687       -0.130977
   2 C       -0.538473        0.441710       -0.572687       -0.130977
   3 H        0.245095        0.070795       -0.009203        0.061592
   4 H        0.245095        0.070795       -0.009203        0.061592
   5 H        0.117650        0.074514       -0.006729        0.067785
   6 H        0.117650        0.074514       -0.006729        0.067785
   7 H       -0.648546        0.008573       -0.005372        0.003200
  --------------------------------------------------------------------
  Sum:       -1.000000        1.182611       -1.182611        0.000000
  
  Multipole moment analysis of the density matrix
    Molecular charge:                      -1.000000
    Number of electrons:                   18.000000
      Center of electronic charge [Ang]: [ -0.000000,   0.000000,   0.122884]
    Total nuclear charge:                  17.000000
      Center of nuclear charge [Ang]:    [ -0.000000,   0.000000,   0.000000]
    Dipole moment [D]:                     10.624223
      Cartesian components [D]:          [  0.000000,  -0.000000, -10.624223]
    RMS size of the density [Ang]:         1.546286
      Cartesian components [Ang]:        [  0.914801,   0.557249,   1.115174]
  
  Exciton analysis of the difference density matrix
    <r_h> [Ang]:                  [ -0.000000,  -0.000000,  -0.139750]
    <r_e> [Ang]:                  [ -0.000000,   0.000000,  -0.168895]
    |<r_e - r_h>| [Ang]:            0.029145
    Hole size [Ang]:                1.471749
      Cartesian components [Ang]: [  1.122504,   0.564089,   0.766703]
    Electron size [Ang]:            1.802298
      Cartesian components [Ang]: [  1.243373,   1.093813,   0.711248]

  Transition density matrix analysis:
  -----------------------------------
  
  CT numbers (Mulliken)
    omega =     0.9214
    <Phe> =    -0.0153
  
  Exciton analysis of the transition density matrix
    Trans. dipole moment [D]:             0.000000
      Cartesian components [D]:         [ -0.000000,   0.000000,  -0.000000]
    <r_h> [Ang]:                        [  0.000000,  -0.000000,  -0.143967]
    <r_e> [Ang]:                        [ -0.000000,   0.000000,  -0.184548]
    |<r_e - r_h>| [Ang]:                  0.040580
    Hole size [Ang]:                      1.299780
      Cartesian components [Ang]:       [  1.074386,   0.412292,   0.604266]
    Electron size [Ang]:                  1.874035
      Cartesian components [Ang]:       [  1.303190,   1.157298,   0.688743]
    RMS electron-hole separation [Ang]:   2.264429
      Cartesian components [Ang]:       [  1.666343,   1.228689,   0.917204]
    Covariance(r_h, r_e) [Ang^2]:         0.037723
    Correlation coefficient:              0.015487
    Center-of-mass size [Ang]:            1.148573
      Cartesian components [Ang]:       [  0.855646,   0.614201,   0.458092]

  Decomposition into state-averaged NTOs
    H- 2 -> L+ 0: -0.6743 ( 90.9%)
                   omega =  92.1%
  ----------------------------------------------------------------------------


  Excited state 6 (singlet, A2)                                    [converged]
  ----------------------------------------------------------------------------
  Term symbol:  6 (1) A2                                    R^2 =  2.49755e-09

  Total energy:                                            -78.4440902324 a.u.
  Excitation energy:                                              10.095447 eV

  Osc. strength:                                                      0.000000
  Trans. dip. moment [a.u.]:           [   0.000000,    0.000000,   -0.000000]
  <i|r^2|0> [a.u.]:                    [   0.000000,    0.000000,    0.000000]

  Dip. moment [a.u.]:                  [  -0.000000,    0.000000,   -4.101979]
  Total dipole [Debye]:                                              10.426193
  <r^2> [a.u.]:                        [  56.401886,   40.788291,   84.662850]
  Total <r^2> [a.u.]:                                               181.853027

  V1^2 = 0.9354, V2^2 = 0.0646

  Important amplitudes:
      occ i      occ j       vir a       vir b          v   
    ---------------------------------------------------------
     3 (B1) A               2 (B2) A                  0.6751
     3 (B1) A               3 (B2) A                  0.1019
    ---------------------------------------------------------

  Density matrix analysis:
  ------------------------
  NOs
    Occupation of frontier NOs:
       0.9937   1.0209
    Number of electrons: 18.000000
    Number of unpaired electrons: n_u =  2.48522, n_u,nl =  2.07679
    NO participation ratio (PR_NO):  3.140404
  
  
  Mulliken Population Analysis
  Atom      Charge (e)              h+              e-           Del q
  --------------------------------------------------------------------
   1 C       -0.711781        0.321007       -0.625292       -0.304285
   2 C       -0.711781        0.321007       -0.625292       -0.304285
   3 H        0.316266        0.154115       -0.021353        0.132762
   4 H        0.316266        0.154115       -0.021353        0.132762
   5 H        0.211912        0.172379       -0.010332        0.162047
   6 H        0.211912        0.172379       -0.010332        0.162047
   7 H       -0.632794        0.036669       -0.017717        0.018952
  --------------------------------------------------------------------
  Sum:       -1.000000        1.331672       -1.331672       -0.000000
  
  Multipole moment analysis of the density matrix
    Molecular charge:                      -1.000000
    Number of electrons:                   18.000000
      Center of electronic charge [Ang]: [  0.000000,  -0.000000,   0.120593]
    Total nuclear charge:                  17.000000
      Center of nuclear charge [Ang]:    [ -0.000000,   0.000000,   0.000000]
    Dipole moment [D]:                     10.426190
      Cartesian components [D]:          [ -0.000000,   0.000000, -10.426190]
    RMS size of the density [Ang]:         1.677668
      Cartesian components [Ang]:        [  0.936724,   0.796586,   1.141302]
  
  Exciton analysis of the difference density matrix
    <r_h> [Ang]:                  [ -0.000000,  -0.000000,  -0.058503]
    <r_e> [Ang]:                  [  0.000000,  -0.000000,  -0.115346]
    |<r_e - r_h>| [Ang]:            0.056843
    Hole size [Ang]:                1.813133
      Cartesian components [Ang]: [  1.200945,   0.659722,   1.187413]
    Electron size [Ang]:            3.156649
      Cartesian components [Ang]: [  1.498292,   2.365359,   1.457611]

  Transition density matrix analysis:
  -----------------------------------
  
  CT numbers (Mulliken)
    omega =     0.9192
    <Phe> =    -0.0007
  
  Exciton analysis of the transition density matrix
    Trans. dipole moment [D]:             0.000000
      Cartesian components [D]:         [  0.000000,   0.000000,  -0.000000]
    <r_h> [Ang]:                        [ -0.000000,  -0.000000,  -0.124817]
    <r_e> [Ang]:                        [  0.000000,  -0.000000,  -0.176473]
    |<r_e - r_h>| [Ang]:                  0.051656
    Hole size [Ang]:                      1.522583
      Cartesian components [Ang]:       [  1.126419,   0.417759,   0.935369]
    Electron size [Ang]:                  3.510574
      Cartesian components [Ang]:       [  1.615256,   2.699275,   1.558521]
    RMS electron-hole separation [Ang]:   3.791760
      Cartesian components [Ang]:       [  1.901148,   2.730783,   1.818216]
    Covariance(r_h, r_e) [Ang^2]:         0.133804
    Correlation coefficient:              0.025033
    Center-of-mass size [Ang]:            1.930673
      Cartesian components [Ang]:       [  1.017519,   1.366020,   0.908923]

  Decomposition into state-averaged NTOs
    H- 3 -> L+ 2: -0.6770 ( 91.7%)
                   omega =  91.9%
  ----------------------------------------------------------------------------


  Excited state 7 (singlet, A2)                                    [converged]
  ----------------------------------------------------------------------------
  Term symbol:  7 (1) A2                                    R^2 =  4.84763e-09

  Total energy:                                            -78.4274240324 a.u.
  Excitation energy:                                              10.548958 eV

  Osc. strength:                                                      0.000000
  Trans. dip. moment [a.u.]:           [  -0.000000,    0.000000,    0.000000]
  <i|r^2|0> [a.u.]:                    [   0.000000,    0.000000,    0.000000]

  Dip. moment [a.u.]:                  [  -0.000000,    0.000000,   -4.216794]
  Total dipole [Debye]:                                              10.718022
  <r^2> [a.u.]:                        [  74.771015,   22.217503,   87.994965]
  Total <r^2> [a.u.]:                                               184.983483

  V1^2 = 0.9449, V2^2 = 0.0551

  Important amplitudes:
      occ i      occ j       vir a       vir b          v   
    ---------------------------------------------------------
     1 (B2) A               6 (B1) A                 -0.6622
     1 (B2) A               8 (B1) A                 -0.1256
    ---------------------------------------------------------

  Density matrix analysis:
  ------------------------
  NOs
    Occupation of frontier NOs:
       0.9823   0.9879
    Number of electrons: 18.000000
    Number of unpaired electrons: n_u =  2.34590, n_u,nl =  2.02926
    NO participation ratio (PR_NO):  2.824037
  
  
  Mulliken Population Analysis
  Atom      Charge (e)              h+              e-           Del q
  --------------------------------------------------------------------
   1 C       -0.572038        0.535250       -0.699792       -0.164542
   2 C       -0.572038        0.535250       -0.699792       -0.164542
   3 H        0.188226        0.068599       -0.063876        0.004723
   4 H        0.188226        0.068599       -0.063876        0.004723
   5 H        0.192060        0.098859        0.043334        0.142194
   6 H        0.192060        0.098859        0.043334        0.142194
   7 H       -0.616496        0.043424       -0.008173        0.035250
  --------------------------------------------------------------------
  Sum:       -1.000000        1.448840       -1.448840       -0.000000
  
  Multipole moment analysis of the density matrix
    Molecular charge:                      -1.000000
    Number of electrons:                   18.000000
      Center of electronic charge [Ang]: [  0.000000,  -0.000000,   0.123968]
    Total nuclear charge:                  17.000000
      Center of nuclear charge [Ang]:    [ -0.000000,   0.000000,   0.000000]
    Dipole moment [D]:                     10.718019
      Cartesian components [D]:          [ -0.000000,   0.000000, -10.718019]
    RMS size of the density [Ang]:         1.691876
      Cartesian components [Ang]:        [  1.078528,   0.587912,   1.163435]
  
  Exciton analysis of the difference density matrix
    <r_h> [Ang]:                  [ -0.000000,  -0.000000,  -0.105284]
    <r_e> [Ang]:                  [  0.000000,  -0.000000,  -0.115595]
    |<r_e - r_h>| [Ang]:            0.010311
    Hole size [Ang]:                1.700847
      Cartesian components [Ang]: [  1.057158,   0.885294,   0.995767]
    Electron size [Ang]:            3.105116
      Cartesian components [Ang]: [  2.325001,   1.391707,   1.516333]

  Transition density matrix analysis:
  -----------------------------------
  
  CT numbers (Mulliken)
    omega =     0.9135
    <Phe> =    -0.0028
  
  Exciton analysis of the transition density matrix
    Trans. dipole moment [D]:             0.000000
      Cartesian components [D]:         [ -0.000000,   0.000000,   0.000000]
    <r_h> [Ang]:                        [ -0.000000,  -0.000000,  -0.183481]
    <r_e> [Ang]:                        [  0.000000,  -0.000000,  -0.152088]
    |<r_e - r_h>| [Ang]:                  0.031393
    Hole size [Ang]:                      1.278881
      Cartesian components [Ang]:       [  0.764673,   0.882447,   0.521630]
    Electron size [Ang]:                  3.597140
      Cartesian components [Ang]:       [  2.710195,   1.625164,   1.718458]
    RMS electron-hole separation [Ang]:   3.809276
      Cartesian components [Ang]:       [  2.810584,   1.840693,   1.795285]
    Covariance(r_h, r_e) [Ang^2]:         0.032675
    Correlation coefficient:              0.007103
    Center-of-mass size [Ang]:            1.913132
      Cartesian components [Ang]:       [  1.410707,   0.928923,   0.898377]

  Decomposition into state-averaged NTOs
    H- 0 -> L+ 3: -0.5066 ( 51.3%)
    H- 0 -> L+ 5:  0.3177 ( 20.2%)
    H- 0 -> L+ 4:  0.3130 ( 19.6%)
                   omega =  91.3%
  ----------------------------------------------------------------------------


  Excited state 8 (singlet, A2)                                    [converged]
  ----------------------------------------------------------------------------
  Term symbol:  8 (1) A2                                    R^2 =  8.47726e-09

  Total energy:                                            -78.3824753992 a.u.
  Excitation energy:                                              11.772072 eV

  Osc. strength:                                                      0.000000
  Trans. dip. moment [a.u.]:           [  -0.000000,    0.000000,    0.000000]
  <i|r^2|0> [a.u.]:                    [   0.000000,    0.000000,   -0.000000]

  Dip. moment [a.u.]:                  [   0.000000,   -0.000000,    0.512170]
  Total dipole [Debye]:                                               1.301806
  <r^2> [a.u.]:                        [  63.023928,   26.489351,   58.995846]
  Total <r^2> [a.u.]:                                               148.509126

  V1^2 = 0.9191, V2^2 = 0.0809

  Important amplitudes:
      occ i      occ j       vir a       vir b          v   
    ---------------------------------------------------------
     5 (A1) A               3 (A2) A                 -0.6599
     5 (A1) A               2 (A2) A                 -0.1219
    ---------------------------------------------------------

  Density matrix analysis:
  ------------------------
  NOs
    Occupation of frontier NOs:
       0.9554   1.0002
    Number of electrons: 18.000000
    Number of unpaired electrons: n_u =  2.49473, n_u,nl =  2.07331
    NO participation ratio (PR_NO):  3.219947
  
  
  Mulliken Population Analysis
  Atom      Charge (e)              h+              e-           Del q
  --------------------------------------------------------------------
   1 C       -0.682407        0.251989       -0.526901       -0.274912
   2 C       -0.682407        0.251989       -0.526901       -0.274912
   3 H        0.117818        0.011631       -0.077316       -0.065685
   4 H        0.117818        0.011631       -0.077316       -0.065685
   5 H        0.051628        0.009080       -0.007318        0.001762
   6 H        0.051628        0.009080       -0.007318        0.001762
   7 H        0.025923        0.703854       -0.026185        0.677669
  --------------------------------------------------------------------
  Sum:       -1.000000        1.249256       -1.249256       -0.000000
  
  Multipole moment analysis of the density matrix
    Molecular charge:                      -1.000000
    Number of electrons:                   18.000000
      Center of electronic charge [Ang]: [ -0.000000,   0.000000,  -0.015057]
    Total nuclear charge:                  17.000000
      Center of nuclear charge [Ang]:    [ -0.000000,   0.000000,   0.000000]
    Dipole moment [D]:                     1.301806
      Cartesian components [D]:          [  0.000000,  -0.000000,   1.301806]
    RMS size of the density [Ang]:         1.519918
      Cartesian components [Ang]:        [  0.990188,   0.641949,   0.957904]
  
  Exciton analysis of the difference density matrix
    <r_h> [Ang]:                  [ -0.000000,  -0.000000,   2.032288]
    <r_e> [Ang]:                  [ -0.000000,   0.000000,   0.017169]
    |<r_e - r_h>| [Ang]:            2.015119
    Hole size [Ang]:                2.003195
      Cartesian components [Ang]: [  0.952187,   0.869112,   1.533223]
    Electron size [Ang]:            2.792213
      Cartesian components [Ang]: [  1.801831,   1.746495,   1.224588]

  Transition density matrix analysis:
  -----------------------------------
  
  CT numbers (Mulliken)
    omega =     0.9062
    <Phe> =    -0.0004
  
  Exciton analysis of the transition density matrix
    Trans. dipole moment [D]:             0.000000
      Cartesian components [D]:         [ -0.000000,   0.000000,   0.000000]
    <r_h> [Ang]:                        [ -0.000000,  -0.000000,   2.594585]
    <r_e> [Ang]:                        [ -0.000000,   0.000000,  -0.176362]
    |<r_e - r_h>| [Ang]:                  2.770947
    Hole size [Ang]:                      1.507438
      Cartesian components [Ang]:       [  0.782718,   0.758408,   1.041413]
    Electron size [Ang]:                  2.916141
      Cartesian components [Ang]:       [  1.920048,   1.900211,   1.098404]
    RMS electron-hole separation [Ang]:   4.295105
      Cartesian components [Ang]:       [  2.071834,   2.046211,   3.157285]
    Covariance(r_h, r_e) [Ang^2]:         0.003234
    Correlation coefficient:              0.000736
    Center-of-mass size [Ang]:            1.641852
      Cartesian components [Ang]:       [  1.037541,   1.022862,   0.756928]

  Decomposition into state-averaged NTOs
    H- 1 -> L+ 6:  0.6663 ( 88.8%)
    H- 4 -> L+ 0: -0.0721 (  1.0%)
                   omega =  90.6%
  ----------------------------------------------------------------------------


  Excited state 9 (singlet, A2)                                    [converged]
  ----------------------------------------------------------------------------
  Term symbol:  9 (1) A2                                    R^2 =  1.75680e-07

  Total energy:                                            -78.3707874068 a.u.
  Excitation energy:                                              12.090119 eV

  Osc. strength:                                                      0.000000
  Trans. dip. moment [a.u.]:           [   0.000000,    0.000000,    0.000000]
  <i|r^2|0> [a.u.]:                    [   0.000000,    0.000000,    0.000000]

  Dip. moment [a.u.]:                  [   0.000000,   -0.000000,   -4.174714]
  Total dipole [Debye]:                                              10.611068
  <r^2> [a.u.]:                        [  55.847751,   20.828982,   79.553417]
  Total <r^2> [a.u.]:                                               156.230150

  V1^2 = 0.9343, V2^2 = 0.0657

  Important amplitudes:
      occ i      occ j       vir a       vir b          v   
    ---------------------------------------------------------
     3 (A1) A               2 (A2) A                 -0.4762
     3 (A1) A               1 (A2) A                 -0.4653
    ---------------------------------------------------------

  Density matrix analysis:
  ------------------------
  NOs
    Occupation of frontier NOs:
       0.9876   1.0475
    Number of electrons: 18.000000
    Number of unpaired electrons: n_u =  2.46843, n_u,nl =  2.06634
    NO participation ratio (PR_NO):  3.204695
  
  
  Mulliken Population Analysis
  Atom      Charge (e)              h+              e-           Del q
  --------------------------------------------------------------------
   1 C       -0.595401        0.336814       -0.524719       -0.187905
   2 C       -0.595401        0.336814       -0.524719       -0.187905
   3 H        0.258095        0.083830       -0.009239        0.074591
   4 H        0.258095        0.083830       -0.009239        0.074591
   5 H        0.157128        0.118068       -0.010806        0.107262
   6 H        0.157128        0.118068       -0.010806        0.107262
   7 H       -0.639642        0.018220       -0.006116        0.012104
  --------------------------------------------------------------------
  Sum:       -1.000000        1.095644       -1.095644        0.000000
  
  Multipole moment analysis of the density matrix
    Molecular charge:                      -1.000000
    Number of electrons:                   18.000000
      Center of electronic charge [Ang]: [ -0.000000,   0.000000,   0.122731]
    Total nuclear charge:                  17.000000
      Center of nuclear charge [Ang]:    [ -0.000000,   0.000000,   0.000000]
    Dipole moment [D]:                     10.611065
      Cartesian components [D]:          [  0.000000,  -0.000000, -10.611065]
    RMS size of the density [Ang]:         1.554166
      Cartesian components [Ang]:        [  0.932111,   0.569245,   1.105695]
  
  Exciton analysis of the difference density matrix
    <r_h> [Ang]:                  [ -0.000000,  -0.000000,  -0.134146]
    <r_e> [Ang]:                  [ -0.000000,   0.000000,  -0.168105]
    |<r_e - r_h>| [Ang]:            0.033958
    Hole size [Ang]:                1.542007
      Cartesian components [Ang]: [  1.003860,   0.557861,   1.029000]
    Electron size [Ang]:            1.986482
      Cartesian components [Ang]: [  1.357063,   1.217024,   0.789520]

  Transition density matrix analysis:
  -----------------------------------
  
  CT numbers (Mulliken)
    omega =     0.9059
    <Phe> =    -0.0114
  
  Exciton analysis of the transition density matrix
    Trans. dipole moment [D]:             0.000000
      Cartesian components [D]:         [  0.000000,   0.000000,   0.000000]
    <r_h> [Ang]:                        [ -0.000000,   0.000000,  -0.165464]
    <r_e> [Ang]:                        [ -0.000000,   0.000000,  -0.186813]
    |<r_e - r_h>| [Ang]:                  0.021349
    Hole size [Ang]:                      1.406842
      Cartesian components [Ang]:       [  0.942134,   0.434774,   0.950031]
    Electron size [Ang]:                  1.997527
      Cartesian components [Ang]:       [  1.376626,   1.244495,   0.739086]
    RMS electron-hole separation [Ang]:   2.444137
      Cartesian components [Ang]:       [  1.673489,   1.316486,   1.200045]
    Covariance(r_h, r_e) [Ang^2]:        -0.002016
    Correlation coefficient:             -0.000717
    Center-of-mass size [Ang]:            1.221197
      Cartesian components [Ang]:       [  0.831395,   0.660011,   0.603730]

  Decomposition into state-averaged NTOs
    H- 4 -> L+ 0: -0.6649 ( 88.4%)
                   omega =  90.6%
  ----------------------------------------------------------------------------


  Excited state 10 (singlet, A2)                                    [converged]
  ----------------------------------------------------------------------------
  Term symbol:  10 (1) A2                                   R^2 =  6.40310e-07

  Total energy:                                            -78.3575510998 a.u.
  Excitation energy:                                              12.450297 eV

  Osc. strength:                                                      0.000000
  Trans. dip. moment [a.u.]:           [  -0.000000,   -0.000000,    0.000000]
  <i|r^2|0> [a.u.]:                    [   0.000000,    0.000000,    0.000000]

  Dip. moment [a.u.]:                  [   0.000000,    0.000000,   -4.111329]
  Total dipole [Debye]:                                              10.449958
  <r^2> [a.u.]:                        [  68.410162,   34.706577,   84.537351]
  Total <r^2> [a.u.]:                                               187.654090

  V1^2 = 0.9235, V2^2 = 0.0765

  Important amplitudes:
      occ i      occ j       vir a       vir b          v   
    ---------------------------------------------------------
     4 (A1) A               1 (A2) A                  0.4838
     4 (A1) A               2 (A2) A                 -0.3999
    ---------------------------------------------------------

  Density matrix analysis:
  ------------------------
  NOs
    Occupation of frontier NOs:
       0.8860   1.1055
    Number of electrons: 18.000000
    Number of unpaired electrons: n_u =  2.46836, n_u,nl =  2.11992
    NO participation ratio (PR_NO):  3.732209
  
  
  Mulliken Population Analysis
  Atom      Charge (e)              h+              e-           Del q
  --------------------------------------------------------------------
   1 C       -0.603708        0.474898       -0.671110       -0.196212
   2 C       -0.603708        0.474898       -0.671110       -0.196212
   3 H        0.266307        0.103380       -0.020577        0.082804
   4 H        0.266307        0.103380       -0.020577        0.082804
   5 H        0.152676        0.115552       -0.012742        0.102810
   6 H        0.152676        0.115552       -0.012742        0.102810
   7 H       -0.630549        0.035030       -0.013833        0.021197
  --------------------------------------------------------------------
  Sum:       -1.000000        1.422691       -1.422691       -0.000000
  
  Multipole moment analysis of the density matrix
    Molecular charge:                      -1.000000
    Number of electrons:                   18.000000
      Center of electronic charge [Ang]: [ -0.000000,  -0.000000,   0.120868]
    Total nuclear charge:                  17.000000
      Center of nuclear charge [Ang]:    [ -0.000000,   0.000000,   0.000000]
    Dipole moment [D]:                     10.449955
      Cartesian components [D]:          [  0.000000,   0.000000, -10.449955]
    RMS size of the density [Ang]:         1.704333
      Cartesian components [Ang]:        [  1.031633,   0.734803,   1.140417]
  
  Exciton analysis of the difference density matrix
    <r_h> [Ang]:                  [ -0.000000,  -0.000000,  -0.088710]
    <r_e> [Ang]:                  [ -0.000000,  -0.000000,  -0.138439]
    |<r_e - r_h>| [Ang]:            0.049729
    Hole size [Ang]:                1.748530
      Cartesian components [Ang]: [  1.192034,   0.750441,   1.035977]
    Electron size [Ang]:            3.232174
      Cartesian components [Ang]: [  2.129742,   2.048338,   1.309755]

  Transition density matrix analysis:
  -----------------------------------
  
  CT numbers (Mulliken)
    omega =     0.9034
    <Phe> =    -0.0031
  
  Exciton analysis of the transition density matrix
    Trans. dipole moment [D]:             0.000000
      Cartesian components [D]:         [ -0.000000,  -0.000000,   0.000000]
    <r_h> [Ang]:                        [  0.000000,   0.000000,  -0.138309]
    <r_e> [Ang]:                        [ -0.000000,  -0.000000,  -0.183834]
    |<r_e - r_h>| [Ang]:                  0.045524
    Hole size [Ang]:                      1.338498
      Cartesian components [Ang]:       [  1.079529,   0.477246,   0.631213]
    Electron size [Ang]:                  3.706476
      Cartesian components [Ang]:       [  2.455856,   2.385740,   1.419501]
    RMS electron-hole separation [Ang]:   3.906722
      Cartesian components [Ang]:       [  2.637917,   2.426942,   1.553648]
    Covariance(r_h, r_e) [Ang^2]:         0.134568
    Correlation coefficient:              0.027125
    Center-of-mass size [Ang]:            1.987377
      Cartesian components [Ang]:       [  1.363324,   1.219528,   0.777026]

  Decomposition into state-averaged NTOs
    H- 2 -> L+ 1:  0.6331 ( 80.2%)
    H- 0 -> L+ 7:  0.2052 (  8.4%)
                   omega =  90.3%
  ----------------------------------------------------------------------------


--------------------------------------------------------------------------------
  Time of ADC calculation:  CPU 140.12 s  wall 39.96 s
================================================================================
 
 --------------------------------------------------------------
             Orbital Energies (a.u.) and Symmetries
 --------------------------------------------------------------
 
 Alpha MOs, Restricted
 -- Occupied --                  
-11.065 -11.063  -0.870  -0.613  -0.487  -0.398  -0.341  -0.207
  1 A1    1 B1    2 A1    2 B1    3 A1    4 A1    3 B1    1 B2                 
 -0.023
  5 A1                                                                         
 -- Virtual --                   
  0.188   0.199   0.227   0.228   0.235   0.254   0.317   0.339
  4 B1    6 A1    2 B2    1 A2    7 A1    5 B1    8 A1    2 A2                 
  0.353   0.441   0.473   0.486   0.507   0.508   0.525   0.555
  6 B1    9 A1    7 B1   10 A1   11 A1    8 B1    3 B2   12 A1                 
  0.557   0.608   0.703   0.779   0.980   1.011   1.079   1.098
  9 B1    3 A2   10 B1   11 B1   13 A1   14 A1   15 A1   12 B1                 
  1.165   1.193   1.256   1.285   1.306   1.307   1.314   1.357
 16 A1   13 B1   17 A1    4 B2   18 A1   14 B1    5 B2    4 A2                 
  1.457   1.462   1.465   1.642   1.793   1.878   1.906   1.914
  5 A2    6 B2   15 B1   16 B1   19 A1   17 B1    7 B2   20 A1                 
  1.955   2.041   2.048   2.113   2.142   2.193   2.251   2.280
 18 B1   21 A1    6 A2    8 B2   19 B1    9 B2   22 A1   23 A1                 
  2.352   2.504   2.585   2.664   2.732   2.764   3.019   3.046
  7 A2   20 B1    8 A2   24 A1   21 B1   22 B1   25 A1   26 A1                 
  3.445   3.520
 23 B1   24 B1                                                                 
 
 Beta MOs, Restricted
 -- Occupied --                  
-11.065 -11.063  -0.870  -0.613  -0.487  -0.398  -0.341  -0.207
  1 A1    1 B1    2 A1    2 B1    3 A1    4 A1    3 B1    1 B2                 
 -0.023
  5 A1                                                                         
 -- Virtual --                   
  0.188   0.199   0.227   0.228   0.235   0.254   0.317   0.339
  4 B1    6 A1    2 B2    1 A2    7 A1    5 B1    8 A1    2 A2                 
  0.353   0.441   0.473   0.486   0.507   0.508   0.525   0.555
  6 B1    9 A1    7 B1   10 A1   11 A1    8 B1    3 B2   12 A1                 
  0.557   0.608   0.703   0.779   0.980   1.011   1.079   1.098
  9 B1    3 A2   10 B1   11 B1   13 A1   14 A1   15 A1   12 B1                 
  1.165   1.193   1.256   1.285   1.306   1.307   1.314   1.357
 16 A1   13 B1   17 A1    4 B2   18 A1   14 B1    5 B2    4 A2                 
  1.457   1.462   1.465   1.642   1.793   1.878   1.906   1.914
  5 A2    6 B2   15 B1   16 B1   19 A1   17 B1    7 B2   20 A1                 
  1.955   2.041   2.048   2.113   2.142   2.193   2.251   2.280
 18 B1   21 A1    6 A2    8 B2   19 B1    9 B2   22 A1   23 A1                 
  2.352   2.504   2.585   2.664   2.732   2.764   3.019   3.046
  7 A2   20 B1    8 A2   24 A1   21 B1   22 B1   25 A1   26 A1                 
  3.445   3.520
 23 B1   24 B1                                                                 
 --------------------------------------------------------------
 
          Ground-State Mulliken Net Atomic Charges

     Atom                 Charge (a.u.)
  ----------------------------------------
      1 C                    -0.383723
      2 C                    -0.383723
      3 H                     0.185783
      4 H                     0.185783
      5 H                     0.041776
      6 H                     0.041776
      7 H                    -0.687671
  ----------------------------------------
  Sum of atomic charges =    -1.000000

 -----------------------------------------------------------------
                    Cartesian Multipole Moments
 -----------------------------------------------------------------
    Charge (ESU x 10^10)
                -4.8032
    Dipole Moment (Debye)
         X       0.0000      Y       0.0000      Z     -11.0567
       Tot      11.0567
    Quadrupole Moments (Debye-Ang)
        XX     -19.0427     XY       0.0000     YY     -21.9174
        XZ       0.0000     YZ       0.0000     ZZ     -51.5011
    Octopole Moments (Debye-Ang^2)
       XXX      -0.0000    XXY      -0.0000    XYY       0.0000
       YYY       0.0000    XXZ      -8.6710    XYZ      -0.0000
       YYZ      -9.3746    XZZ       0.0000    YZZ       0.0000
       ZZZ    -115.2943
    Hexadecapole Moments (Debye-Ang^3)
      XXXX     -88.3573   XXXY      -0.0000   XXYY     -21.8270
      XYYY       0.0000   YYYY     -39.4035   XXXZ       0.0000
      XXYZ      -0.0000   XYYZ       0.0000   YYYZ      -0.0000
      XXZZ     -55.4347   XYZZ       0.0000   YYZZ     -50.0191
      XZZZ       0.0000   YZZZ       0.0000   ZZZZ    -490.1567
 -----------------------------------------------------------------
 Total job time:  122.34s(wall), 184.83s(cpu) 
 Sun Mar 27 18:01:31 2022

        *************************************************************
        *                                                           *
        *  Thank you very much for using Q-Chem.  Have a nice day.  *
        *                                                           *
        *************************************************************


