/src/tsommerfeld/qchem/exe/qcprog.exe .input0.722222.32239.qcin.1 /src/jdavis/qchem.scratch/qchem32239/

                  Welcome to Q-Chem
     A Quantum Leap Into The Future Of Chemistry


 Q-Chem 5.4 (devel), Q-Chem, Inc., Pleasanton, CA (2021)

 E. Epifanovsky,  A. T. B. Gilbert,  Xintian Feng,  Joonho Lee,  Yuezhi Mao,  
 N. Mardirossian,  P. Pokhilko,  A. White,  M. Wormit,  M. P. Coons,  
 A. L. Dempwolff,  Zhengting Gan,  D. Hait,  P. R. Horn,  L. D. Jacobson,  
 I. Kaliman,  J. Kussmann,  A. W. Lange,  Ka Un Lao,  D. S. Levine,  Jie Liu,  
 S. C. McKenzie,  A. F. Morrison,  K. Nanda,  F. Plasser,  D. R. Rehn,  
 M. L. Vidal,  Zhi-Qiang You,  Ying Zhu,  B. Alam,  B. Albrecht,  
 A. Aldossary,  E. Alguire,  J. H. Andersen,  D. Barton,  K. Begam,  A. Behn,  
 Y. A. Bernard,  E. J. Berquist,  H. Burton,  A. Carreras,  K. Carter-Fenk,  
 R. Chakraborty,  A. D. Chien,  K. D. Closser,  V. Cofer-Shabica,  
 S. Dasgupta,  Jia Deng,  M. de Wergifosse,  M. Diedenhofen,  Hainam Do,  
 S. Ehlert,  Po-Tung Fang,  S. Fatehi,  Qingguo Feng,  T. Friedhoff,  
 J. Gayvert,  Qinghui Ge,  G. Gidofalvi,  M. Goldey,  J. Gomes,  
 C. Gonzalez-Espinoza,  S. Gulania,  A. Gunina,  M. W. D. Hanson-Heine,  
 P. H. P. Harbach,  A. W. Hauser,  M. F. Herbst,  M. Hernandez Vera,  
 M. Hodecker,  Z. C. Holden,  S. Houck,  Xunkun Huang,  Kerwin Hui,  
 B. C. Huynh,  M. Ivanov,  Hyunjun Ji,  Hanjie Jiang,  B. Kaduk,  S. Kaehler,  
 K. Khistyaev,  Jaehoon Kim,  P. Klunzinger,  Z. Koczor-Benda,  
 Joong Hoon Koh,  D. Kosenkov,  L. Koulias,  T. Kowalczyk,  C. M. Krauter,  
 K. Kue,  A. Kunitsa,  T. Kus,  A. Landau,  K. V. Lawler,  D. Lefrancois,  
 S. Lehtola,  Rain Li,  Yi-Pei Li,  Jiashu Liang,  M. Liebenthal,  
 Hung-Hsuan Lin,  You-Sheng Lin,  Fenglai Liu,  Kuan-Yu Liu,  
 M. Loipersberger,  A. Luenser,  A. Manjanath,  P. Manohar,  E. Mansoor,  
 S. F. Manzer,  Shan-Ping Mao,  A. V. Marenich,  T. Markovich,  S. Mason,  
 S. A. Maurer,  P. F. McLaughlin,  M. F. S. J. Menger,  J.-M. Mewes,  
 S. A. Mewes,  P. Morgante,  J. W. Mullinax,  K. J. Oosterbaan,  G. Paran,  
 Alexander C. Paul,  Suranjan K. Paul,  F. Pavosevic,  Zheng Pei,  S. Prager,  
 E. I. Proynov,  E. Ramos,  B. Rana,  A. E. Rask,  A. Rettig,  R. M. Richard,  
 F. Rob,  E. Rossomme,  T. Scheele,  M. Scheurer,  M. Schneider,  
 N. Sergueev,  S. M. Sharada,  W. Skomorowski,  D. W. Small,  C. J. Stein,  
 Yu-Chuan Su,  E. J. Sundstrom,  Zhen Tao,  J. Thirman,  T. Tsuchimochi,  
 N. M. Tubman,  S. P. Veccham,  O. Vydrov,  J. Wenzel,  J. Witte,  A. Yamada,  
 Kun Yao,  S. Yeganeh,  S. R. Yost,  A. Zech,  Igor Ying Zhang,  Xing Zhang,  
 Yu Zhang,  D. Zuev,  A. Aspuru-Guzik,  A. T. Bell,  N. A. Besley,  
 K. B. Bravaya,  B. R. Brooks,  D. Casanova,  Jeng-Da Chai,  S. Coriani,  
 C. J. Cramer,  A. E. DePrince, III,  R. A. DiStasio Jr.,  A. Dreuw,  
 B. D. Dunietz,  T. R. Furlani,  W. A. Goddard III,  S. Grimme,  
 S. Hammes-Schiffer,  T. Head-Gordon,  W. J. Hehre,  Chao-Ping Hsu,  
 T.-C. Jagau,  Yousung Jung,  A. Klamt,  Jing Kong,  D. S. Lambrecht,  
 WanZhen Liang,  N. J. Mayhall,  C. W. McCurdy,  J. B. Neaton,  
 C. Ochsenfeld,  J. A. Parkhill,  R. Peverati,  V. A. Rassolov,  Yihan Shao,  
 L. V. Slipchenko,  T. Stauch,  R. P. Steele,  J. E. Subotnik,  
 A. J. W. Thom,  A. Tkatchenko,  D. G. Truhlar,  T. Van Voorhis,  
 T. A. Wesolowski,  K. B. Whaley,  H. L. Woodcock III,  P. M. Zimmerman,  
 S. Faraji,  P. M. W. Gill,  M. Head-Gordon,  J. M. Herbert,  A. I. Krylov

 Additional authors for Version 5.4.1: 
 S. Kotaru,  Shaozhi Li,  Xiangyuan Li,  F. Matz,  A. Molle,  Haisheng Ren,  
 Yingli Su,  Hung-Yi Tsai,  C. Utku,  Fang Wang

 Contributors to earlier versions of Q-Chem not listed above: 
 R. D. Adamson,  B. Austin,  R. Baer,  J. Baker,  G. J. O. Beran,  
 K. Brandhorst,  S. T. Brown,  E. F. C. Byrd,  A. K. Chakraborty,  
 G. K. L. Chan,  Chun-Min Chang,  Yunqing Chen,  C.-L. Cheng,  
 Siu Hung Chien,  D. M. Chipman,  D. L. Crittenden,  H. Dachsel,  
 R. J. Doerksen,  A. D. Dutoi,  R. G. Edgar,  J. Fosso-Tande,  
 L. Fusti-Molnar,  D. Ghosh,  A. Ghysels,  A. Golubeva-Zadorozhnaya,  
 J. Gonthier,  M. S. Gordon,  S. R. Gwaltney,  G. Hawkins,  J. E. Herr,  
 A. Heyden,  S. Hirata,  E. G. Hohenstein,  G. Kedziora,  F. J. Keil,  
 C. Kelley,  Jihan Kim,  R. A. King,  R. Z. Khaliullin,  P. P. Korambath,  
 W. Kurlancheek,  A. Laurent,  A. M. Lee,  M. S. Lee,  S. V. Levchenko,  
 Ching Yeh Lin,  D. Liotard,  E. Livshits,  R. C. Lochan,  I. Lotan,  
 L. A. Martinez-Martinez,  P. E. Maslen,  N. Nair,  D. P. O'Neill,  
 D. Neuhauser,  E. Neuscamman,  C. M. Oana,  R. Olivares-Amaya,  R. Olson,  
 T. M. Perrine,  B. Peters,  P. A. Pieniazek,  A. Prociuk,  Y. M. Rhee,  
 J. Ritchie,  M. A. Rohrdanz,  E. Rosta,  N. J. Russ,  H. F. Schaefer III,  
 M. W. Schmidt,  N. E. Schultz,  S. Sharma,  N. Shenvi,  C. D. Sherrill,  
 A. C. Simmonett,  A. Sodt,  T. Stein,  D. Stuck,  K. S. Thanthiriwatte,  
 V. Vanovschi,  L. Vogt,  Tao Wang,  A. Warshel,  M. A. Watson,  
 C. F. Williams,  Q. Wu,  X. Xu,  Jun Yang,  W. Zhang,  Yan Zhao

 Please cite Q-Chem as follows:
 Y. Shao et al., Mol. Phys. 113, 184-215 (2015)
 DOI: 10.1080/00268976.2014.952696

 Q-Chem 5.4.1 for Intel X86 EM64T Linux

 Parts of Q-Chem use Armadillo 9.900.5 (Nocturnal Misbehaviour).
 http://arma.sourceforge.net/

 Q-Chem begins on Sun Mar 27 17:08:47 2022  

 Host: node01
0

     Scratch files written to /src/jdavis/qchem.scratch/qchem32239//
 Processing $rem in /src/tsommerfeld/qchem/config/preferences:
 Processing $rem in /home/jdavis/.qchemrc:

 Checking the input file for inconsistencies... 	...done.

--------------------------------------------------------------
User input:
--------------------------------------------------------------
$molecule
-1 1
C        -0.6645000000    0.0000000000   -0.1764707059
C         0.6645000000    0.0000000000   -0.1764707059
H        -1.1590800000    0.0000000000    0.7858782941
H         1.1590800000    0.0000000000    0.7858782941
H        -1.1590800000    0.0000000000   -1.1388187059
H         1.1590800000    0.0000000000   -1.1388187059
H         0.0000000000    0.0000000000    2.8235292941
$end

$rem
   METHOD adc(2)
   BASIS gen
   PURECART 11
   EE_STATES [0,10,0,0]
   scf_convergence 8
   ADC_DAVIDSON_MAXITER 120
   ADC_DAVIDSON_MAXSUBSPACE 200
   adc_nguess_singles 100
   THRESH 14
   S2THRESH 14
   adc_davidson_conv 5
   adc_davidson_thresh 14
   THREADS 10
   MEM_TOTAL 95000
   STATE_ANALYSIS TRUE
$end
$basis
C 1
S   9   1.00
      6.665000D+03           6.920000D-04
      1.000000D+03           5.329000D-03
      2.280000D+02           2.707700D-02
      6.471000D+01           1.017180D-01
      2.106000D+01           2.747400D-01
      7.495000D+00           4.485640D-01
      2.797000D+00           2.850740D-01
      5.215000D-01           1.520400D-02
      1.596000D-01          -3.191000D-03
S   9   1.00
      6.665000D+03          -1.460000D-04
      1.000000D+03          -1.154000D-03
      2.280000D+02          -5.725000D-03
      6.471000D+01          -2.331200D-02
      2.106000D+01          -6.395500D-02
      7.495000D+00          -1.499810D-01
      2.797000D+00          -1.272620D-01
      5.215000D-01           5.445290D-01
      1.596000D-01           5.804960D-01
S   1   1.00
      1.596000D-01           1.000000D+00
S   1   1.00
      0.0469000              1.0000000
P   4   1.00
      9.439000D+00           3.810900D-02
      2.002000D+00           2.094800D-01
      5.456000D-01           5.085570D-01
      1.517000D-01           4.688420D-01
P   1   1.00
      1.517000D-01           1.000000D+00
P   1   1.00
      0.0438244      1.0000000
P   1   1.00
      0.0219122      1.0000000
D   1   1.00
      5.500000D-01           1.0000000
****
C 2
S   9   1.00
      6.665000D+03           6.920000D-04
      1.000000D+03           5.329000D-03
      2.280000D+02           2.707700D-02
      6.471000D+01           1.017180D-01
      2.106000D+01           2.747400D-01
      7.495000D+00           4.485640D-01
      2.797000D+00           2.850740D-01
      5.215000D-01           1.520400D-02
      1.596000D-01          -3.191000D-03
S   9   1.00
      6.665000D+03          -1.460000D-04
      1.000000D+03          -1.154000D-03
      2.280000D+02          -5.725000D-03
      6.471000D+01          -2.331200D-02
      2.106000D+01          -6.395500D-02
      7.495000D+00          -1.499810D-01
      2.797000D+00          -1.272620D-01
      5.215000D-01           5.445290D-01
      1.596000D-01           5.804960D-01
S   1   1.00
      1.596000D-01           1.000000D+00
S   1   1.00
      0.0469000              1.0000000
P   4   1.00
      9.439000D+00           3.810900D-02
      2.002000D+00           2.094800D-01
      5.456000D-01           5.085570D-01
      1.517000D-01           4.688420D-01
P   1   1.00
      1.517000D-01           1.000000D+00
P   1   1.00
      0.0438244      1.0000000
P   1   1.00
      0.0219122      1.0000000
D   1   1.00
      5.500000D-01           1.0000000
****
H 3
cc-pVDZ
****
H 4
cc-pVDZ
****
H 5
cc-pVDZ
****
H 6
cc-pVDZ
****
H 7
aug-cc-pVDZ
****
$end
--------------------------------------------------------------
 ----------------------------------------------------------------
             Standard Nuclear Orientation (Angstroms)
    I     Atom           X                Y                Z
 ----------------------------------------------------------------
    1      C      -0.6645000000    -0.0000000000    -0.1764707059
    2      C       0.6645000000     0.0000000000    -0.1764707059
    3      H      -1.1590800000    -0.0000000000     0.7858782941
    4      H       1.1590800000     0.0000000000     0.7858782941
    5      H      -1.1590800000    -0.0000000000    -1.1388187059
    6      H       1.1590800000     0.0000000000    -1.1388187059
    7      H       0.0000000000     0.0000000000     2.8235292941
 ----------------------------------------------------------------
 Molecular Point Group                 C2v   NOp =  4
 Largest Abelian Subgroup              C2v   NOp =  4
 Nuclear Repulsion Energy =          36.36366470 hartrees
 There are        9 alpha and        9 beta electrons
 Requested basis set is non-standard
 There are 33 shells and 67 basis functions
 Total memory of 95000 MB is distributed as follows: 
   MEM_STATIC is set to 192 MB
   QALLOC/CCMAN JOB total memory use is  94808 MB
 Warning: actual memory use might exceed 95000 MB

 Total QAlloc Memory Limit  95000 MB
 Mega-Array Size       188 MB
 MEM_STATIC part       192 MB

                       Distance Matrix (Angstroms)
             C (  1)   C (  2)   H (  3)   H (  4)   H (  5)   H (  6)
   C (  2)  1.329000
   H (  3)  1.082000  2.061931
   H (  4)  2.061931  1.082000  2.318160
   H (  5)  1.082000  2.061931  1.924697  3.013026
   H (  6)  2.061931  1.082000  3.013026  1.924697  2.318160
   H (  7)  3.072712  3.072712  2.344246  2.344246  4.128398  4.128398

 
 A cutoff of  1.0D-14 yielded    561 shell pairs
 There are      2337 function pairs (      2484 Cartesian)
 Smallest overlap matrix eigenvalue = 2.01E-04

 Scale SEOQF with 1.000000e-01/1.000000e-01/1.000000e-01

 Standard Electronic Orientation quadrupole field applied
 Nucleus-field energy     =    -0.0000000009 hartrees
 ================ Generating on-the-fly SAD Guess ================
Attempting to make child job directory: /src/jdavis/qchem.scratch/qchem32239//Frg1/
Attempting to make child job directory: /src/jdavis/qchem.scratch/qchem32239//Frg2/
Creating input file /src/jdavis/qchem.scratch/qchem32239/Frg1.input
using default PutDataFrgm: nothing
calling putenv with: QCSCRATCH=/src/jdavis/qchem.scratch/qchem32239/ 
Spawning Job For Fragment 0
Done Job For Fragment 0
calling putenv with: QCSCRATCH=/src/jdavis/qchem.scratch 
calling putenv with: QCTHREADS=1 
Creating input file /src/jdavis/qchem.scratch/qchem32239/Frg2.input
using default PutDataFrgm: nothing
calling putenv with: QCSCRATCH=/src/jdavis/qchem.scratch/qchem32239/ 
Spawning Job For Fragment 1
Done Job For Fragment 1
calling putenv with: QCSCRATCH=/src/jdavis/qchem.scratch 
calling putenv with: QCTHREADS=1 
 Time for running child jobs:  CPU 1.77 s  wall 54.46 s
 ============= Method Specific SAD Guess Constructed =============
 Guess from on-the-fly superposition of atomic densities
 Warning: Energy on first SCF cycle will be non-variational
 A restricted Hartree-Fock SCF calculation will be
 performed using Pulay DIIS extrapolation
 SCF converges when DIIS error is below 1.0E-08
 using 10 threads for integral computing
 -------------------------------------------------------
 OpenMP Integral computing Module                
 Release: version 1.0, May 2013, Q-Chem Inc. Pittsburgh 
 -------------------------------------------------------
 ---------------------------------------
  Cycle       Energy         DIIS Error
 ---------------------------------------
    1     -78.8140085071      7.37E-02
    2     -78.4605111307      6.97E-03
    3     -78.5109112752      1.75E-03
    4     -78.5135885465      5.51E-04
    5     -78.5139057967      1.22E-04
    6     -78.5139313158      2.86E-05
    7     -78.5139335086      7.65E-06
    8     -78.5139337203      1.16E-06
    9     -78.5139337262      2.71E-07
   10     -78.5139337267      5.65E-08
   11     -78.5139337267      1.16E-08
   12     -78.5139337267      1.67E-09 Convergence criterion met
 ---------------------------------------
 SCF time:  CPU 11.17 s  wall 1.12 s
 SCF   energy in the final basis set = -78.51393373
 Total energy in the final basis set = -78.51393373
================================================================================
|                                                                              |
|                                 A D C  M A N                                 |
|                                                                              |
 ------------------------------------------------------------------------------ 
|                                                                              |
| Components:                                                                  |
|                                                                              |
| - libvmm - 1.3-trunk                                                         |
|   Authors:                                                                   |
|   Evgeny Epifanovsky, Ilya Kaliman                                           |
|                                                                              |
| - libtensor - 2.5-trunk                                                      |
|   Authors:                                                                   |
|   Evgeny Epifanovsky, Michael Wormit, Dmitry Zuev, Sam Manzer,               |
|   Ilya Kaliman                                                               |
|                                                                              |
| - libwfa - 1.1-trunk                                                         |
|   Authors:                                                                   |
|   Felix Plasser, Stefanie Mewes (Baeppler), Benjamin Thomitzni,              |
|   Michael Wormit, Feng Chen, Anna I. Krylov, Pavel Pokhilko                  |
|                                                                              |
| - libadc - 1.1-trunk                                                         |
|   Authors:                                                                   |
|   Michael Wormit, Adrian L. Dempwolff, Philipp H. P. Harbach,                |
|   Caroline Krauter, Dirk Rehn, Matthias Schneider, Jan Wenzel                |
|                                                                              |
| - adcman - 2.6-trunk                                                         |
|   Authors:                                                                   |
|   Michael Wormit, Adrian L. Dempwolff, Philipp H. P. Harbach,                |
|   Caroline Krauter, Daniel Lefrancois, Jan-Michael Mewes, Dirk Rehn,         |
|   Matthias Schneider, Jan Wenzel, Andreas Dreuw                              |
|                                                                              |
| Authors of earlier versions of ADCMAN:                                       |
| Andreas Dreuw, Jan Hendrik Starcke, Dirk Rehn, Michael Wormit                |
|                                                                              |
================================================================================

 
 Alpha MOs, Restricted
 -- Occupied --                  
-11.072 -11.070  -0.878  -0.620  -0.495  -0.405  -0.349  -0.214
  1 A1    1 B1    2 A1    2 B1    3 A1    4 A1    3 B1    1 B2                 
 -0.036
  5 A1                                                                         
 -- Virtual --                   
  0.132   0.153   0.157   0.159   0.171   0.172   0.248   0.265
  4 B1    2 B2    6 A1    1 A2    7 A1    5 B1    8 A1    6 B1                 
  0.274   0.317   0.326   0.338   0.364   0.396   0.422   0.465
  2 A2    9 A1    7 B1    3 B2   10 A1    8 B1    3 A2   11 A1                 
  0.500   0.503   0.636   0.665   0.852   0.950   1.022   1.033
 12 A1    9 B1   10 B1   11 B1   13 A1   14 A1   15 A1   16 A1                 
  1.048   1.091   1.101   1.113   1.133   1.218   1.236   1.279
  4 B2   12 B1    4 A2   17 A1   13 B1   14 B1   18 A1    5 B2                 
  1.445   1.449   1.488   1.514   1.772   1.778   1.870   1.880
  6 B2    5 A2   15 B1   16 B1   19 A1   17 B1   20 A1    7 B2                 
  1.929   1.970   2.015   2.077   2.101   2.158   2.185   2.228
 18 B1   21 A1    6 A2   19 B1    8 B2   22 A1    9 B2   23 A1                 
  2.334   2.462   2.577   2.617   2.717   2.745   2.962   2.989
  7 A2   20 B1    8 A2   24 A1   21 B1   22 B1   25 A1   26 A1                 
  3.424   3.508
 23 B1   24 B1                                                                 
 
 Beta MOs, Restricted
 -- Occupied --                  
-11.072 -11.070  -0.878  -0.620  -0.495  -0.405  -0.349  -0.214
  1 A1    1 B1    2 A1    2 B1    3 A1    4 A1    3 B1    1 B2                 
 -0.036
  5 A1                                                                         
 -- Virtual --                   
  0.132   0.153   0.157   0.159   0.171   0.172   0.248   0.265
  4 B1    2 B2    6 A1    1 A2    7 A1    5 B1    8 A1    6 B1                 
  0.274   0.317   0.326   0.338   0.364   0.396   0.422   0.465
  2 A2    9 A1    7 B1    3 B2   10 A1    8 B1    3 A2   11 A1                 
  0.500   0.503   0.636   0.665   0.852   0.950   1.022   1.033
 12 A1    9 B1   10 B1   11 B1   13 A1   14 A1   15 A1   16 A1                 
  1.048   1.091   1.101   1.113   1.133   1.218   1.236   1.279
  4 B2   12 B1    4 A2   17 A1   13 B1   14 B1   18 A1    5 B2                 
  1.445   1.449   1.488   1.514   1.772   1.778   1.870   1.880
  6 B2    5 A2   15 B1   16 B1   19 A1   17 B1   20 A1    7 B2                 
  1.929   1.970   2.015   2.077   2.101   2.158   2.185   2.228
 18 B1   21 A1    6 A2   19 B1    8 B2   22 A1    9 B2   23 A1                 
  2.334   2.462   2.577   2.617   2.717   2.745   2.962   2.989
  7 A2   20 B1    8 A2   24 A1   21 B1   22 B1   25 A1   26 A1                 
  3.424   3.508
 23 B1   24 B1                                                                 

--------------------------------------------------------------------------------
                                   HF Summary                                   
--------------------------------------------------------------------------------
  Energy:                                                  -78.5139337267 a.u.
  Dip. moment [a.u.]:                  [   0.000000,    0.000000,   -4.241616]
  Total dipole [Debye]:                                              10.781115
  <r^2> [a.u.]:                        [  53.851062,   17.538842,   85.058149]
  Total <r^2> [a.u.]:                                               156.448054
--------------------------------------------------------------------------------

--------------------------------------------------------------------------------
                                 MP(2) Summary                                  
--------------------------------------------------------------------------------
  MP energy contribution:                                   -0.3055156852 a.u.
  Total energy:                                            -78.8194494119 a.u.
  Dip. moment [a.u.]:                  [   0.000000,    0.000000,   -4.048650]
  Total dipole [Debye]:                                              10.290645
  <r^2> [a.u.]:                        [  54.616964,   17.883654,   85.220975]
  Total <r^2> [a.u.]:                                               157.721593

  Density matrix analysis:
  ------------------------
  NOs
    Occupation of frontier NOs:
       0.0448   1.9362
    Number of electrons: 18.000000
    Number of unpaired electrons: n_u =  0.47157, n_u,nl =  0.05219
    NO participation ratio (PR_NO): 16.362230
  
  
  Mulliken Population Analysis
  Atom      Charge (e)              h+              e-           Del q
  --------------------------------------------------------------------
   1 C       -0.377881        0.090136       -0.122730       -0.032594
   2 C       -0.377881        0.090136       -0.122730       -0.032594
   3 H        0.136666        0.014795       -0.017135       -0.002339
   4 H        0.136666        0.014795       -0.017135       -0.002339
   5 H        0.027428        0.019177       -0.011549        0.007628
   6 H        0.027428        0.019177       -0.011549        0.007628
   7 H       -0.572425        0.068271       -0.013660        0.054611
  --------------------------------------------------------------------
  Sum:       -1.000000        0.316487       -0.316487        0.000000
  
  Multipole moment analysis of the density matrix
    Molecular charge:                      -1.000000
    Number of electrons:                   18.000000
      Center of electronic charge [Ang]: [ -0.000000,  -0.000000,   0.119025]
    Total nuclear charge:                  17.000000
      Center of nuclear charge [Ang]:    [ -0.000000,   0.000000,   0.000000]
    Dipole moment [D]:                     10.290642
      Cartesian components [D]:          [  0.000000,   0.000000, -10.290642]
    RMS size of the density [Ang]:         1.561899
      Cartesian components [Ang]:        [  0.921783,   0.527464,   1.145263]
  
  Exciton analysis of the difference density matrix
    <r_h> [Ang]:                  [ -0.000000,   0.000000,   0.360335]
    <r_e> [Ang]:                  [ -0.000000,   0.000000,   0.037689]
    |<r_e - r_h>| [Ang]:            0.322646
    Hole size [Ang]:                1.970133
      Cartesian components [Ang]: [  0.990343,   0.803835,   1.501496]
    Electron size [Ang]:            2.266423
      Cartesian components [Ang]: [  1.287809,   0.975316,   1.589648]
--------------------------------------------------------------------------------
Less singles guess vectors found than requested: 85 (found), 100 (requested).
Adjusting number of doubles guess vectors to 15.
  Starting Davidson for singlet states of irrep A2 ... 
--------------------------------------------------------------------------------
   It NVec Conv  Avg. Norm  Max. Norm  Conv. states           Remark
--------------------------------------------------------------------------------
       100    0  7.644e-02  3.821e-01  0.0953 n n n n n n n n Guess.
    1  110    0  1.012e-02  6.330e-02  0.0733 n n n n n n n n 
    2  120    0  1.362e-03  1.063e-02  0.0732 n n n n n n n n 
    3  130    2  2.788e-03  2.783e-02  0.0732 y n n n n n n n 
    4  140    7  2.390e-04  2.387e-03  0.0732 y y y y y y n n 
    5  150    9  8.159e-06  8.147e-05  0.0732 y y y y y y y y 
    6  160   10  1.851e-07  1.848e-06  0.0732 y y y y y y y y Converged.
--------------------------------------------------------------------------------
  Davidson Summary: 
 ------------------------------------------------------------
  State  0: excitation energy =   0.0732 a.u.   (converged)
  State  1: excitation energy =   0.1224 a.u.   (converged)
  State  2: excitation energy =   0.2270 a.u.   (converged)
  State  3: excitation energy =   0.2662 a.u.   (converged)
  State  4: excitation energy =   0.2761 a.u.   (converged)
  State  5: excitation energy =   0.3250 a.u.   (converged)
  State  6: excitation energy =   0.3399 a.u.   (converged)
  State  7: excitation energy =   0.3521 a.u.   (converged)
  State  8: excitation energy =   0.3573 a.u.   (converged)
  State  9: excitation energy =   0.3802 a.u.   (converged)
 ------------------------------------------------------------


--------------------------------------------------------------------------------
                   State-averaged natural transition orbitals
--------------------------------------------------------------------------------
--------------------------------------------------------------------------------

--------------------------------------------------------------------------------
                             Excited State Summary
--------------------------------------------------------------------------------
--------------------------------------------------------------------------------

  Excited state 1 (singlet, A2)                                    [converged]
  ----------------------------------------------------------------------------
  Term symbol:  1 (1) A2                                    R^2 =  4.03093e-11

  Total energy:                                            -78.7462103344 a.u.
  Excitation energy:                                               1.992937 eV

  Osc. strength:                                                      0.000000
  Trans. dip. moment [a.u.]:           [   0.000000,   -0.000000,   -0.000000]
  <i|r^2|0> [a.u.]:                    [   0.000000,   -0.000000,   -0.000000]

  Dip. moment [a.u.]:                  [   0.000000,   -0.000000,    0.592938]
  Total dipole [Debye]:                                               1.507100
  <r^2> [a.u.]:                        [  88.470768,   51.591091,   66.724130]
  Total <r^2> [a.u.]:                                               206.785989

  V1^2 = 0.9123, V2^2 = 0.0877

  Important amplitudes:
      occ i      occ j       vir a       vir b          v   
    ---------------------------------------------------------
     5 (A1) A               1 (A2) A                  0.6546
     5 (A1) A               2 (A2) A                 -0.1645
    ---------------------------------------------------------

  Density matrix analysis:
  ------------------------
  NOs
    Occupation of frontier NOs:
       0.9842   0.9969
    Number of electrons: 18.000000
    Number of unpaired electrons: n_u =  2.41773, n_u,nl =  2.04789
    NO participation ratio (PR_NO):  2.959600
  
  
  Mulliken Population Analysis
  Atom      Charge (e)              h+              e-           Del q
  --------------------------------------------------------------------
   1 C       -0.679687        0.258278       -0.560085       -0.301807
   2 C       -0.679687        0.258278       -0.560085       -0.301807
   3 H        0.106952        0.023567       -0.053280       -0.029714
   4 H        0.106952        0.023567       -0.053280       -0.029714
   5 H        0.056257        0.029742       -0.000913        0.028829
   6 H        0.056257        0.029742       -0.000913        0.028829
   7 H        0.032957        0.662579       -0.057196        0.605383
  --------------------------------------------------------------------
  Sum:       -1.000000        1.285754       -1.285754       -0.000000
  
  Multipole moment analysis of the density matrix
    Molecular charge:                      -1.000000
    Number of electrons:                   18.000000
      Center of electronic charge [Ang]: [ -0.000000,   0.000000,  -0.017432]
    Total nuclear charge:                  17.000000
      Center of nuclear charge [Ang]:    [ -0.000000,   0.000000,   0.000000]
    Dipole moment [D]:                     1.507099
      Cartesian components [D]:          [  0.000000,  -0.000000,   1.507099]
    RMS size of the density [Ang]:         1.793515
      Cartesian components [Ang]:        [  1.173180,   0.895885,   1.018692]
  
  Exciton analysis of the difference density matrix
    <r_h> [Ang]:                  [ -0.000000,  -0.000000,   1.927781]
    <r_e> [Ang]:                  [ -0.000000,   0.000000,   0.017444]
    |<r_e - r_h>| [Ang]:            1.910337
    Hole size [Ang]:                2.695324
      Cartesian components [Ang]: [  1.276170,   1.151319,   2.076205]
    Electron size [Ang]:            4.654751
      Cartesian components [Ang]: [  3.000290,   2.943941,   1.999543]

  Transition density matrix analysis:
  -----------------------------------
  
  CT numbers (Mulliken)
    omega =     0.8992
    <Phe> =     0.0011
  
  Exciton analysis of the transition density matrix
    Trans. dipole moment [D]:             0.000000
      Cartesian components [D]:         [  0.000000,  -0.000000,  -0.000000]
    <r_h> [Ang]:                        [ -0.000000,  -0.000000,   2.571315]
    <r_e> [Ang]:                        [ -0.000000,   0.000000,  -0.176331]
    |<r_e - r_h>| [Ang]:                  2.747646
    Hole size [Ang]:                      1.937400
      Cartesian components [Ang]:       [  0.970757,   0.925793,   1.397875]
    Electron size [Ang]:                  5.008748
      Cartesian components [Ang]:       [  3.297900,   3.264553,   1.885234]
    RMS electron-hole separation [Ang]:   6.031587
      Cartesian components [Ang]:       [  3.436621,   3.392938,   3.613537]
    Covariance(r_h, r_e) [Ang^2]:         0.005295
    Correlation coefficient:              0.000546
    Center-of-mass size [Ang]:            2.685687
      Cartesian components [Ang]:       [  1.719495,   1.696818,   1.173481]

  Decomposition into state-averaged NTOs
    H- 1 -> L+ 7:  0.4631 ( 42.9%)
    H- 1 -> L+ 0: -0.3810 ( 29.0%)
    H- 1 -> L+ 6: -0.2998 ( 18.0%)
                   omega =  89.9%
  ----------------------------------------------------------------------------


  Excited state 2 (singlet, A2)                                    [converged]
  ----------------------------------------------------------------------------
  Term symbol:  2 (1) A2                                    R^2 =  1.74992e-10

  Total energy:                                            -78.6970856046 a.u.
  Excitation energy:                                               3.329689 eV

  Osc. strength:                                                      0.000000
  Trans. dip. moment [a.u.]:           [  -0.000000,   -0.000000,   -0.000000]
  <i|r^2|0> [a.u.]:                    [  -0.000000,   -0.000000,   -0.000000]

  Dip. moment [a.u.]:                  [   0.000000,   -0.000000,    0.579248]
  Total dipole [Debye]:                                               1.472302
  <r^2> [a.u.]:                        [  65.545696,   28.016782,   60.207208]
  Total <r^2> [a.u.]:                                               153.769686

  V1^2 = 0.9126, V2^2 = 0.0874

  Important amplitudes:
      occ i      occ j       vir a       vir b          v   
    ---------------------------------------------------------
     5 (A1) A               2 (A2) A                  0.6267
     5 (A1) A               3 (A2) A                  0.1904
    ---------------------------------------------------------

  Density matrix analysis:
  ------------------------
  NOs
    Occupation of frontier NOs:
       0.9846   0.9921
    Number of electrons: 18.000000
    Number of unpaired electrons: n_u =  2.41069, n_u,nl =  2.04253
    NO participation ratio (PR_NO):  2.957772
  
  
  Mulliken Population Analysis
  Atom      Charge (e)              h+              e-           Del q
  --------------------------------------------------------------------
   1 C       -0.607647        0.317785       -0.547551       -0.229766
   2 C       -0.607647        0.317785       -0.547551       -0.229766
   3 H        0.074176        0.029229       -0.091718       -0.062489
   4 H        0.074176        0.029229       -0.091718       -0.062489
   5 H        0.009584        0.008474       -0.026318       -0.017844
   6 H        0.009584        0.008474       -0.026318       -0.017844
   7 H        0.047773        0.657364       -0.037166        0.620198
  --------------------------------------------------------------------
  Sum:       -1.000000        1.368339       -1.368339       -0.000000
  
  Multipole moment analysis of the density matrix
    Molecular charge:                      -1.000000
    Number of electrons:                   18.000000
      Center of electronic charge [Ang]: [ -0.000000,   0.000000,  -0.017029]
    Total nuclear charge:                  17.000000
      Center of nuclear charge [Ang]:    [ -0.000000,   0.000000,   0.000000]
    Dipole moment [D]:                     1.472302
      Cartesian components [D]:          [  0.000000,  -0.000000,   1.472302]
    RMS size of the density [Ang]:         1.546585
      Cartesian components [Ang]:        [  1.009804,   0.660198,   0.967658]
  
  Exciton analysis of the difference density matrix
    <r_h> [Ang]:                  [ -0.000000,   0.000000,   1.793728]
    <r_e> [Ang]:                  [ -0.000000,   0.000000,   0.003983]
    |<r_e - r_h>| [Ang]:            1.789745
    Hole size [Ang]:                2.519782
      Cartesian components [Ang]: [  1.182001,   1.064746,   1.954095]
    Electron size [Ang]:            2.959391
      Cartesian components [Ang]: [  1.906220,   1.790925,   1.384523]

  Transition density matrix analysis:
  -----------------------------------
  
  CT numbers (Mulliken)
    omega =     0.8883
    <Phe> =    -0.0005
  
  Exciton analysis of the transition density matrix
    Trans. dipole moment [D]:             0.000000
      Cartesian components [D]:         [ -0.000000,  -0.000000,  -0.000000]
    <r_h> [Ang]:                        [ -0.000000,  -0.000000,   2.561884]
    <r_e> [Ang]:                        [ -0.000000,   0.000000,  -0.175173]
    |<r_e - r_h>| [Ang]:                  2.737057
    Hole size [Ang]:                      1.929040
      Cartesian components [Ang]:       [  0.963145,   0.917305,   1.397174]
    Electron size [Ang]:                  3.062248
      Cartesian components [Ang]:       [  2.043311,   1.971504,   1.146917]
    RMS electron-hole separation [Ang]:   4.534914
      Cartesian components [Ang]:       [  2.254175,   2.174005,   3.279915]
    Covariance(r_h, r_e) [Ang^2]:         0.012298
    Correlation coefficient:              0.002082
    Center-of-mass size [Ang]:            1.811295
      Cartesian components [Ang]:       [  1.131838,   1.087458,   0.903973]

  Decomposition into state-averaged NTOs
    H- 1 -> L+ 0:  0.5344 ( 57.1%)
    H- 1 -> L+ 7:  0.3900 ( 30.4%)
    H- 1 -> L+ 6: -0.0786 (  1.2%)
                   omega =  88.8%
  ----------------------------------------------------------------------------


  Excited state 3 (singlet, A2)                                    [converged]
  ----------------------------------------------------------------------------
  Term symbol:  3 (1) A2                                    R^2 =  2.34322e-10

  Total energy:                                            -78.5924181211 a.u.
  Excitation energy:                                               6.177836 eV

  Osc. strength:                                                      0.000000
  Trans. dip. moment [a.u.]:           [  -0.000000,    0.000000,   -0.000000]
  <i|r^2|0> [a.u.]:                    [  -0.000000,   -0.000000,   -0.000000]

  Dip. moment [a.u.]:                  [   0.000000,    0.000000,   -1.140409]
  Total dipole [Debye]:                                               2.898632
  <r^2> [a.u.]:                        [  96.166051,   29.468054,  102.485956]
  Total <r^2> [a.u.]:                                               228.120061

  V1^2 = 0.9382, V2^2 = 0.0618

  Important amplitudes:
      occ i      occ j       vir a       vir b          v   
    ---------------------------------------------------------
     1 (B2) A               4 (B1) A                 -0.6564
     1 (B2) A               6 (B1) A                 -0.1600
    ---------------------------------------------------------

  Density matrix analysis:
  ------------------------
  NOs
    Occupation of frontier NOs:
       0.9825   0.9960
    Number of electrons: 18.000000
    Number of unpaired electrons: n_u =  2.36304, n_u,nl =  2.03142
    NO participation ratio (PR_NO):  2.840751
  
  
  Mulliken Population Analysis
  Atom      Charge (e)              h+              e-           Del q
  --------------------------------------------------------------------
   1 C       -0.527484        0.568259       -0.717862       -0.149603
   2 C       -0.527484        0.568259       -0.717862       -0.149603
   3 H        0.197187        0.072138       -0.011616        0.060521
   4 H        0.197187        0.072138       -0.011616        0.060521
   5 H        0.120173        0.118059       -0.025314        0.092746
   6 H        0.120173        0.118059       -0.025314        0.092746
   7 H       -0.579754        0.041826       -0.049154       -0.007328
  --------------------------------------------------------------------
  Sum:       -1.000000        1.558739       -1.558739       -0.000000
  
  Multipole moment analysis of the density matrix
    Molecular charge:                      -1.000000
    Number of electrons:                   18.000000
      Center of electronic charge [Ang]: [ -0.000000,  -0.000000,   0.033527]
    Total nuclear charge:                  17.000000
      Center of nuclear charge [Ang]:    [ -0.000000,   0.000000,   0.000000]
    Dipole moment [D]:                     2.898631
      Cartesian components [D]:          [  0.000000,   0.000000,  -2.898631]
    RMS size of the density [Ang]:         1.883553
      Cartesian components [Ang]:        [  1.223139,   0.677081,   1.262246]
  
  Exciton analysis of the difference density matrix
    <r_h> [Ang]:                  [ -0.000000,  -0.000000,  -0.111375]
    <r_e> [Ang]:                  [ -0.000000,  -0.000000,  -1.098696]
    |<r_e - r_h>| [Ang]:            0.987321
    Hole size [Ang]:                1.972670
      Cartesian components [Ang]: [  1.165106,   0.978777,   1.255368]
    Electron size [Ang]:            3.917121
      Cartesian components [Ang]: [  2.970151,   1.743316,   1.866250]

  Transition density matrix analysis:
  -----------------------------------
  
  CT numbers (Mulliken)
    omega =     0.9079
    <Phe> =    -0.0013
  
  Exciton analysis of the transition density matrix
    Trans. dipole moment [D]:             0.000000
      Cartesian components [D]:         [ -0.000000,   0.000000,  -0.000000]
    <r_h> [Ang]:                        [ -0.000000,  -0.000000,  -0.183595]
    <r_e> [Ang]:                        [ -0.000000,  -0.000000,  -1.767293]
    |<r_e - r_h>| [Ang]:                  1.583698
    Hole size [Ang]:                      1.277640
      Cartesian components [Ang]:       [  0.764002,   0.881873,   0.520542]
    Electron size [Ang]:                  4.535388
      Cartesian components [Ang]:       [  3.608046,   2.097514,   1.775439]
    RMS electron-hole separation [Ang]:   4.965541
      Cartesian components [Ang]:       [  3.684156,   2.270167,   2.435146]
    Covariance(r_h, r_e) [Ang^2]:         0.026803
    Correlation coefficient:              0.004626
    Center-of-mass size [Ang]:            2.358798
      Cartesian components [Ang]:       [  1.845968,   1.140271,   0.925264]

  Decomposition into state-averaged NTOs
    H- 0 -> L+ 5: -0.4544 ( 41.3%)
    H- 0 -> L+ 2: -0.3772 ( 28.5%)
    H- 0 -> L+ 4: -0.3061 ( 18.7%)
    H- 0 -> L+ 1:  0.1065 (  2.3%)
                   omega =  90.8%
  ----------------------------------------------------------------------------


  Excited state 4 (singlet, A2)                                    [converged]
  ----------------------------------------------------------------------------
  Term symbol:  4 (1) A2                                    R^2 =  9.67447e-10

  Total energy:                                            -78.5532830708 a.u.
  Excitation energy:                                               7.242754 eV

  Osc. strength:                                                      0.000000
  Trans. dip. moment [a.u.]:           [  -0.000000,   -0.000000,    0.000000]
  <i|r^2|0> [a.u.]:                    [  -0.000000,    0.000000,   -0.000000]

  Dip. moment [a.u.]:                  [   0.000000,    0.000000,    0.589052]
  Total dipole [Debye]:                                               1.497221
  <r^2> [a.u.]:                        [  68.960633,   32.046281,   61.091357]
  Total <r^2> [a.u.]:                                               162.098272

  V1^2 = 0.9086, V2^2 = 0.0914

  Important amplitudes:
      occ i      occ j       vir a       vir b          v   
    ---------------------------------------------------------
     5 (A1) A               3 (A2) A                  0.6418
     5 (A1) A               2 (A2) A                 -0.1971
    ---------------------------------------------------------

  Density matrix analysis:
  ------------------------
  NOs
    Occupation of frontier NOs:
       0.9798   0.9831
    Number of electrons: 18.000000
    Number of unpaired electrons: n_u =  2.44385, n_u,nl =  2.05536
    NO participation ratio (PR_NO):  3.076556
  
  
  Mulliken Population Analysis
  Atom      Charge (e)              h+              e-           Del q
  --------------------------------------------------------------------
   1 C       -0.628632        0.283397       -0.534149       -0.250752
   2 C       -0.628632        0.283397       -0.534149       -0.250752
   3 H        0.082839        0.023396       -0.077222       -0.053826
   4 H        0.082839        0.023396       -0.077222       -0.053826
   5 H        0.023285        0.006478       -0.010621       -0.004142
   6 H        0.023285        0.006478       -0.010621       -0.004142
   7 H        0.045015        0.659424       -0.041983        0.617441
  --------------------------------------------------------------------
  Sum:       -1.000000        1.285966       -1.285966       -0.000000
  
  Multipole moment analysis of the density matrix
    Molecular charge:                      -1.000000
    Number of electrons:                   18.000000
      Center of electronic charge [Ang]: [ -0.000000,  -0.000000,  -0.017317]
    Total nuclear charge:                  17.000000
      Center of nuclear charge [Ang]:    [ -0.000000,   0.000000,   0.000000]
    Dipole moment [D]:                     1.497221
      Cartesian components [D]:          [  0.000000,   0.000000,   1.497221]
    RMS size of the density [Ang]:         1.587919
      Cartesian components [Ang]:        [  1.035775,   0.706080,   0.974734]
  
  Exciton analysis of the difference density matrix
    <r_h> [Ang]:                  [ -0.000000,  -0.000000,   1.936430]
    <r_e> [Ang]:                  [ -0.000000,  -0.000000,   0.028008]
    |<r_e - r_h>| [Ang]:            1.908422
    Hole size [Ang]:                2.539911
      Cartesian components [Ang]: [  1.202993,   1.090436,   1.953178]
    Electron size [Ang]:            3.339637
      Cartesian components [Ang]: [  2.137903,   2.067140,   1.519697]

  Transition density matrix analysis:
  -----------------------------------
  
  CT numbers (Mulliken)
    omega =     0.8917
    <Phe> =    -0.0004
  
  Exciton analysis of the transition density matrix
    Trans. dipole moment [D]:             0.000000
      Cartesian components [D]:         [ -0.000000,  -0.000000,   0.000000]
    <r_h> [Ang]:                        [ -0.000000,  -0.000000,   2.563247]
    <r_e> [Ang]:                        [ -0.000000,  -0.000000,  -0.176247]
    |<r_e - r_h>| [Ang]:                  2.739495
    Hole size [Ang]:                      1.931550
      Cartesian components [Ang]:       [  0.964796,   0.919500,   1.398061]
    Electron size [Ang]:                  3.477972
      Cartesian components [Ang]:       [  2.293653,   2.262669,   1.309877]
    RMS electron-hole separation [Ang]:   4.829047
      Cartesian components [Ang]:       [  2.486894,   2.441619,   3.342686]
    Covariance(r_h, r_e) [Ang^2]:         0.006155
    Correlation coefficient:              0.000916
    Center-of-mass size [Ang]:            1.989943
      Cartesian components [Ang]:       [  1.244860,   1.221556,   0.958121]

  Decomposition into state-averaged NTOs
    H- 1 -> L+ 6: -0.5932 ( 70.4%)
    H- 1 -> L+ 7: -0.2858 ( 16.3%)
    H- 1 -> L+ 0:  0.1073 (  2.3%)
                   omega =  89.2%
  ----------------------------------------------------------------------------


  Excited state 5 (singlet, A2)                                    [converged]
  ----------------------------------------------------------------------------
  Term symbol:  5 (1) A2                                    R^2 =  5.49534e-10

  Total energy:                                            -78.5433386302 a.u.
  Excitation energy:                                               7.513356 eV

  Osc. strength:                                                      0.000000
  Trans. dip. moment [a.u.]:           [   0.000000,   -0.000000,   -0.000000]
  <i|r^2|0> [a.u.]:                    [  -0.000000,   -0.000000,   -0.000000]

  Dip. moment [a.u.]:                  [  -0.000000,    0.000000,   -6.196713]
  Total dipole [Debye]:                                              15.750476
  <r^2> [a.u.]:                        [  94.933351,   28.100748,  117.731255]
  Total <r^2> [a.u.]:                                               240.765354

  V1^2 = 0.9383, V2^2 = 0.0617

  Important amplitudes:
      occ i      occ j       vir a       vir b          v   
    ---------------------------------------------------------
     1 (B2) A               5 (B1) A                 -0.6576
     1 (B2) A               6 (B1) A                  0.1084
    ---------------------------------------------------------

  Density matrix analysis:
  ------------------------
  NOs
    Occupation of frontier NOs:
       0.9839   0.9963
    Number of electrons: 18.000000
    Number of unpaired electrons: n_u =  2.36091, n_u,nl =  2.03099
    NO participation ratio (PR_NO):  2.831308
  
  
  Mulliken Population Analysis
  Atom      Charge (e)              h+              e-           Del q
  --------------------------------------------------------------------
   1 C       -0.527032        0.557182       -0.706333       -0.149151
   2 C       -0.527032        0.557182       -0.706333       -0.149151
   3 H        0.170631        0.088454       -0.054489        0.033965
   4 H        0.170631        0.088454       -0.054489        0.033965
   5 H        0.126399        0.102595       -0.003624        0.098971
   6 H        0.126399        0.102595       -0.003624        0.098971
   7 H       -0.539995        0.057741       -0.025311        0.032430
  --------------------------------------------------------------------
  Sum:       -1.000000        1.554203       -1.554203       -0.000000
  
  Multipole moment analysis of the density matrix
    Molecular charge:                      -1.000000
    Number of electrons:                   18.000000
      Center of electronic charge [Ang]: [  0.000000,  -0.000000,   0.182176]
    Total nuclear charge:                  17.000000
      Center of nuclear charge [Ang]:    [ -0.000000,   0.000000,   0.000000]
    Dipole moment [D]:                     15.750472
      Cartesian components [D]:          [ -0.000000,   0.000000, -15.750472]
    RMS size of the density [Ang]:         1.926767
      Cartesian components [Ang]:        [  1.215274,   0.661186,   1.341035]
  
  Exciton analysis of the difference density matrix
    <r_h> [Ang]:                  [ -0.000000,  -0.000000,  -0.046043]
    <r_e> [Ang]:                  [  0.000000,  -0.000000,   0.685332]
    |<r_e - r_h>| [Ang]:            0.731375
    Hole size [Ang]:                1.901080
      Cartesian components [Ang]: [  1.138628,   0.939978,   1.197527]
    Electron size [Ang]:            4.255462
      Cartesian components [Ang]: [  2.925830,   1.650583,   2.612289]

  Transition density matrix analysis:
  -----------------------------------
  
  CT numbers (Mulliken)
    omega =     0.9081
    <Phe> =    -0.0003
  
  Exciton analysis of the transition density matrix
    Trans. dipole moment [D]:             0.000000
      Cartesian components [D]:         [  0.000000,  -0.000000,  -0.000000]
    <r_h> [Ang]:                        [ -0.000000,  -0.000000,  -0.180939]
    <r_e> [Ang]:                        [  0.000000,  -0.000000,   1.032239]
    |<r_e - r_h>| [Ang]:                  1.213179
    Hole size [Ang]:                      1.280638
      Cartesian components [Ang]:       [  0.764232,   0.882163,   0.527040]
    Electron size [Ang]:                  5.103720
      Cartesian components [Ang]:       [  3.551022,   1.986516,   3.080902]
    RMS electron-hole separation [Ang]:   5.397484
      Cartesian components [Ang]:       [  3.628578,   2.172689,   3.353458]
    Covariance(r_h, r_e) [Ang^2]:         0.013478
    Correlation coefficient:              0.002062
    Center-of-mass size [Ang]:            2.632249
      Cartesian components [Ang]:       [  1.818037,   1.087237,   1.562496]

  Decomposition into state-averaged NTOs
    H- 0 -> L+ 4:  0.4454 ( 39.7%)
    H- 0 -> L+ 5: -0.3719 ( 27.7%)
    H- 0 -> L+ 1:  0.2955 ( 17.5%)
    H- 0 -> L+ 2:  0.1720 (  5.9%)
                   omega =  90.8%
  ----------------------------------------------------------------------------


  Excited state 6 (singlet, A2)                                    [converged]
  ----------------------------------------------------------------------------
  Term symbol:  6 (1) A2                                    R^2 =  2.49052e-09

  Total energy:                                            -78.4944669004 a.u.
  Excitation energy:                                               8.843224 eV

  Osc. strength:                                                      0.000000
  Trans. dip. moment [a.u.]:           [   0.000000,   -0.000000,   -0.000000]
  <i|r^2|0> [a.u.]:                    [  -0.000000,   -0.000000,   -0.000000]

  Dip. moment [a.u.]:                  [  -0.000000,    0.000000,   -3.667952]
  Total dipole [Debye]:                                               9.323006
  <r^2> [a.u.]:                        [  94.632633,   28.720901,   96.545468]
  Total <r^2> [a.u.]:                                               219.899002

  V1^2 = 0.9416, V2^2 = 0.0584

  Important amplitudes:
      occ i      occ j       vir a       vir b          v   
    ---------------------------------------------------------
     1 (B2) A               6 (B1) A                  0.6349
     1 (B2) A               4 (B1) A                 -0.1538
    ---------------------------------------------------------

  Density matrix analysis:
  ------------------------
  NOs
    Occupation of frontier NOs:
       0.9856   0.9873
    Number of electrons: 18.000000
    Number of unpaired electrons: n_u =  2.37440, n_u,nl =  2.03456
    NO participation ratio (PR_NO):  2.883441
  
  
  Mulliken Population Analysis
  Atom      Charge (e)              h+              e-           Del q
  --------------------------------------------------------------------
   1 C       -0.510989        0.552748       -0.685856       -0.133108
   2 C       -0.510989        0.552748       -0.685856       -0.133108
   3 H        0.183996        0.071506       -0.024176        0.047330
   4 H        0.183996        0.071506       -0.024176        0.047330
   5 H        0.112722        0.104068       -0.018773        0.085294
   6 H        0.112722        0.104068       -0.018773        0.085294
   7 H       -0.571458        0.037289       -0.036321        0.000968
  --------------------------------------------------------------------
  Sum:       -1.000000        1.493931       -1.493931       -0.000000
  
  Multipole moment analysis of the density matrix
    Molecular charge:                      -1.000000
    Number of electrons:                   18.000000
      Center of electronic charge [Ang]: [  0.000000,  -0.000000,   0.107833]
    Total nuclear charge:                  17.000000
      Center of nuclear charge [Ang]:    [ -0.000000,   0.000000,   0.000000]
    Dipole moment [D]:                     9.323003
      Cartesian components [D]:          [ -0.000000,   0.000000,  -9.323003]
    RMS size of the density [Ang]:         1.846448
      Cartesian components [Ang]:        [  1.213348,   0.668442,   1.220796]
  
  Exciton analysis of the difference density matrix
    <r_h> [Ang]:                  [ -0.000000,  -0.000000,  -0.102034]
    <r_e> [Ang]:                  [  0.000000,  -0.000000,  -0.236884]
    |<r_e - r_h>| [Ang]:            0.134850
    Hole size [Ang]:                1.915708
      Cartesian components [Ang]: [  1.153991,   0.964726,   1.186400]
    Electron size [Ang]:            3.908838
      Cartesian components [Ang]: [  2.971934,   1.721068,   1.866695]

  Transition density matrix analysis:
  -----------------------------------
  
  CT numbers (Mulliken)
    omega =     0.9108
    <Phe> =    -0.0026
  
  Exciton analysis of the transition density matrix
    Trans. dipole moment [D]:             0.000000
      Cartesian components [D]:         [  0.000000,  -0.000000,  -0.000000]
    <r_h> [Ang]:                        [  0.000000,  -0.000000,  -0.183373]
    <r_e> [Ang]:                        [  0.000000,  -0.000000,  -0.404632]
    |<r_e - r_h>| [Ang]:                  0.221260
    Hole size [Ang]:                      1.277270
      Cartesian components [Ang]:       [  0.766672,   0.878672,   0.521122]
    Electron size [Ang]:                  4.574229
      Cartesian components [Ang]:       [  3.538264,   2.028092,   2.071498]
    RMS electron-hole separation [Ang]:   4.748397
      Cartesian components [Ang]:       [  3.615349,   2.206031,   2.147080]
    Covariance(r_h, r_e) [Ang^2]:         0.028337
    Correlation coefficient:              0.004850
    Center-of-mass size [Ang]:            2.377586
      Cartesian components [Ang]:       [  1.812695,   1.107234,   1.068216]

  Decomposition into state-averaged NTOs
    H- 0 -> L+ 2:  0.5267 ( 55.5%)
    H- 0 -> L+ 4: -0.3345 ( 22.4%)
    H- 0 -> L+ 5: -0.2319 ( 10.8%)
    H- 0 -> L+ 1: -0.0959 (  1.8%)
                   omega =  91.1%
  ----------------------------------------------------------------------------


  Excited state 7 (singlet, A2)                                    [converged]
  ----------------------------------------------------------------------------
  Term symbol:  7 (1) A2                                    R^2 =  2.43587e-08

  Total energy:                                            -78.4795286490 a.u.
  Excitation energy:                                               9.249714 eV

  Osc. strength:                                                      0.000000
  Trans. dip. moment [a.u.]:           [  -0.000000,   -0.000000,   -0.000000]
  <i|r^2|0> [a.u.]:                    [   0.000000,    0.000000,    0.000000]

  Dip. moment [a.u.]:                  [  -0.000000,   -0.000000,   -3.953202]
  Total dipole [Debye]:                                              10.048039
  <r^2> [a.u.]:                        [  64.210220,   61.111242,   93.979536]
  Total <r^2> [a.u.]:                                               219.300997

  V1^2 = 0.9282, V2^2 = 0.0718

  Important amplitudes:
      occ i      occ j       vir a       vir b          v   
    ---------------------------------------------------------
     3 (B1) A               2 (B2) A                 -0.6670
     3 (B1) A               3 (B2) A                 -0.1350
    ---------------------------------------------------------

  Density matrix analysis:
  ------------------------
  NOs
    Occupation of frontier NOs:
       0.9968   1.0216
    Number of electrons: 18.000000
    Number of unpaired electrons: n_u =  2.50705, n_u,nl =  2.08085
    NO participation ratio (PR_NO):  3.186447
  
  
  Mulliken Population Analysis
  Atom      Charge (e)              h+              e-           Del q
  --------------------------------------------------------------------
   1 C       -0.718086        0.312889       -0.653095       -0.340206
   2 C       -0.718086        0.312889       -0.653095       -0.340206
   3 H        0.292696        0.179892       -0.023862        0.156030
   4 H        0.292696        0.179892       -0.023862        0.156030
   5 H        0.210665        0.193623       -0.010385        0.183237
   6 H        0.210665        0.193623       -0.010385        0.183237
   7 H       -0.570549        0.040718       -0.038842        0.001876
  --------------------------------------------------------------------
  Sum:       -1.000000        1.413525       -1.413525        0.000000
  
  Multipole moment analysis of the density matrix
    Molecular charge:                      -1.000000
    Number of electrons:                   18.000000
      Center of electronic charge [Ang]: [  0.000000,   0.000000,   0.116219]
    Total nuclear charge:                  17.000000
      Center of nuclear charge [Ang]:    [ -0.000000,   0.000000,   0.000000]
    Dipole moment [D]:                     10.048036
      Cartesian components [D]:          [ -0.000000,  -0.000000, -10.048036]
    RMS size of the density [Ang]:         1.843418
      Cartesian components [Ang]:        [  0.999464,   0.975047,   1.203556]
  
  Exciton analysis of the difference density matrix
    <r_h> [Ang]:                  [ -0.000000,  -0.000000,  -0.037188]
    <r_e> [Ang]:                  [  0.000000,  -0.000000,  -0.072921]
    |<r_e - r_h>| [Ang]:            0.035733
    Hole size [Ang]:                2.033432
      Cartesian components [Ang]: [  1.278352,   0.819438,   1.352473]
    Electron size [Ang]:            4.041063
      Cartesian components [Ang]: [  1.880072,   3.038938,   1.886896]

  Transition density matrix analysis:
  -----------------------------------
  
  CT numbers (Mulliken)
    omega =     0.9130
    <Phe> =    -0.0002
  
  Exciton analysis of the transition density matrix
    Trans. dipole moment [D]:             0.000000
      Cartesian components [D]:         [ -0.000000,  -0.000000,  -0.000000]
    <r_h> [Ang]:                        [ -0.000000,  -0.000000,  -0.123879]
    <r_e> [Ang]:                        [  0.000000,  -0.000000,  -0.176268]
    |<r_e - r_h>| [Ang]:                  0.052389
    Hole size [Ang]:                      1.523527
      Cartesian components [Ang]:       [  1.127870,   0.414186,   0.936747]
    Electron size [Ang]:                  4.612854
      Cartesian components [Ang]:       [  2.100508,   3.556558,   2.053578]
    RMS electron-hole separation [Ang]:   4.834529
      Cartesian components [Ang]:       [  2.335941,   3.580347,   2.257691]
    Covariance(r_h, r_e) [Ang^2]:         0.114816
    Correlation coefficient:              0.016337
    Center-of-mass size [Ang]:            2.440758
      Cartesian components [Ang]:       [  1.215712,   1.790421,   1.128598]

  Decomposition into state-averaged NTOs
    H- 3 -> L+ 3: -0.6752 ( 91.2%)
                   omega =  91.3%
  ----------------------------------------------------------------------------


  Excited state 8 (singlet, A2)                                    [converged]
  ----------------------------------------------------------------------------
  Term symbol:  8 (1) A2                                    R^2 =  1.01366e-07

  Total energy:                                            -78.4673440983 a.u.
  Excitation energy:                                               9.581273 eV

  Osc. strength:                                                      0.000000
  Trans. dip. moment [a.u.]:           [   0.000000,   -0.000000,   -0.000000]
  <i|r^2|0> [a.u.]:                    [   0.000000,    0.000000,    0.000000]

  Dip. moment [a.u.]:                  [   0.000000,   -0.000000,   -3.985260]
  Total dipole [Debye]:                                              10.129522
  <r^2> [a.u.]:                        [  56.859785,   22.507173,   85.092654]
  Total <r^2> [a.u.]:                                               164.459611

  V1^2 = 0.9520, V2^2 = 0.0480

  Important amplitudes:
      occ i      occ j       vir a       vir b          v   
    ---------------------------------------------------------
     4 (A1) A               2 (A2) A                 -0.5646
     4 (A1) A               3 (A2) A                 -0.2934
    ---------------------------------------------------------

  Density matrix analysis:
  ------------------------
  NOs
    Occupation of frontier NOs:
       0.9851   1.0098
    Number of electrons: 18.000000
    Number of unpaired electrons: n_u =  2.41788, n_u,nl =  2.04377
    NO participation ratio (PR_NO):  2.978927
  
  
  Mulliken Population Analysis
  Atom      Charge (e)              h+              e-           Del q
  --------------------------------------------------------------------
   1 C       -0.513483        0.441712       -0.577314       -0.135602
   2 C       -0.513483        0.441712       -0.577314       -0.135602
   3 H        0.201047        0.073536       -0.009154        0.064382
   4 H        0.201047        0.073536       -0.009154        0.064382
   5 H        0.098390        0.077197       -0.006235        0.070962
   6 H        0.098390        0.077197       -0.006235        0.070962
   7 H       -0.571909        0.008892       -0.008376        0.000516
  --------------------------------------------------------------------
  Sum:       -1.000000        1.193781       -1.193781        0.000000
  
  Multipole moment analysis of the density matrix
    Molecular charge:                      -1.000000
    Number of electrons:                   18.000000
      Center of electronic charge [Ang]: [ -0.000000,   0.000000,   0.117162]
    Total nuclear charge:                  17.000000
      Center of nuclear charge [Ang]:    [ -0.000000,   0.000000,   0.000000]
    Dipole moment [D]:                     10.129519
      Cartesian components [D]:          [  0.000000,  -0.000000, -10.129519]
    RMS size of the density [Ang]:         1.595241
      Cartesian components [Ang]:        [  0.940519,   0.591732,   1.144584]
  
  Exciton analysis of the difference density matrix
    <r_h> [Ang]:                  [ -0.000000,   0.000000,  -0.136934]
    <r_e> [Ang]:                  [ -0.000000,   0.000000,  -0.165033]
    |<r_e - r_h>| [Ang]:            0.028100
    Hole size [Ang]:                1.521713
      Cartesian components [Ang]: [  1.135921,   0.590181,   0.822787]
    Electron size [Ang]:            1.971720
      Cartesian components [Ang]: [  1.347747,   1.197024,   0.798995]

  Transition density matrix analysis:
  -----------------------------------
  
  CT numbers (Mulliken)
    omega =     0.9205
    <Phe> =    -0.0154
  
  Exciton analysis of the transition density matrix
    Trans. dipole moment [D]:             0.000000
      Cartesian components [D]:         [  0.000000,  -0.000000,  -0.000000]
    <r_h> [Ang]:                        [  0.000000,  -0.000000,  -0.146030]
    <r_e> [Ang]:                        [ -0.000000,   0.000000,  -0.187689]
    |<r_e - r_h>| [Ang]:                  0.041659
    Hole size [Ang]:                      1.297511
      Cartesian components [Ang]:       [  1.071598,   0.414727,   0.602672]
    Electron size [Ang]:                  2.046720
      Cartesian components [Ang]:       [  1.416250,   1.268540,   0.757698]
    RMS electron-hole separation [Ang]:   2.409144
      Cartesian components [Ang]:       [  1.755652,   1.335192,   0.968980]
    Covariance(r_h, r_e) [Ang^2]:         0.035178
    Correlation coefficient:              0.013247
    Center-of-mass size [Ang]:            1.218909
      Cartesian components [Ang]:       [  0.898033,   0.667017,   0.484111]

  Decomposition into state-averaged NTOs
    H- 2 -> L+ 0:  0.6738 ( 90.8%)
                   omega =  92.0%
  ----------------------------------------------------------------------------


  Excited state 9 (singlet, A2)                                    [converged]
  ----------------------------------------------------------------------------
  Term symbol:  9 (1) A2                                    R^2 =  5.34883e-10

  Total energy:                                            -78.4621073439 a.u.
  Excitation energy:                                               9.723772 eV

  Osc. strength:                                                      0.000000
  Trans. dip. moment [a.u.]:           [  -0.000000,   -0.000000,    0.000000]
  <i|r^2|0> [a.u.]:                    [  -0.000000,    0.000000,    0.000000]

  Dip. moment [a.u.]:                  [  -0.000000,    0.000000,   10.581624]
  Total dipole [Debye]:                                              26.895810
  <r^2> [a.u.]:                        [ 121.700996,   84.178450,   72.286069]
  Total <r^2> [a.u.]:                                               278.165515

  V1^2 = 0.0001, V2^2 = 0.9999

  Important amplitudes:
      occ i      occ j       vir a       vir b          v   
    ---------------------------------------------------------
     5 (A1) A   5 (A1) B    4 (B1) A    2 (B2) B      0.3535
     3 (B1) A               2 (B2) A                 -0.0040
    ---------------------------------------------------------

  Density matrix analysis:
  ------------------------
  NOs
    Occupation of frontier NOs:
       1.0002   1.0006
    Number of electrons: 18.000000
    Number of unpaired electrons: n_u =  2.41229, n_u,nl =  2.07456
    NO participation ratio (PR_NO):  2.884332
  
  
  Mulliken Population Analysis
  Atom      Charge (e)              h+              e-           Del q
  --------------------------------------------------------------------
   1 C       -1.200663        0.164564       -0.987346       -0.822783
   2 C       -1.200663        0.164564       -0.987346       -0.822783
   3 H        0.165255        0.023863        0.004726        0.028590
   4 H        0.165255        0.023863        0.004726        0.028590
   5 H        0.010932        0.000853       -0.017349       -0.016496
   6 H        0.010932        0.000853       -0.017349       -0.016496
   7 H        1.048953        1.621392       -0.000014        1.621378
  --------------------------------------------------------------------
  Sum:       -1.000000        1.999951       -1.999951       -0.000000
  
  Multipole moment analysis of the density matrix
    Molecular charge:                      -1.000000
    Number of electrons:                   18.000000
      Center of electronic charge [Ang]: [  0.000000,  -0.000000,  -0.311086]
    Total nuclear charge:                  17.000000
      Center of nuclear charge [Ang]:    [ -0.000000,   0.000000,   0.000000]
    Dipole moment [D]:                     26.895802
      Cartesian components [D]:          [ -0.000000,   0.000000,  26.895802]
    RMS size of the density [Ang]:         2.056863
      Cartesian components [Ang]:        [  1.375979,   1.144367,   1.013800]
  
  Exciton analysis of the difference density matrix
    <r_h> [Ang]:                  [ -0.000000,  -0.000000,   2.643056]
    <r_e> [Ang]:                  [  0.000000,  -0.000000,  -1.228043]
    |<r_e - r_h>| [Ang]:            3.871099
    Hole size [Ang]:                1.747170
      Cartesian components [Ang]: [  0.893931,   0.859176,   1.230978]
    Electron size [Ang]:            5.039299
      Cartesian components [Ang]: [  3.192501,   3.165538,   2.276367]

  Transition density matrix analysis:
  -----------------------------------
  
  CT numbers (Mulliken)
    omega =     0.0001
    <Phe> =     0.1602
  
  Exciton analysis of the transition density matrix
    Trans. dipole moment [D]:             0.000000
      Cartesian components [D]:         [ -0.000000,  -0.000000,   0.000000]
    <r_h> [Ang]:                        [  0.000000,  -0.000000,   0.675650]
    <r_e> [Ang]:                        [  0.000000,   0.000000,  -0.728578]
    |<r_e - r_h>| [Ang]:                  1.404229
    Hole size [Ang]:                      2.894741
      Cartesian components [Ang]:       [  1.509842,   1.545113,   1.926791]
    Electron size [Ang]:                  4.850956
      Cartesian components [Ang]:       [  2.995292,   3.150444,   2.152835]
    RMS electron-hole separation [Ang]:   5.743631
      Cartesian components [Ang]:       [  3.339655,   3.438315,   3.164488]
    Covariance(r_h, r_e) [Ang^2]:         0.446928
    Correlation coefficient:              0.031827
    Center-of-mass size [Ang]:            2.863789
      Cartesian components [Ang]:       [  1.684451,   1.789087,   1.470741]

  Decomposition into state-averaged NTOs
                   omega =   0.0%
  ----------------------------------------------------------------------------


  Excited state 10 (singlet, A2)                                    [converged]
  ----------------------------------------------------------------------------
  Term symbol:  10 (1) A2                                   R^2 =  1.84783e-06

  Total energy:                                            -78.4392045102 a.u.
  Excitation energy:                                              10.346990 eV

  Osc. strength:                                                      0.000000
  Trans. dip. moment [a.u.]:           [   0.000000,   -0.000000,    0.000000]
  <i|r^2|0> [a.u.]:                    [  -0.000000,   -0.000000,   -0.000000]

  Dip. moment [a.u.]:                  [  -0.000000,   -0.000000,   -4.395204]
  Total dipole [Debye]:                                              11.171496
  <r^2> [a.u.]:                        [  79.192225,   23.716072,  105.307284]
  Total <r^2> [a.u.]:                                               208.215581

  V1^2 = 0.9440, V2^2 = 0.0560

  Important amplitudes:
      occ i      occ j       vir a       vir b          v   
    ---------------------------------------------------------
     1 (B2) A               7 (B1) A                  0.6583
     1 (B2) A               5 (B1) A                  0.1052
    ---------------------------------------------------------

  Density matrix analysis:
  ------------------------
  NOs
    Occupation of frontier NOs:
       0.9826   0.9916
    Number of electrons: 18.000000
    Number of unpaired electrons: n_u =  2.36014, n_u,nl =  2.03113
    NO participation ratio (PR_NO):  2.846427
  
  
  Mulliken Population Analysis
  Atom      Charge (e)              h+              e-           Del q
  --------------------------------------------------------------------
   1 C       -0.721710        0.529341       -0.873170       -0.343829
   2 C       -0.721710        0.529341       -0.873170       -0.343829
   3 H        0.293165        0.081988        0.074511        0.156500
   4 H        0.293165        0.081988        0.074511        0.156500
   5 H        0.207990        0.108542        0.072021        0.180562
   6 H        0.207990        0.108542        0.072021        0.180562
   7 H       -0.558892        0.039144       -0.025611        0.013533
  --------------------------------------------------------------------
  Sum:       -1.000000        1.478886       -1.478886        0.000000
  
  Multipole moment analysis of the density matrix
    Molecular charge:                      -1.000000
    Number of electrons:                   18.000000
      Center of electronic charge [Ang]: [  0.000000,   0.000000,   0.129213]
    Total nuclear charge:                  17.000000
      Center of nuclear charge [Ang]:    [ -0.000000,   0.000000,   0.000000]
    Dipole moment [D]:                     11.171493
      Cartesian components [D]:          [ -0.000000,  -0.000000, -11.171493]
    RMS size of the density [Ang]:         1.795144
      Cartesian components [Ang]:        [  1.109957,   0.607416,   1.273414]
  
  Exciton analysis of the difference density matrix
    <r_h> [Ang]:                  [ -0.000000,  -0.000000,  -0.096478]
    <r_e> [Ang]:                  [  0.000000,  -0.000000,   0.027527]
    |<r_e - r_h>| [Ang]:            0.124004
    Hole size [Ang]:                1.865208
      Cartesian components [Ang]: [  1.121838,   0.942009,   1.154599]
    Electron size [Ang]:            3.612290
      Cartesian components [Ang]: [  2.431434,   1.411295,   2.268262]

  Transition density matrix analysis:
  -----------------------------------
  
  CT numbers (Mulliken)
    omega =     0.9126
    <Phe> =    -0.0019
  
  Exciton analysis of the transition density matrix
    Trans. dipole moment [D]:             0.000000
      Cartesian components [D]:         [  0.000000,  -0.000000,   0.000000]
    <r_h> [Ang]:                        [  0.000000,  -0.000000,  -0.183540]
    <r_e> [Ang]:                        [  0.000000,  -0.000000,   0.000405]
    |<r_e - r_h>| [Ang]:                  0.183945
    Hole size [Ang]:                      1.275820
      Cartesian components [Ang]:       [  0.763414,   0.880222,   0.519737]
    Electron size [Ang]:                  4.202107
      Cartesian components [Ang]:       [  2.847775,   1.637179,   2.620598]
    RMS electron-hole separation [Ang]:   4.392482
      Cartesian components [Ang]:       [  2.944507,   1.858646,   2.677539]
    Covariance(r_h, r_e) [Ang^2]:         0.012679
    Correlation coefficient:              0.002365
    Center-of-mass size [Ang]:            2.197202
      Cartesian components [Ang]:       [  1.476069,   0.929479,   1.336033]

  Decomposition into state-averaged NTOs
    H- 0 -> L+ 1:  0.5905 ( 69.7%)
    H- 0 -> L+ 5:  0.2304 ( 10.6%)
    H- 0 -> L+ 4: -0.2223 (  9.9%)
                   omega =  91.3%
  ----------------------------------------------------------------------------


--------------------------------------------------------------------------------
  Time of ADC calculation:  CPU 137.33 s  wall 39.85 s
================================================================================
 
 --------------------------------------------------------------
             Orbital Energies (a.u.) and Symmetries
 --------------------------------------------------------------
 
 Alpha MOs, Restricted
 -- Occupied --                  
-11.072 -11.070  -0.878  -0.620  -0.495  -0.405  -0.349  -0.214
  1 A1    1 B1    2 A1    2 B1    3 A1    4 A1    3 B1    1 B2                 
 -0.036
  5 A1                                                                         
 -- Virtual --                   
  0.132   0.153   0.157   0.159   0.171   0.172   0.248   0.265
  4 B1    2 B2    6 A1    1 A2    7 A1    5 B1    8 A1    6 B1                 
  0.274   0.317   0.326   0.338   0.364   0.396   0.422   0.465
  2 A2    9 A1    7 B1    3 B2   10 A1    8 B1    3 A2   11 A1                 
  0.500   0.503   0.636   0.665   0.852   0.950   1.022   1.033
 12 A1    9 B1   10 B1   11 B1   13 A1   14 A1   15 A1   16 A1                 
  1.048   1.091   1.101   1.113   1.133   1.218   1.236   1.279
  4 B2   12 B1    4 A2   17 A1   13 B1   14 B1   18 A1    5 B2                 
  1.445   1.449   1.488   1.514   1.772   1.778   1.870   1.880
  6 B2    5 A2   15 B1   16 B1   19 A1   17 B1   20 A1    7 B2                 
  1.929   1.970   2.015   2.077   2.101   2.158   2.185   2.228
 18 B1   21 A1    6 A2   19 B1    8 B2   22 A1    9 B2   23 A1                 
  2.334   2.462   2.577   2.617   2.717   2.745   2.962   2.989
  7 A2   20 B1    8 A2   24 A1   21 B1   22 B1   25 A1   26 A1                 
  3.424   3.508
 23 B1   24 B1                                                                 
 
 Beta MOs, Restricted
 -- Occupied --                  
-11.072 -11.070  -0.878  -0.620  -0.495  -0.405  -0.349  -0.214
  1 A1    1 B1    2 A1    2 B1    3 A1    4 A1    3 B1    1 B2                 
 -0.036
  5 A1                                                                         
 -- Virtual --                   
  0.132   0.153   0.157   0.159   0.171   0.172   0.248   0.265
  4 B1    2 B2    6 A1    1 A2    7 A1    5 B1    8 A1    6 B1                 
  0.274   0.317   0.326   0.338   0.364   0.396   0.422   0.465
  2 A2    9 A1    7 B1    3 B2   10 A1    8 B1    3 A2   11 A1                 
  0.500   0.503   0.636   0.665   0.852   0.950   1.022   1.033
 12 A1    9 B1   10 B1   11 B1   13 A1   14 A1   15 A1   16 A1                 
  1.048   1.091   1.101   1.113   1.133   1.218   1.236   1.279
  4 B2   12 B1    4 A2   17 A1   13 B1   14 B1   18 A1    5 B2                 
  1.445   1.449   1.488   1.514   1.772   1.778   1.870   1.880
  6 B2    5 A2   15 B1   16 B1   19 A1   17 B1   20 A1    7 B2                 
  1.929   1.970   2.015   2.077   2.101   2.158   2.185   2.228
 18 B1   21 A1    6 A2   19 B1    8 B2   22 A1    9 B2   23 A1                 
  2.334   2.462   2.577   2.617   2.717   2.745   2.962   2.989
  7 A2   20 B1    8 A2   24 A1   21 B1   22 B1   25 A1   26 A1                 
  3.424   3.508
 23 B1   24 B1                                                                 
 --------------------------------------------------------------
 
          Ground-State Mulliken Net Atomic Charges

     Atom                 Charge (a.u.)
  ----------------------------------------
      1 C                    -0.345287
      2 C                    -0.345287
      3 H                     0.139005
      4 H                     0.139005
      5 H                     0.019800
      6 H                     0.019800
      7 H                    -0.627037
  ----------------------------------------
  Sum of atomic charges =    -1.000000

 -----------------------------------------------------------------
                    Cartesian Multipole Moments
 -----------------------------------------------------------------
    Charge (ESU x 10^10)
                -4.8032
    Dipole Moment (Debye)
         X       0.0000      Y       0.0000      Z     -10.7811
       Tot      10.7811
    Quadrupole Moments (Debye-Ang)
        XX     -21.1689     XY      -0.0000     YY     -23.5903
        XZ       0.0000     YZ      -0.0000     ZZ     -55.9269
    Octopole Moments (Debye-Ang^2)
       XXX       0.0000    XXY       0.0000    XYY       0.0000
       YYY      -0.0000    XXZ      -5.9516    XYZ       0.0000
       YYZ     -10.6005    XZZ       0.0000    YZZ       0.0000
       ZZZ    -118.7067
    Hexadecapole Moments (Debye-Ang^3)
      XXXX    -133.1003   XXXY      -0.0000   XXYY     -31.8257
      XYYY      -0.0000   YYYY     -64.1495   XXXZ      -0.0000
      XXYZ      -0.0000   XYYZ       0.0000   YYYZ       0.0000
      XXZZ     -83.5288   XYZZ      -0.0000   YYZZ     -74.5111
      XZZZ       0.0000   YZZZ       0.0000   ZZZZ    -622.8561
 -----------------------------------------------------------------
 Total job time:  122.66s(wall), 182.46s(cpu) 
 Sun Mar 27 17:10:50 2022

        *************************************************************
        *                                                           *
        *  Thank you very much for using Q-Chem.  Have a nice day.  *
        *                                                           *
        *************************************************************


