/src/tsommerfeld/qchem/exe/qcprog.exe .input1.388889.1523.qcin.1 /src/jdavis/qchem.scratch/qchem1523/

                  Welcome to Q-Chem
     A Quantum Leap Into The Future Of Chemistry


 Q-Chem 5.4 (devel), Q-Chem, Inc., Pleasanton, CA (2021)

 E. Epifanovsky,  A. T. B. Gilbert,  Xintian Feng,  Joonho Lee,  Yuezhi Mao,  
 N. Mardirossian,  P. Pokhilko,  A. White,  M. Wormit,  M. P. Coons,  
 A. L. Dempwolff,  Zhengting Gan,  D. Hait,  P. R. Horn,  L. D. Jacobson,  
 I. Kaliman,  J. Kussmann,  A. W. Lange,  Ka Un Lao,  D. S. Levine,  Jie Liu,  
 S. C. McKenzie,  A. F. Morrison,  K. Nanda,  F. Plasser,  D. R. Rehn,  
 M. L. Vidal,  Zhi-Qiang You,  Ying Zhu,  B. Alam,  B. Albrecht,  
 A. Aldossary,  E. Alguire,  J. H. Andersen,  D. Barton,  K. Begam,  A. Behn,  
 Y. A. Bernard,  E. J. Berquist,  H. Burton,  A. Carreras,  K. Carter-Fenk,  
 R. Chakraborty,  A. D. Chien,  K. D. Closser,  V. Cofer-Shabica,  
 S. Dasgupta,  Jia Deng,  M. de Wergifosse,  M. Diedenhofen,  Hainam Do,  
 S. Ehlert,  Po-Tung Fang,  S. Fatehi,  Qingguo Feng,  T. Friedhoff,  
 J. Gayvert,  Qinghui Ge,  G. Gidofalvi,  M. Goldey,  J. Gomes,  
 C. Gonzalez-Espinoza,  S. Gulania,  A. Gunina,  M. W. D. Hanson-Heine,  
 P. H. P. Harbach,  A. W. Hauser,  M. F. Herbst,  M. Hernandez Vera,  
 M. Hodecker,  Z. C. Holden,  S. Houck,  Xunkun Huang,  Kerwin Hui,  
 B. C. Huynh,  M. Ivanov,  Hyunjun Ji,  Hanjie Jiang,  B. Kaduk,  S. Kaehler,  
 K. Khistyaev,  Jaehoon Kim,  P. Klunzinger,  Z. Koczor-Benda,  
 Joong Hoon Koh,  D. Kosenkov,  L. Koulias,  T. Kowalczyk,  C. M. Krauter,  
 K. Kue,  A. Kunitsa,  T. Kus,  A. Landau,  K. V. Lawler,  D. Lefrancois,  
 S. Lehtola,  Rain Li,  Yi-Pei Li,  Jiashu Liang,  M. Liebenthal,  
 Hung-Hsuan Lin,  You-Sheng Lin,  Fenglai Liu,  Kuan-Yu Liu,  
 M. Loipersberger,  A. Luenser,  A. Manjanath,  P. Manohar,  E. Mansoor,  
 S. F. Manzer,  Shan-Ping Mao,  A. V. Marenich,  T. Markovich,  S. Mason,  
 S. A. Maurer,  P. F. McLaughlin,  M. F. S. J. Menger,  J.-M. Mewes,  
 S. A. Mewes,  P. Morgante,  J. W. Mullinax,  K. J. Oosterbaan,  G. Paran,  
 Alexander C. Paul,  Suranjan K. Paul,  F. Pavosevic,  Zheng Pei,  S. Prager,  
 E. I. Proynov,  E. Ramos,  B. Rana,  A. E. Rask,  A. Rettig,  R. M. Richard,  
 F. Rob,  E. Rossomme,  T. Scheele,  M. Scheurer,  M. Schneider,  
 N. Sergueev,  S. M. Sharada,  W. Skomorowski,  D. W. Small,  C. J. Stein,  
 Yu-Chuan Su,  E. J. Sundstrom,  Zhen Tao,  J. Thirman,  T. Tsuchimochi,  
 N. M. Tubman,  S. P. Veccham,  O. Vydrov,  J. Wenzel,  J. Witte,  A. Yamada,  
 Kun Yao,  S. Yeganeh,  S. R. Yost,  A. Zech,  Igor Ying Zhang,  Xing Zhang,  
 Yu Zhang,  D. Zuev,  A. Aspuru-Guzik,  A. T. Bell,  N. A. Besley,  
 K. B. Bravaya,  B. R. Brooks,  D. Casanova,  Jeng-Da Chai,  S. Coriani,  
 C. J. Cramer,  A. E. DePrince, III,  R. A. DiStasio Jr.,  A. Dreuw,  
 B. D. Dunietz,  T. R. Furlani,  W. A. Goddard III,  S. Grimme,  
 S. Hammes-Schiffer,  T. Head-Gordon,  W. J. Hehre,  Chao-Ping Hsu,  
 T.-C. Jagau,  Yousung Jung,  A. Klamt,  Jing Kong,  D. S. Lambrecht,  
 WanZhen Liang,  N. J. Mayhall,  C. W. McCurdy,  J. B. Neaton,  
 C. Ochsenfeld,  J. A. Parkhill,  R. Peverati,  V. A. Rassolov,  Yihan Shao,  
 L. V. Slipchenko,  T. Stauch,  R. P. Steele,  J. E. Subotnik,  
 A. J. W. Thom,  A. Tkatchenko,  D. G. Truhlar,  T. Van Voorhis,  
 T. A. Wesolowski,  K. B. Whaley,  H. L. Woodcock III,  P. M. Zimmerman,  
 S. Faraji,  P. M. W. Gill,  M. Head-Gordon,  J. M. Herbert,  A. I. Krylov

 Additional authors for Version 5.4.1: 
 S. Kotaru,  Shaozhi Li,  Xiangyuan Li,  F. Matz,  A. Molle,  Haisheng Ren,  
 Yingli Su,  Hung-Yi Tsai,  C. Utku,  Fang Wang

 Contributors to earlier versions of Q-Chem not listed above: 
 R. D. Adamson,  B. Austin,  R. Baer,  J. Baker,  G. J. O. Beran,  
 K. Brandhorst,  S. T. Brown,  E. F. C. Byrd,  A. K. Chakraborty,  
 G. K. L. Chan,  Chun-Min Chang,  Yunqing Chen,  C.-L. Cheng,  
 Siu Hung Chien,  D. M. Chipman,  D. L. Crittenden,  H. Dachsel,  
 R. J. Doerksen,  A. D. Dutoi,  R. G. Edgar,  J. Fosso-Tande,  
 L. Fusti-Molnar,  D. Ghosh,  A. Ghysels,  A. Golubeva-Zadorozhnaya,  
 J. Gonthier,  M. S. Gordon,  S. R. Gwaltney,  G. Hawkins,  J. E. Herr,  
 A. Heyden,  S. Hirata,  E. G. Hohenstein,  G. Kedziora,  F. J. Keil,  
 C. Kelley,  Jihan Kim,  R. A. King,  R. Z. Khaliullin,  P. P. Korambath,  
 W. Kurlancheek,  A. Laurent,  A. M. Lee,  M. S. Lee,  S. V. Levchenko,  
 Ching Yeh Lin,  D. Liotard,  E. Livshits,  R. C. Lochan,  I. Lotan,  
 L. A. Martinez-Martinez,  P. E. Maslen,  N. Nair,  D. P. O'Neill,  
 D. Neuhauser,  E. Neuscamman,  C. M. Oana,  R. Olivares-Amaya,  R. Olson,  
 T. M. Perrine,  B. Peters,  P. A. Pieniazek,  A. Prociuk,  Y. M. Rhee,  
 J. Ritchie,  M. A. Rohrdanz,  E. Rosta,  N. J. Russ,  H. F. Schaefer III,  
 M. W. Schmidt,  N. E. Schultz,  S. Sharma,  N. Shenvi,  C. D. Sherrill,  
 A. C. Simmonett,  A. Sodt,  T. Stein,  D. Stuck,  K. S. Thanthiriwatte,  
 V. Vanovschi,  L. Vogt,  Tao Wang,  A. Warshel,  M. A. Watson,  
 C. F. Williams,  Q. Wu,  X. Xu,  Jun Yang,  W. Zhang,  Yan Zhao

 Please cite Q-Chem as follows:
 Y. Shao et al., Mol. Phys. 113, 184-215 (2015)
 DOI: 10.1080/00268976.2014.952696

 Q-Chem 5.4.1 for Intel X86 EM64T Linux

 Parts of Q-Chem use Armadillo 9.900.5 (Nocturnal Misbehaviour).
 http://arma.sourceforge.net/

 Q-Chem begins on Sun Mar 27 17:57:26 2022  

 Host: node01
0

     Scratch files written to /src/jdavis/qchem.scratch/qchem1523//
 Processing $rem in /src/tsommerfeld/qchem/config/preferences:
 Processing $rem in /home/jdavis/.qchemrc:

 Checking the input file for inconsistencies... 	...done.

--------------------------------------------------------------
User input:
--------------------------------------------------------------
$molecule
-1 1
C        -0.6645000000    0.0000000000   -0.1764707059
C         0.6645000000    0.0000000000   -0.1764707059
H        -1.1590800000    0.0000000000    0.7858782941
H         1.1590800000    0.0000000000    0.7858782941
H        -1.1590800000    0.0000000000   -1.1388187059
H         1.1590800000    0.0000000000   -1.1388187059
H         0.0000000000    0.0000000000    2.8235292941
$end

$rem
   METHOD adc(2)
   BASIS gen
   PURECART 11
   EE_STATES [0,10,0,0]
   scf_convergence 8
   ADC_DAVIDSON_MAXITER 120
   ADC_DAVIDSON_MAXSUBSPACE 200
   adc_nguess_singles 100
   THRESH 14
   S2THRESH 14
   adc_davidson_conv 5
   adc_davidson_thresh 14
   THREADS 10
   MEM_TOTAL 95000
   STATE_ANALYSIS TRUE
$end
$basis
C 1
S   9   1.00
      6.665000D+03           6.920000D-04
      1.000000D+03           5.329000D-03
      2.280000D+02           2.707700D-02
      6.471000D+01           1.017180D-01
      2.106000D+01           2.747400D-01
      7.495000D+00           4.485640D-01
      2.797000D+00           2.850740D-01
      5.215000D-01           1.520400D-02
      1.596000D-01          -3.191000D-03
S   9   1.00
      6.665000D+03          -1.460000D-04
      1.000000D+03          -1.154000D-03
      2.280000D+02          -5.725000D-03
      6.471000D+01          -2.331200D-02
      2.106000D+01          -6.395500D-02
      7.495000D+00          -1.499810D-01
      2.797000D+00          -1.272620D-01
      5.215000D-01           5.445290D-01
      1.596000D-01           5.804960D-01
S   1   1.00
      1.596000D-01           1.000000D+00
S   1   1.00
      0.0469000              1.0000000
P   4   1.00
      9.439000D+00           3.810900D-02
      2.002000D+00           2.094800D-01
      5.456000D-01           5.085570D-01
      1.517000D-01           4.688420D-01
P   1   1.00
      1.517000D-01           1.000000D+00
P   1   1.00
      0.0842778      1.0000000
P   1   1.00
      0.0421389      1.0000000
D   1   1.00
      5.500000D-01           1.0000000
****
C 2
S   9   1.00
      6.665000D+03           6.920000D-04
      1.000000D+03           5.329000D-03
      2.280000D+02           2.707700D-02
      6.471000D+01           1.017180D-01
      2.106000D+01           2.747400D-01
      7.495000D+00           4.485640D-01
      2.797000D+00           2.850740D-01
      5.215000D-01           1.520400D-02
      1.596000D-01          -3.191000D-03
S   9   1.00
      6.665000D+03          -1.460000D-04
      1.000000D+03          -1.154000D-03
      2.280000D+02          -5.725000D-03
      6.471000D+01          -2.331200D-02
      2.106000D+01          -6.395500D-02
      7.495000D+00          -1.499810D-01
      2.797000D+00          -1.272620D-01
      5.215000D-01           5.445290D-01
      1.596000D-01           5.804960D-01
S   1   1.00
      1.596000D-01           1.000000D+00
S   1   1.00
      0.0469000              1.0000000
P   4   1.00
      9.439000D+00           3.810900D-02
      2.002000D+00           2.094800D-01
      5.456000D-01           5.085570D-01
      1.517000D-01           4.688420D-01
P   1   1.00
      1.517000D-01           1.000000D+00
P   1   1.00
      0.0842778      1.0000000
P   1   1.00
      0.0421389      1.0000000
D   1   1.00
      5.500000D-01           1.0000000
****
H 3
cc-pVDZ
****
H 4
cc-pVDZ
****
H 5
cc-pVDZ
****
H 6
cc-pVDZ
****
H 7
aug-cc-pVDZ
****
$end
--------------------------------------------------------------
 ----------------------------------------------------------------
             Standard Nuclear Orientation (Angstroms)
    I     Atom           X                Y                Z
 ----------------------------------------------------------------
    1      C      -0.6645000000    -0.0000000000    -0.1764707059
    2      C       0.6645000000     0.0000000000    -0.1764707059
    3      H      -1.1590800000    -0.0000000000     0.7858782941
    4      H       1.1590800000     0.0000000000     0.7858782941
    5      H      -1.1590800000    -0.0000000000    -1.1388187059
    6      H       1.1590800000     0.0000000000    -1.1388187059
    7      H       0.0000000000     0.0000000000     2.8235292941
 ----------------------------------------------------------------
 Molecular Point Group                 C2v   NOp =  4
 Largest Abelian Subgroup              C2v   NOp =  4
 Nuclear Repulsion Energy =          36.36366470 hartrees
 There are        9 alpha and        9 beta electrons
 Requested basis set is non-standard
 There are 33 shells and 67 basis functions
 Total memory of 95000 MB is distributed as follows: 
   MEM_STATIC is set to 192 MB
   QALLOC/CCMAN JOB total memory use is  94808 MB
 Warning: actual memory use might exceed 95000 MB

 Total QAlloc Memory Limit  95000 MB
 Mega-Array Size       188 MB
 MEM_STATIC part       192 MB

                       Distance Matrix (Angstroms)
             C (  1)   C (  2)   H (  3)   H (  4)   H (  5)   H (  6)
   C (  2)  1.329000
   H (  3)  1.082000  2.061931
   H (  4)  2.061931  1.082000  2.318160
   H (  5)  1.082000  2.061931  1.924697  3.013026
   H (  6)  2.061931  1.082000  3.013026  1.924697  2.318160
   H (  7)  3.072712  3.072712  2.344246  2.344246  4.128398  4.128398

 
 A cutoff of  1.0D-14 yielded    561 shell pairs
 There are      2337 function pairs (      2484 Cartesian)
 Smallest overlap matrix eigenvalue = 2.20E-04

 Scale SEOQF with 1.000000e-01/1.000000e-01/1.000000e-01

 Standard Electronic Orientation quadrupole field applied
 Nucleus-field energy     =    -0.0000000009 hartrees
 ================ Generating on-the-fly SAD Guess ================
Attempting to make child job directory: /src/jdavis/qchem.scratch/qchem1523//Frg1/
Attempting to make child job directory: /src/jdavis/qchem.scratch/qchem1523//Frg2/
Creating input file /src/jdavis/qchem.scratch/qchem1523/Frg1.input
using default PutDataFrgm: nothing
calling putenv with: QCSCRATCH=/src/jdavis/qchem.scratch/qchem1523/ 
Spawning Job For Fragment 0
Done Job For Fragment 0
calling putenv with: QCSCRATCH=/src/jdavis/qchem.scratch 
calling putenv with: QCTHREADS=1 
Creating input file /src/jdavis/qchem.scratch/qchem1523/Frg2.input
using default PutDataFrgm: nothing
calling putenv with: QCSCRATCH=/src/jdavis/qchem.scratch/qchem1523/ 
Spawning Job For Fragment 1
Done Job For Fragment 1
calling putenv with: QCSCRATCH=/src/jdavis/qchem.scratch 
calling putenv with: QCTHREADS=1 
 Time for running child jobs:  CPU 1.77 s  wall 54.38 s
 ============= Method Specific SAD Guess Constructed =============
 Guess from on-the-fly superposition of atomic densities
 Warning: Energy on first SCF cycle will be non-variational
 A restricted Hartree-Fock SCF calculation will be
 performed using Pulay DIIS extrapolation
 SCF converges when DIIS error is below 1.0E-08
 using 10 threads for integral computing
 -------------------------------------------------------
 OpenMP Integral computing Module                
 Release: version 1.0, May 2013, Q-Chem Inc. Pittsburgh 
 -------------------------------------------------------
 ---------------------------------------
  Cycle       Energy         DIIS Error
 ---------------------------------------
    1     -78.8157145047      7.37E-02
    2     -78.4588352275      6.97E-03
    3     -78.5057804603      1.74E-03
    4     -78.5084926092      5.61E-04
    5     -78.5088213926      1.21E-04
    6     -78.5088486848      2.91E-05
    7     -78.5088512474      7.81E-06
    8     -78.5088514752      1.11E-06
    9     -78.5088514804      2.59E-07
   10     -78.5088514808      5.27E-08
   11     -78.5088514808      1.16E-08
   12     -78.5088514808      1.57E-09 Convergence criterion met
 ---------------------------------------
 SCF time:  CPU 11.25 s  wall 1.13 s
 SCF   energy in the final basis set = -78.50885148
 Total energy in the final basis set = -78.50885148
================================================================================
|                                                                              |
|                                 A D C  M A N                                 |
|                                                                              |
 ------------------------------------------------------------------------------ 
|                                                                              |
| Components:                                                                  |
|                                                                              |
| - libvmm - 1.3-trunk                                                         |
|   Authors:                                                                   |
|   Evgeny Epifanovsky, Ilya Kaliman                                           |
|                                                                              |
| - libtensor - 2.5-trunk                                                      |
|   Authors:                                                                   |
|   Evgeny Epifanovsky, Michael Wormit, Dmitry Zuev, Sam Manzer,               |
|   Ilya Kaliman                                                               |
|                                                                              |
| - libwfa - 1.1-trunk                                                         |
|   Authors:                                                                   |
|   Felix Plasser, Stefanie Mewes (Baeppler), Benjamin Thomitzni,              |
|   Michael Wormit, Feng Chen, Anna I. Krylov, Pavel Pokhilko                  |
|                                                                              |
| - libadc - 1.1-trunk                                                         |
|   Authors:                                                                   |
|   Michael Wormit, Adrian L. Dempwolff, Philipp H. P. Harbach,                |
|   Caroline Krauter, Dirk Rehn, Matthias Schneider, Jan Wenzel                |
|                                                                              |
| - adcman - 2.6-trunk                                                         |
|   Authors:                                                                   |
|   Michael Wormit, Adrian L. Dempwolff, Philipp H. P. Harbach,                |
|   Caroline Krauter, Daniel Lefrancois, Jan-Michael Mewes, Dirk Rehn,         |
|   Matthias Schneider, Jan Wenzel, Andreas Dreuw                              |
|                                                                              |
| Authors of earlier versions of ADCMAN:                                       |
| Andreas Dreuw, Jan Hendrik Starcke, Dirk Rehn, Michael Wormit                |
|                                                                              |
================================================================================

 
 Alpha MOs, Restricted
 -- Occupied --                  
-11.065 -11.063  -0.871  -0.613  -0.487  -0.398  -0.342  -0.208
  1 A1    1 B1    2 A1    2 B1    3 A1    4 A1    3 B1    1 B2                 
 -0.023
  5 A1                                                                         
 -- Virtual --                   
  0.185   0.198   0.224   0.226   0.232   0.251   0.315   0.337
  4 B1    6 A1    2 B2    1 A2    7 A1    5 B1    8 A1    2 A2                 
  0.351   0.439   0.470   0.484   0.503   0.508   0.518   0.550
  6 B1    9 A1    7 B1   10 A1   11 A1    8 B1    3 B2    9 B1                 
  0.551   0.601   0.704   0.778   0.978   1.011   1.078   1.098
 12 A1    3 A2   10 B1   11 B1   13 A1   14 A1   15 A1   12 B1                 
  1.157   1.192   1.251   1.284   1.299   1.305   1.305   1.346
 16 A1   13 B1   17 A1    4 B2   18 A1    5 B2   14 B1    4 A2                 
  1.456   1.459   1.461   1.637   1.793   1.868   1.905   1.913
  5 A2   15 B1    6 B2   16 B1   19 A1   17 B1    7 B2   20 A1                 
  1.955   2.038   2.047   2.113   2.140   2.193   2.248   2.278
 18 B1   21 A1    6 A2    8 B2   19 B1    9 B2   22 A1   23 A1                 
  2.351   2.503   2.584   2.663   2.734   2.764   3.015   3.043
  7 A2   20 B1    8 A2   24 A1   21 B1   22 B1   25 A1   26 A1                 
  3.442   3.519
 23 B1   24 B1                                                                 
 
 Beta MOs, Restricted
 -- Occupied --                  
-11.065 -11.063  -0.871  -0.613  -0.487  -0.398  -0.342  -0.208
  1 A1    1 B1    2 A1    2 B1    3 A1    4 A1    3 B1    1 B2                 
 -0.023
  5 A1                                                                         
 -- Virtual --                   
  0.185   0.198   0.224   0.226   0.232   0.251   0.315   0.337
  4 B1    6 A1    2 B2    1 A2    7 A1    5 B1    8 A1    2 A2                 
  0.351   0.439   0.470   0.484   0.503   0.508   0.518   0.550
  6 B1    9 A1    7 B1   10 A1   11 A1    8 B1    3 B2    9 B1                 
  0.551   0.601   0.704   0.778   0.978   1.011   1.078   1.098
 12 A1    3 A2   10 B1   11 B1   13 A1   14 A1   15 A1   12 B1                 
  1.157   1.192   1.251   1.284   1.299   1.305   1.305   1.346
 16 A1   13 B1   17 A1    4 B2   18 A1    5 B2   14 B1    4 A2                 
  1.456   1.459   1.461   1.637   1.793   1.868   1.905   1.913
  5 A2   15 B1    6 B2   16 B1   19 A1   17 B1    7 B2   20 A1                 
  1.955   2.038   2.047   2.113   2.140   2.193   2.248   2.278
 18 B1   21 A1    6 A2    8 B2   19 B1    9 B2   22 A1   23 A1                 
  2.351   2.503   2.584   2.663   2.734   2.764   3.015   3.043
  7 A2   20 B1    8 A2   24 A1   21 B1   22 B1   25 A1   26 A1                 
  3.442   3.519
 23 B1   24 B1                                                                 

--------------------------------------------------------------------------------
                                   HF Summary                                   
--------------------------------------------------------------------------------
  Energy:                                                  -78.5088514808 a.u.
  Dip. moment [a.u.]:                  [  -0.000000,    0.000000,   -4.347266]
  Total dipole [Debye]:                                              11.049649
  <r^2> [a.u.]:                        [  52.296837,   16.321529,   81.846854]
  Total <r^2> [a.u.]:                                               150.465221
--------------------------------------------------------------------------------

--------------------------------------------------------------------------------
                                 MP(2) Summary                                  
--------------------------------------------------------------------------------
  MP energy contribution:                                   -0.3063636933 a.u.
  Total energy:                                            -78.8152151741 a.u.
  Dip. moment [a.u.]:                  [  -0.000000,   -0.000000,   -4.240208]
  Total dipole [Debye]:                                              10.777535
  <r^2> [a.u.]:                        [  52.617489,   16.283592,   81.304515]
  Total <r^2> [a.u.]:                                               150.205596

  Density matrix analysis:
  ------------------------
  NOs
    Occupation of frontier NOs:
       0.0449   1.9359
    Number of electrons: 18.000000
    Number of unpaired electrons: n_u =  0.46060, n_u,nl =  0.05045
    NO participation ratio (PR_NO): 16.141188
  
  
  Mulliken Population Analysis
  Atom      Charge (e)              h+              e-           Del q
  --------------------------------------------------------------------
   1 C       -0.405304        0.088093       -0.112021       -0.023928
   2 C       -0.405304        0.088093       -0.112021       -0.023928
   3 H        0.181088        0.016510       -0.018843       -0.002333
   4 H        0.181088        0.016510       -0.018843       -0.002333
   5 H        0.048394        0.019536       -0.011503        0.008033
   6 H        0.048394        0.019536       -0.011503        0.008033
   7 H       -0.648357        0.050498       -0.014041        0.036457
  --------------------------------------------------------------------
  Sum:       -1.000000        0.298775       -0.298775       -0.000000
  
  Multipole moment analysis of the density matrix
    Molecular charge:                      -1.000000
    Number of electrons:                   18.000000
      Center of electronic charge [Ang]: [  0.000000,   0.000000,   0.124657]
    Total nuclear charge:                  17.000000
      Center of nuclear charge [Ang]:    [ -0.000000,   0.000000,   0.000000]
    Dipole moment [D]:                     10.777532
      Cartesian components [D]:          [ -0.000000,  -0.000000, -10.777532]
    RMS size of the density [Ang]:         1.523558
      Cartesian components [Ang]:        [  0.904753,   0.503315,   1.117733]
  
  Exciton analysis of the difference density matrix
    <r_h> [Ang]:                  [  0.000000,  -0.000000,   0.264742]
    <r_e> [Ang]:                  [  0.000000,  -0.000000,   0.075126]
    |<r_e - r_h>| [Ang]:            0.189616
    Hole size [Ang]:                1.820683
      Cartesian components [Ang]: [  0.959217,   0.758380,   1.348943]
    Electron size [Ang]:            1.770874
      Cartesian components [Ang]: [  1.104822,   0.734563,   1.172937]
--------------------------------------------------------------------------------
Less singles guess vectors found than requested: 85 (found), 100 (requested).
Adjusting number of doubles guess vectors to 15.
  Starting Davidson for singlet states of irrep A2 ... 
--------------------------------------------------------------------------------
   It NVec Conv  Avg. Norm  Max. Norm  Conv. states           Remark
--------------------------------------------------------------------------------
       100    0  9.743e-02  4.588e-01  0.1353 n n n n n n n n Guess.
    1  110    0  1.248e-02  1.115e-01  0.0931 n n n n n n n n 
    2  120    0  2.170e-03  2.064e-02  0.0930 n n n n n n n n 
    3  130    0  7.302e-04  6.349e-03  0.0930 n n n n n n n n 
    4  140    8  1.126e-04  1.113e-03  0.0930 y y y y y y y y 
    5  150    9  3.535e-06  3.496e-05  0.0930 y y y y y y y y 
    6  160   10  7.141e-08  7.067e-07  0.0930 y y y y y y y y Converged.
--------------------------------------------------------------------------------
  Davidson Summary: 
 ------------------------------------------------------------
  State  0: excitation energy =   0.0930 a.u.   (converged)
  State  1: excitation energy =   0.1670 a.u.   (converged)
  State  2: excitation energy =   0.2440 a.u.   (converged)
  State  3: excitation energy =   0.3130 a.u.   (converged)
  State  4: excitation energy =   0.3515 a.u.   (converged)
  State  5: excitation energy =   0.3697 a.u.   (converged)
  State  6: excitation energy =   0.3858 a.u.   (converged)
  State  7: excitation energy =   0.4267 a.u.   (converged)
  State  8: excitation energy =   0.4442 a.u.   (converged)
  State  9: excitation energy =   0.4556 a.u.   (converged)
 ------------------------------------------------------------


--------------------------------------------------------------------------------
                   State-averaged natural transition orbitals
--------------------------------------------------------------------------------
--------------------------------------------------------------------------------

--------------------------------------------------------------------------------
                             Excited State Summary
--------------------------------------------------------------------------------
--------------------------------------------------------------------------------

  Excited state 1 (singlet, A2)                                    [converged]
  ----------------------------------------------------------------------------
  Term symbol:  1 (1) A2                                    R^2 =  3.56269e-11

  Total energy:                                            -78.7222455689 a.u.
  Excitation energy:                                               2.529832 eV

  Osc. strength:                                                      0.000000
  Trans. dip. moment [a.u.]:           [   0.000000,    0.000000,    0.000000]
  <i|r^2|0> [a.u.]:                    [   0.000000,    0.000000,    0.000000]

  Dip. moment [a.u.]:                  [   0.000000,    0.000000,    0.552746]
  Total dipole [Debye]:                                               1.404941
  <r^2> [a.u.]:                        [  63.584366,   26.316859,   58.780708]
  Total <r^2> [a.u.]:                                               148.681933

  V1^2 = 0.9329, V2^2 = 0.0671

  Important amplitudes:
      occ i      occ j       vir a       vir b          v   
    ---------------------------------------------------------
     5 (A1) A               1 (A2) A                 -0.6189
     5 (A1) A               2 (A2) A                 -0.2853
    ---------------------------------------------------------

  Density matrix analysis:
  ------------------------
  NOs
    Occupation of frontier NOs:
       0.9918   0.9928
    Number of electrons: 18.000000
    Number of unpaired electrons: n_u =  2.41489, n_u,nl =  2.04424
    NO participation ratio (PR_NO):  2.944177
  
  
  Mulliken Population Analysis
  Atom      Charge (e)              h+              e-           Del q
  --------------------------------------------------------------------
   1 C       -0.687518        0.259573       -0.541787       -0.282214
   2 C       -0.687518        0.259573       -0.541787       -0.282214
   3 H        0.118344        0.018883       -0.081628       -0.062744
   4 H        0.118344        0.018883       -0.081628       -0.062744
   5 H        0.054389        0.011392       -0.005397        0.005995
   6 H        0.054389        0.011392       -0.005397        0.005995
   7 H        0.029569        0.706298       -0.028372        0.677926
  --------------------------------------------------------------------
  Sum:       -1.000000        1.285995       -1.285995        0.000000
  
  Multipole moment analysis of the density matrix
    Molecular charge:                      -1.000000
    Number of electrons:                   18.000000
      Center of electronic charge [Ang]: [ -0.000000,  -0.000000,  -0.016250]
    Total nuclear charge:                  17.000000
      Center of nuclear charge [Ang]:    [ -0.000000,   0.000000,   0.000000]
    Dipole moment [D]:                     1.404941
      Cartesian components [D]:          [  0.000000,   0.000000,   1.404941]
    RMS size of the density [Ang]:         1.520790
      Cartesian components [Ang]:        [  0.994581,   0.639855,   0.956136]
  
  Exciton analysis of the difference density matrix
    <r_h> [Ang]:                  [  0.000000,  -0.000000,   1.997451]
    <r_e> [Ang]:                  [ -0.000000,  -0.000000,   0.025187]
    |<r_e - r_h>| [Ang]:            1.972265
    Hole size [Ang]:                2.042071
      Cartesian components [Ang]: [  0.970591,   0.890337,   1.560546]
    Electron size [Ang]:            2.797758
      Cartesian components [Ang]: [  1.824859,   1.725534,   1.232829]

  Transition density matrix analysis:
  -----------------------------------
  
  CT numbers (Mulliken)
    omega =     0.9138
    <Phe> =     0.0002
  
  Exciton analysis of the transition density matrix
    Trans. dipole moment [D]:             0.000000
      Cartesian components [D]:         [  0.000000,   0.000000,   0.000000]
    <r_h> [Ang]:                        [  0.000000,  -0.000000,   2.635258]
    <r_e> [Ang]:                        [ -0.000000,  -0.000000,  -0.175470]
    |<r_e - r_h>| [Ang]:                  2.810728
    Hole size [Ang]:                      1.479460
      Cartesian components [Ang]:       [  0.783519,   0.766094,   0.993982]
    Electron size [Ang]:                  2.926175
      Cartesian components [Ang]:       [  1.957055,   1.881488,   1.091989]
    RMS electron-hole separation [Ang]:   4.316177
      Cartesian components [Ang]:       [  2.103478,   2.030910,   3.174928]
    Covariance(r_h, r_e) [Ang^2]:         0.011056
    Correlation coefficient:              0.002554
    Center-of-mass size [Ang]:            1.641144
      Cartesian components [Ang]:       [  1.056327,   1.016022,   0.738394]

  Decomposition into state-averaged NTOs
    H- 1 -> L+ 0: -0.6290 ( 79.1%)
    H- 1 -> L+ 1: -0.2466 ( 12.2%)
                   omega =  91.4%
  ----------------------------------------------------------------------------


  Excited state 2 (singlet, A2)                                    [converged]
  ----------------------------------------------------------------------------
  Term symbol:  2 (1) A2                                    R^2 =  8.61164e-11

  Total energy:                                            -78.6481851028 a.u.
  Excitation energy:                                               4.545119 eV

  Osc. strength:                                                      0.000000
  Trans. dip. moment [a.u.]:           [  -0.000000,    0.000000,    0.000000]
  <i|r^2|0> [a.u.]:                    [   0.000000,    0.000000,    0.000000]

  Dip. moment [a.u.]:                  [   0.000000,   -0.000000,    0.566435]
  Total dipole [Debye]:                                               1.439734
  <r^2> [a.u.]:                        [  67.388410,   30.200920,   60.077795]
  Total <r^2> [a.u.]:                                               157.667125

  V1^2 = 0.9277, V2^2 = 0.0723

  Important amplitudes:
      occ i      occ j       vir a       vir b          v   
    ---------------------------------------------------------
     5 (A1) A               2 (A2) A                  0.6050
     5 (A1) A               1 (A2) A                 -0.2951
    ---------------------------------------------------------

  Density matrix analysis:
  ------------------------
  NOs
    Occupation of frontier NOs:
       0.9882   0.9909
    Number of electrons: 18.000000
    Number of unpaired electrons: n_u =  2.42677, n_u,nl =  2.04793
    NO participation ratio (PR_NO):  2.987882
  
  
  Mulliken Population Analysis
  Atom      Charge (e)              h+              e-           Del q
  --------------------------------------------------------------------
   1 C       -0.666897        0.265524       -0.527116       -0.261593
   2 C       -0.666897        0.265524       -0.527116       -0.261593
   3 H        0.107939        0.016672       -0.089821       -0.073149
   4 H        0.107939        0.016672       -0.089821       -0.073149
   5 H        0.042781        0.008595       -0.014208       -0.005613
   6 H        0.042781        0.008595       -0.014208       -0.005613
   7 H        0.032354        0.708748       -0.028038        0.680710
  --------------------------------------------------------------------
  Sum:       -1.000000        1.290328       -1.290328        0.000000
  
  Multipole moment analysis of the density matrix
    Molecular charge:                      -1.000000
    Number of electrons:                   18.000000
      Center of electronic charge [Ang]: [ -0.000000,   0.000000,  -0.016652]
    Total nuclear charge:                  17.000000
      Center of nuclear charge [Ang]:    [ -0.000000,   0.000000,   0.000000]
    Dipole moment [D]:                     1.439733
      Cartesian components [D]:          [  0.000000,  -0.000000,   1.439733]
    RMS size of the density [Ang]:         1.566069
      Cartesian components [Ang]:        [  1.023900,   0.685449,   0.966624]
  
  Exciton analysis of the difference density matrix
    <r_h> [Ang]:                  [  0.000000,  -0.000000,   1.997045]
    <r_e> [Ang]:                  [ -0.000000,   0.000000,   0.025790]
    |<r_e - r_h>| [Ang]:            1.971256
    Hole size [Ang]:                2.024738
      Cartesian components [Ang]: [  0.960071,   0.871949,   1.554841]
    Electron size [Ang]:            3.115509
      Cartesian components [Ang]: [  2.031586,   1.944390,   1.341047]

  Transition density matrix analysis:
  -----------------------------------
  
  CT numbers (Mulliken)
    omega =     0.9092
    <Phe> =    -0.0002
  
  Exciton analysis of the transition density matrix
    Trans. dipole moment [D]:             0.000000
      Cartesian components [D]:         [ -0.000000,   0.000000,   0.000000]
    <r_h> [Ang]:                        [  0.000000,  -0.000000,   2.635602]
    <r_e> [Ang]:                        [ -0.000000,   0.000000,  -0.175559]
    |<r_e - r_h>| [Ang]:                  2.811160
    Hole size [Ang]:                      1.479274
      Cartesian components [Ang]:       [  0.783363,   0.766121,   0.993807]
    Electron size [Ang]:                  3.342292
      Cartesian components [Ang]:       [  2.216218,   2.164596,   1.254519]
    RMS electron-hole separation [Ang]:   4.609367
      Cartesian components [Ang]:       [  2.348236,   2.295358,   3.234716]
    Covariance(r_h, r_e) [Ang^2]:         0.007759
    Correlation coefficient:              0.001569
    Center-of-mass size [Ang]:            1.828571
      Cartesian components [Ang]:       [  1.176472,   1.148495,   0.800340]

  Decomposition into state-averaged NTOs
    H- 1 -> L+ 1: -0.6299 ( 79.4%)
    H- 1 -> L+ 0:  0.2297 ( 10.6%)
                   omega =  90.9%
  ----------------------------------------------------------------------------


  Excited state 3 (singlet, A2)                                    [converged]
  ----------------------------------------------------------------------------
  Term symbol:  3 (1) A2                                    R^2 =  1.32443e-10

  Total energy:                                            -78.5711936608 a.u.
  Excitation energy:                                               6.640163 eV

  Osc. strength:                                                      0.000000
  Trans. dip. moment [a.u.]:           [  -0.000000,   -0.000000,    0.000000]
  <i|r^2|0> [a.u.]:                    [   0.000000,   -0.000000,   -0.000000]

  Dip. moment [a.u.]:                  [  -0.000000,    0.000000,   -2.618161]
  Total dipole [Debye]:                                               6.654703
  <r^2> [a.u.]:                        [  83.549530,   20.739560,   88.722222]
  Total <r^2> [a.u.]:                                               193.011312

  V1^2 = 0.9428, V2^2 = 0.0572

  Important amplitudes:
      occ i      occ j       vir a       vir b          v   
    ---------------------------------------------------------
     1 (B2) A               4 (B1) A                  0.6735
     1 (B2) A               6 (B1) A                  0.0980
    ---------------------------------------------------------

  Density matrix analysis:
  ------------------------
  NOs
    Occupation of frontier NOs:
       0.9820   0.9931
    Number of electrons: 18.000000
    Number of unpaired electrons: n_u =  2.34489, n_u,nl =  2.02867
    NO participation ratio (PR_NO):  2.808061
  
  
  Mulliken Population Analysis
  Atom      Charge (e)              h+              e-           Del q
  --------------------------------------------------------------------
   1 C       -0.520175        0.545316       -0.660186       -0.114871
   2 C       -0.520175        0.545316       -0.660186       -0.114871
   3 H        0.238284        0.069171       -0.011975        0.057195
   4 H        0.238284        0.069171       -0.011975        0.057195
   5 H        0.098252        0.115198       -0.065340        0.049858
   6 H        0.098252        0.115198       -0.065340        0.049858
   7 H       -0.632723        0.037549       -0.021915        0.015634
  --------------------------------------------------------------------
  Sum:       -1.000000        1.496919       -1.496919        0.000000
  
  Multipole moment analysis of the density matrix
    Molecular charge:                      -1.000000
    Number of electrons:                   18.000000
      Center of electronic charge [Ang]: [  0.000000,  -0.000000,   0.076971]
    Total nuclear charge:                  17.000000
      Center of nuclear charge [Ang]:    [ -0.000000,   0.000000,   0.000000]
    Dipole moment [D]:                     6.654701
      Cartesian components [D]:          [ -0.000000,   0.000000,  -6.654701]
    RMS size of the density [Ang]:         1.731121
      Cartesian components [Ang]:        [  1.140084,   0.568021,   1.172322]
  
  Exciton analysis of the difference density matrix
    <r_h> [Ang]:                  [  0.000000,   0.000000,  -0.131557]
    <r_e> [Ang]:                  [  0.000000,  -0.000000,  -0.704968]
    |<r_e - r_h>| [Ang]:            0.573411
    Hole size [Ang]:                1.747923
      Cartesian components [Ang]: [  1.078601,   0.899073,   1.040924]
    Electron size [Ang]:            3.253187
      Cartesian components [Ang]: [  2.636254,   1.281371,   1.411198]

  Transition density matrix analysis:
  -----------------------------------
  
  CT numbers (Mulliken)
    omega =     0.9120
    <Phe> =    -0.0026
  
  Exciton analysis of the transition density matrix
    Trans. dipole moment [D]:             0.000000
      Cartesian components [D]:         [ -0.000000,  -0.000000,   0.000000]
    <r_h> [Ang]:                        [  0.000000,  -0.000000,  -0.184005]
    <r_e> [Ang]:                        [  0.000000,  -0.000000,  -1.051766]
    |<r_e - r_h>| [Ang]:                  0.867761
    Hole size [Ang]:                      1.280193
      Cartesian components [Ang]:       [  0.765231,   0.883811,   0.521722]
    Electron size [Ang]:                  3.773850
      Cartesian components [Ang]:       [  3.143461,   1.503941,   1.448710]
    RMS electron-hole separation [Ang]:   4.070233
      Cartesian components [Ang]:       [  3.228321,   1.738543,   1.766978]
    Covariance(r_h, r_e) [Ang^2]:         0.033525
    Correlation coefficient:              0.006939
    Center-of-mass size [Ang]:            1.996740
      Cartesian components [Ang]:       [  1.621095,   0.875128,   0.770179]

  Decomposition into state-averaged NTOs
    H- 0 -> L+ 4:  0.5843 ( 68.3%)
    H- 0 -> L+ 3: -0.3053 ( 18.6%)
    H- 0 -> L+ 5:  0.1448 (  4.2%)
                   omega =  91.2%
  ----------------------------------------------------------------------------


  Excited state 4 (singlet, A2)                                    [converged]
  ----------------------------------------------------------------------------
  Term symbol:  4 (1) A2                                    R^2 =  2.63763e-10

  Total energy:                                            -78.5022627052 a.u.
  Excitation energy:                                               8.515870 eV

  Osc. strength:                                                      0.000000
  Trans. dip. moment [a.u.]:           [  -0.000000,    0.000000,    0.000000]
  <i|r^2|0> [a.u.]:                    [   0.000000,   -0.000000,    0.000000]

  Dip. moment [a.u.]:                  [  -0.000000,   -0.000000,   -4.907887]
  Total dipole [Debye]:                                              12.474607
  <r^2> [a.u.]:                        [  75.687675,   20.016206,   97.730448]
  Total <r^2> [a.u.]:                                               193.434329

  V1^2 = 0.9430, V2^2 = 0.0570

  Important amplitudes:
      occ i      occ j       vir a       vir b          v   
    ---------------------------------------------------------
     1 (B2) A               5 (B1) A                  0.6784
     1 (B2) A               9 (B1) A                 -0.0709
    ---------------------------------------------------------

  Density matrix analysis:
  ------------------------
  NOs
    Occupation of frontier NOs:
       0.9829   0.9954
    Number of electrons: 18.000000
    Number of unpaired electrons: n_u =  2.34212, n_u,nl =  2.02792
    NO participation ratio (PR_NO):  2.792896
  
  
  Mulliken Population Analysis
  Atom      Charge (e)              h+              e-           Del q
  --------------------------------------------------------------------
   1 C       -0.507482        0.537013       -0.639191       -0.102178
   2 C       -0.507482        0.537013       -0.639191       -0.102178
   3 H        0.208299        0.082498       -0.055287        0.027211
   4 H        0.208299        0.082498       -0.055287        0.027211
   5 H        0.101447        0.103034       -0.049980        0.053053
   6 H        0.101447        0.103034       -0.049980        0.053053
   7 H       -0.604529        0.053576       -0.009748        0.043828
  --------------------------------------------------------------------
  Sum:       -1.000000        1.498666       -1.498666        0.000000
  
  Multipole moment analysis of the density matrix
    Molecular charge:                      -1.000000
    Number of electrons:                   18.000000
      Center of electronic charge [Ang]: [  0.000000,   0.000000,   0.144286]
    Total nuclear charge:                  17.000000
      Center of nuclear charge [Ang]:    [ -0.000000,   0.000000,   0.000000]
    Dipole moment [D]:                     12.474604
      Cartesian components [D]:          [ -0.000000,  -0.000000, -12.474604]
    RMS size of the density [Ang]:         1.728718
      Cartesian components [Ang]:        [  1.085119,   0.558028,   1.224577]
  
  Exciton analysis of the difference density matrix
    <r_h> [Ang]:                  [  0.000000,   0.000000,  -0.074607]
    <r_e> [Ang]:                  [  0.000000,   0.000000,   0.161150]
    |<r_e - r_h>| [Ang]:            0.235757
    Hole size [Ang]:                1.733266
      Cartesian components [Ang]: [  1.060020,   0.885761,   1.046898]
    Electron size [Ang]:            3.325835
      Cartesian components [Ang]: [  2.331170,   1.217382,   2.035881]

  Transition density matrix analysis:
  -----------------------------------
  
  CT numbers (Mulliken)
    omega =     0.9119
    <Phe> =    -0.0007
  
  Exciton analysis of the transition density matrix
    Trans. dipole moment [D]:             0.000000
      Cartesian components [D]:         [ -0.000000,   0.000000,   0.000000]
    <r_h> [Ang]:                        [ -0.000000,  -0.000000,  -0.183615]
    <r_e> [Ang]:                        [  0.000000,   0.000000,   0.238537]
    |<r_e - r_h>| [Ang]:                  0.422152
    Hole size [Ang]:                      1.279969
      Cartesian components [Ang]:       [  0.764955,   0.884015,   0.521232]
    Electron size [Ang]:                  3.923517
      Cartesian components [Ang]:       [  2.762040,   1.422759,   2.396014]
    RMS electron-hole separation [Ang]:   4.144170
      Cartesian components [Ang]:       [  2.860191,   1.674786,   2.487679]
    Covariance(r_h, r_e) [Ang^2]:         0.018188
    Correlation coefficient:              0.003622
    Center-of-mass size [Ang]:            2.065713
      Cartesian components [Ang]:       [  1.435910,   0.837637,   1.226254]

  Decomposition into state-averaged NTOs
    H- 0 -> L+ 5: -0.5146 ( 53.0%)
    H- 0 -> L+ 3:  0.3221 ( 20.8%)
    H- 0 -> L+ 4:  0.2952 ( 17.4%)
                   omega =  91.2%
  ----------------------------------------------------------------------------


  Excited state 5 (singlet, A2)                                    [converged]
  ----------------------------------------------------------------------------
  Term symbol:  5 (1) A2                                    R^2 =  3.18637e-09

  Total energy:                                            -78.4637014052 a.u.
  Excitation energy:                                               9.565176 eV

  Osc. strength:                                                      0.000000
  Trans. dip. moment [a.u.]:           [  -0.000000,   -0.000000,    0.000000]
  <i|r^2|0> [a.u.]:                    [  -0.000000,   -0.000000,    0.000000]

  Dip. moment [a.u.]:                  [   0.000000,    0.000000,   -4.175043]
  Total dipole [Debye]:                                              10.611903
  <r^2> [a.u.]:                        [  53.866862,   20.023976,   81.006702]
  Total <r^2> [a.u.]:                                               154.897540

  V1^2 = 0.9533, V2^2 = 0.0467

  Important amplitudes:
      occ i      occ j       vir a       vir b          v   
    ---------------------------------------------------------
     4 (A1) A               2 (A2) A                 -0.5026
     4 (A1) A               1 (A2) A                 -0.4460
    ---------------------------------------------------------

  Density matrix analysis:
  ------------------------
  NOs
    Occupation of frontier NOs:
       0.9898   1.0054
    Number of electrons: 18.000000
    Number of unpaired electrons: n_u =  2.40273, n_u,nl =  2.03957
    NO participation ratio (PR_NO):  2.916967
  
  
  Mulliken Population Analysis
  Atom      Charge (e)              h+              e-           Del q
  --------------------------------------------------------------------
   1 C       -0.536156        0.441798       -0.572650       -0.130852
   2 C       -0.536156        0.441798       -0.572650       -0.130852
   3 H        0.242595        0.070801       -0.009294        0.061507
   4 H        0.242595        0.070801       -0.009294        0.061507
   5 H        0.116180        0.074589       -0.006803        0.067786
   6 H        0.116180        0.074589       -0.006803        0.067786
   7 H       -0.645239        0.008579       -0.005461        0.003118
  --------------------------------------------------------------------
  Sum:       -1.000000        1.182955       -1.182955        0.000000
  
  Multipole moment analysis of the density matrix
    Molecular charge:                      -1.000000
    Number of electrons:                   18.000000
      Center of electronic charge [Ang]: [ -0.000000,  -0.000000,   0.122741]
    Total nuclear charge:                  17.000000
      Center of nuclear charge [Ang]:    [ -0.000000,   0.000000,   0.000000]
    Dipole moment [D]:                     10.611900
      Cartesian components [D]:          [  0.000000,   0.000000, -10.611900]
    RMS size of the density [Ang]:         1.547481
      Cartesian components [Ang]:        [  0.915431,   0.558136,   1.115871]
  
  Exciton analysis of the difference density matrix
    <r_h> [Ang]:                  [  0.000000,  -0.000000,  -0.139625]
    <r_e> [Ang]:                  [ -0.000000,  -0.000000,  -0.168775]
    |<r_e - r_h>| [Ang]:            0.029150
    Hole size [Ang]:                1.473201
      Cartesian components [Ang]: [  1.122863,   0.565030,   0.768272]
    Electron size [Ang]:            1.808869
      Cartesian components [Ang]: [  1.247626,   1.097580,   0.714670]

  Transition density matrix analysis:
  -----------------------------------
  
  CT numbers (Mulliken)
    omega =     0.9213
    <Phe> =    -0.0153
  
  Exciton analysis of the transition density matrix
    Trans. dipole moment [D]:             0.000000
      Cartesian components [D]:         [ -0.000000,  -0.000000,   0.000000]
    <r_h> [Ang]:                        [ -0.000000,  -0.000000,  -0.144022]
    <r_e> [Ang]:                        [ -0.000000,  -0.000000,  -0.184645]
    |<r_e - r_h>| [Ang]:                  0.040623
    Hole size [Ang]:                      1.299790
      Cartesian components [Ang]:       [  1.074348,   0.412509,   0.604207]
    Electron size [Ang]:                  1.880942
      Cartesian components [Ang]:       [  1.307806,   1.161386,   0.691932]
    RMS electron-hole separation [Ang]:   2.269966
      Cartesian components [Ang]:       [  1.669823,   1.232413,   0.919562]
    Covariance(r_h, r_e) [Ang^2]:         0.038150
    Correlation coefficient:              0.015604
    Center-of-mass size [Ang]:            1.151488
      Cartesian components [Ang]:       [  0.857445,   0.616263,   0.459273]

  Decomposition into state-averaged NTOs
    H- 2 -> L+ 0: -0.6743 ( 90.9%)
                   omega =  92.1%
  ----------------------------------------------------------------------------


  Excited state 6 (singlet, A2)                                    [converged]
  ----------------------------------------------------------------------------
  Term symbol:  6 (1) A2                                    R^2 =  2.31429e-09

  Total energy:                                            -78.4454925908 a.u.
  Excitation energy:                                              10.060663 eV

  Osc. strength:                                                      0.000000
  Trans. dip. moment [a.u.]:           [  -0.000000,   -0.000000,   -0.000000]
  <i|r^2|0> [a.u.]:                    [   0.000000,    0.000000,    0.000000]

  Dip. moment [a.u.]:                  [  -0.000000,   -0.000000,   -4.098240]
  Total dipole [Debye]:                                              10.416690
  <r^2> [a.u.]:                        [  56.556716,   41.211287,   84.860150]
  Total <r^2> [a.u.]:                                               182.628153

  V1^2 = 0.9352, V2^2 = 0.0648

  Important amplitudes:
      occ i      occ j       vir a       vir b          v   
    ---------------------------------------------------------
     3 (B1) A               2 (B2) A                  0.6749
     3 (B1) A               3 (B2) A                  0.1028
    ---------------------------------------------------------

  Density matrix analysis:
  ------------------------
  NOs
    Occupation of frontier NOs:
       0.9938   1.0209
    Number of electrons: 18.000000
    Number of unpaired electrons: n_u =  2.48569, n_u,nl =  2.07686
    NO participation ratio (PR_NO):  3.141250
  
  
  Mulliken Population Analysis
  Atom      Charge (e)              h+              e-           Del q
  --------------------------------------------------------------------
   1 C       -0.711496        0.320043       -0.626235       -0.306192
   2 C       -0.711496        0.320043       -0.626235       -0.306192
   3 H        0.314949        0.155239       -0.021378        0.133861
   4 H        0.314949        0.155239       -0.021378        0.133861
   5 H        0.211469        0.173406       -0.010331        0.163075
   6 H        0.211469        0.173406       -0.010331        0.163075
   7 H       -0.629845        0.036721       -0.018209        0.018512
  --------------------------------------------------------------------
  Sum:       -1.000000        1.334097       -1.334097       -0.000000
  
  Multipole moment analysis of the density matrix
    Molecular charge:                      -1.000000
    Number of electrons:                   18.000000
      Center of electronic charge [Ang]: [  0.000000,   0.000000,   0.120483]
    Total nuclear charge:                  17.000000
      Center of nuclear charge [Ang]:    [ -0.000000,   0.000000,   0.000000]
    Dipole moment [D]:                     10.416687
      Cartesian components [D]:          [ -0.000000,  -0.000000, -10.416687]
    RMS size of the density [Ang]:         1.681266
      Cartesian components [Ang]:        [  0.938009,   0.800706,   1.142657]
  
  Exciton analysis of the difference density matrix
    <r_h> [Ang]:                  [  0.000000,   0.000000,  -0.058113]
    <r_e> [Ang]:                  [  0.000000,   0.000000,  -0.114425]
    |<r_e - r_h>| [Ang]:            0.056312
    Hole size [Ang]:                1.817374
      Cartesian components [Ang]: [  1.202160,   0.663030,   1.190819]
    Electron size [Ang]:            3.177840
      Cartesian components [Ang]: [  1.507328,   2.381588,   1.467878]

  Transition density matrix analysis:
  -----------------------------------
  
  CT numbers (Mulliken)
    omega =     0.9190
    <Phe> =    -0.0007
  
  Exciton analysis of the transition density matrix
    Trans. dipole moment [D]:             0.000000
      Cartesian components [D]:         [ -0.000000,  -0.000000,  -0.000000]
    <r_h> [Ang]:                        [  0.000000,   0.000000,  -0.124874]
    <r_e> [Ang]:                        [  0.000000,   0.000000,  -0.176462]
    |<r_e - r_h>| [Ang]:                  0.051588
    Hole size [Ang]:                      1.522660
      Cartesian components [Ang]:       [  1.126515,   0.417578,   0.935460]
    Electron size [Ang]:                  3.537090
      Cartesian components [Ang]:       [  1.626897,   2.719912,   1.570443]
    RMS electron-hole separation [Ang]:   3.816559
      Cartesian components [Ang]:       [  1.911496,   2.751165,   1.828494]
    Covariance(r_h, r_e) [Ang^2]:         0.133021
    Correlation coefficient:              0.024699
    Center-of-mass size [Ang]:            1.942649
      Cartesian components [Ang]:       [  1.021989,   1.376197,   0.914061]

  Decomposition into state-averaged NTOs
    H- 3 -> L+ 2: -0.6770 ( 91.7%)
                   omega =  91.9%
  ----------------------------------------------------------------------------


  Excited state 7 (singlet, A2)                                    [converged]
  ----------------------------------------------------------------------------
  Term symbol:  7 (1) A2                                    R^2 =  4.66634e-09

  Total energy:                                            -78.4294643625 a.u.
  Excitation energy:                                              10.496813 eV

  Osc. strength:                                                      0.000000
  Trans. dip. moment [a.u.]:           [  -0.000000,    0.000000,    0.000000]
  <i|r^2|0> [a.u.]:                    [  -0.000000,   -0.000000,   -0.000000]

  Dip. moment [a.u.]:                  [  -0.000000,   -0.000000,   -4.083510]
  Total dipole [Debye]:                                              10.379250
  <r^2> [a.u.]:                        [  75.491075,   22.322458,   88.233975]
  Total <r^2> [a.u.]:                                               186.047507

  V1^2 = 0.9448, V2^2 = 0.0552

  Important amplitudes:
      occ i      occ j       vir a       vir b          v   
    ---------------------------------------------------------
     1 (B2) A               6 (B1) A                  0.6612
     1 (B2) A               8 (B1) A                  0.1211
    ---------------------------------------------------------

  Density matrix analysis:
  ------------------------
  NOs
    Occupation of frontier NOs:
       0.9827   0.9872
    Number of electrons: 18.000000
    Number of unpaired electrons: n_u =  2.34741, n_u,nl =  2.02958
    NO participation ratio (PR_NO):  2.828758
  
  
  Mulliken Population Analysis
  Atom      Charge (e)              h+              e-           Del q
  --------------------------------------------------------------------
   1 C       -0.571321        0.534851       -0.700868       -0.166016
   2 C       -0.571321        0.534851       -0.700868       -0.166016
   3 H        0.181370        0.067425       -0.067144        0.000281
   4 H        0.181370        0.067425       -0.067144        0.000281
   5 H        0.197452        0.099801        0.049257        0.149058
   6 H        0.197452        0.099801        0.049257        0.149058
   7 H       -0.615002        0.042362       -0.009007        0.033355
  --------------------------------------------------------------------
  Sum:       -1.000000        1.446517       -1.446517        0.000000
  
  Multipole moment analysis of the density matrix
    Molecular charge:                      -1.000000
    Number of electrons:                   18.000000
      Center of electronic charge [Ang]: [  0.000000,   0.000000,   0.120050]
    Total nuclear charge:                  17.000000
      Center of nuclear charge [Ang]:    [ -0.000000,   0.000000,   0.000000]
    Dipole moment [D]:                     10.379247
      Cartesian components [D]:          [ -0.000000,  -0.000000, -10.379247]
    RMS size of the density [Ang]:         1.697043
      Cartesian components [Ang]:        [  1.083709,   0.589299,   1.165443]
  
  Exciton analysis of the difference density matrix
    <r_h> [Ang]:                  [  0.000000,  -0.000000,  -0.108177]
    <r_e> [Ang]:                  [  0.000000,   0.000000,  -0.165501]
    |<r_e - r_h>| [Ang]:            0.057324
    Hole size [Ang]:                1.703965
      Cartesian components [Ang]: [  1.059015,   0.886828,   0.997757]
    Electron size [Ang]:            3.134705
      Cartesian components [Ang]: [  2.355752,   1.398398,   1.523579]

  Transition density matrix analysis:
  -----------------------------------
  
  CT numbers (Mulliken)
    omega =     0.9134
    <Phe> =    -0.0030
  
  Exciton analysis of the transition density matrix
    Trans. dipole moment [D]:             0.000000
      Cartesian components [D]:         [ -0.000000,   0.000000,   0.000000]
    <r_h> [Ang]:                        [  0.000000,  -0.000000,  -0.183364]
    <r_e> [Ang]:                        [  0.000000,   0.000000,  -0.225476]
    |<r_e - r_h>| [Ang]:                  0.042112
    Hole size [Ang]:                      1.278854
      Cartesian components [Ang]:       [  0.764701,   0.882208,   0.521927]
    Electron size [Ang]:                  3.628782
      Cartesian components [Ang]:       [  2.745547,   1.631897,   1.722481]
    RMS electron-hole separation [Ang]:   3.839081
      Cartesian components [Ang]:       [  2.844582,   1.846354,   1.799410]
    Covariance(r_h, r_e) [Ang^2]:         0.033377
    Correlation coefficient:              0.007192
    Center-of-mass size [Ang]:            1.928100
      Cartesian components [Ang]:       [  1.427756,   0.931898,   0.900361]

  Decomposition into state-averaged NTOs
    H- 0 -> L+ 3: -0.5095 ( 51.9%)
    H- 0 -> L+ 5: -0.4115 ( 33.9%)
    H- 0 -> L+ 4: -0.1627 (  5.3%)
                   omega =  91.3%
  ----------------------------------------------------------------------------


  Excited state 8 (singlet, A2)                                    [converged]
  ----------------------------------------------------------------------------
  Term symbol:  8 (1) A2                                    R^2 =  4.82796e-09

  Total energy:                                            -78.3885557324 a.u.
  Excitation energy:                                              11.609994 eV

  Osc. strength:                                                      0.000000
  Trans. dip. moment [a.u.]:           [  -0.000000,    0.000000,   -0.000000]
  <i|r^2|0> [a.u.]:                    [  -0.000000,   -0.000000,    0.000000]

  Dip. moment [a.u.]:                  [  -0.000000,    0.000000,    0.543899]
  Total dipole [Debye]:                                               1.382454
  <r^2> [a.u.]:                        [  63.214903,   26.660370,   58.915853]
  Total <r^2> [a.u.]:                                               148.791127

  V1^2 = 0.9188, V2^2 = 0.0812

  Important amplitudes:
      occ i      occ j       vir a       vir b          v   
    ---------------------------------------------------------
     5 (A1) A               3 (A2) A                  0.6619
     5 (A1) A               2 (A2) A                  0.1231
    ---------------------------------------------------------

  Density matrix analysis:
  ------------------------
  NOs
    Occupation of frontier NOs:
       0.9622   0.9944
    Number of electrons: 18.000000
    Number of unpaired electrons: n_u =  2.48196, n_u,nl =  2.06941
    NO participation ratio (PR_NO):  3.185774
  
  
  Mulliken Population Analysis
  Atom      Charge (e)              h+              e-           Del q
  --------------------------------------------------------------------
   1 C       -0.679942        0.253521       -0.528160       -0.274638
   2 C       -0.679942        0.253521       -0.528160       -0.274638
   3 H        0.115290        0.012646       -0.078445       -0.065799
   4 H        0.115290        0.012646       -0.078445       -0.065799
   5 H        0.049340        0.007989       -0.007043        0.000946
   6 H        0.049340        0.007989       -0.007043        0.000946
   7 H        0.030625        0.705737       -0.026755        0.678982
  --------------------------------------------------------------------
  Sum:       -1.000000        1.254049       -1.254049        0.000000
  
  Multipole moment analysis of the density matrix
    Molecular charge:                      -1.000000
    Number of electrons:                   18.000000
      Center of electronic charge [Ang]: [  0.000000,  -0.000000,  -0.015990]
    Total nuclear charge:                  17.000000
      Center of nuclear charge [Ang]:    [ -0.000000,   0.000000,   0.000000]
    Dipole moment [D]:                     1.382454
      Cartesian components [D]:          [ -0.000000,   0.000000,   1.382454]
    RMS size of the density [Ang]:         1.521351
      Cartesian components [Ang]:        [  0.991687,   0.644018,   0.957239]
  
  Exciton analysis of the difference density matrix
    <r_h> [Ang]:                  [  0.000000,  -0.000000,   2.037586]
    <r_e> [Ang]:                  [  0.000000,  -0.000000,   0.018813]
    |<r_e - r_h>| [Ang]:            2.018773
    Hole size [Ang]:                2.013396
      Cartesian components [Ang]: [  0.956922,   0.875572,   1.539948]
    Electron size [Ang]:            2.808793
      Cartesian components [Ang]: [  1.811656,   1.756062,   1.234287]

  Transition density matrix analysis:
  -----------------------------------
  
  CT numbers (Mulliken)
    omega =     0.9059
    <Phe> =    -0.0002
  
  Exciton analysis of the transition density matrix
    Trans. dipole moment [D]:             0.000000
      Cartesian components [D]:         [ -0.000000,   0.000000,  -0.000000]
    <r_h> [Ang]:                        [  0.000000,  -0.000000,   2.612463]
    <r_e> [Ang]:                        [ -0.000000,  -0.000000,  -0.176337]
    |<r_e - r_h>| [Ang]:                  2.788800
    Hole size [Ang]:                      1.500381
      Cartesian components [Ang]:       [  0.784622,   0.763636,   1.025851]
    Electron size [Ang]:                  2.936675
      Cartesian components [Ang]:       [  1.933422,   1.913771,   1.106082]
    RMS electron-hole separation [Ang]:   4.318228
      Cartesian components [Ang]:       [  2.084994,   2.060906,   3.170577]
    Covariance(r_h, r_e) [Ang^2]:         0.002759
    Correlation coefficient:              0.000626
    Center-of-mass size [Ang]:            1.649297
      Cartesian components [Ang]:       [  1.044067,   1.030047,   0.754391]

  Decomposition into state-averaged NTOs
    H- 1 -> L+ 6:  0.6682 ( 89.3%)
                   omega =  90.6%
  ----------------------------------------------------------------------------


  Excited state 9 (singlet, A2)                                    [converged]
  ----------------------------------------------------------------------------
  Term symbol:  9 (1) A2                                    R^2 =  1.02629e-07

  Total energy:                                            -78.3709680410 a.u.
  Excitation energy:                                              12.088579 eV

  Osc. strength:                                                      0.000000
  Trans. dip. moment [a.u.]:           [   0.000000,    0.000000,    0.000000]
  <i|r^2|0> [a.u.]:                    [   0.000000,   -0.000000,    0.000000]

  Dip. moment [a.u.]:                  [   0.000000,    0.000000,   -4.196468]
  Total dipole [Debye]:                                              10.666361
  <r^2> [a.u.]:                        [  55.922214,   20.910536,   79.781562]
  Total <r^2> [a.u.]:                                               156.614311

  V1^2 = 0.9343, V2^2 = 0.0657

  Important amplitudes:
      occ i      occ j       vir a       vir b          v   
    ---------------------------------------------------------
     3 (A1) A               2 (A2) A                 -0.4823
     3 (A1) A               1 (A2) A                 -0.4598
    ---------------------------------------------------------

  Density matrix analysis:
  ------------------------
  NOs
    Occupation of frontier NOs:
       0.9906   1.0446
    Number of electrons: 18.000000
    Number of unpaired electrons: n_u =  2.46834, n_u,nl =  2.06609
    NO participation ratio (PR_NO):  3.185664
  
  
  Mulliken Population Analysis
  Atom      Charge (e)              h+              e-           Del q
  --------------------------------------------------------------------
   1 C       -0.592958        0.337381       -0.525034       -0.187654
   2 C       -0.592958        0.337381       -0.525034       -0.187654
   3 H        0.256626        0.085023       -0.009485        0.075537
   4 H        0.256626        0.085023       -0.009485        0.075537
   5 H        0.156399        0.118854       -0.010849        0.108005
   6 H        0.156399        0.118854       -0.010849        0.108005
   7 H       -0.640134        0.015282       -0.007059        0.008223
  --------------------------------------------------------------------
  Sum:       -1.000000        1.097797       -1.097797        0.000000
  
  Multipole moment analysis of the density matrix
    Molecular charge:                      -1.000000
    Number of electrons:                   18.000000
      Center of electronic charge [Ang]: [ -0.000000,  -0.000000,   0.123371]
    Total nuclear charge:                  17.000000
      Center of nuclear charge [Ang]:    [ -0.000000,   0.000000,   0.000000]
    Dipole moment [D]:                     10.666358
      Cartesian components [D]:          [  0.000000,   0.000000, -10.666358]
    RMS size of the density [Ang]:         1.556037
      Cartesian components [Ang]:        [  0.932732,   0.570358,   1.107227]
  
  Exciton analysis of the difference density matrix
    <r_h> [Ang]:                  [  0.000000,   0.000000,  -0.144090]
    <r_e> [Ang]:                  [ -0.000000,  -0.000000,  -0.165174]
    |<r_e - r_h>| [Ang]:            0.021084
    Hole size [Ang]:                1.533529
      Cartesian components [Ang]: [  1.005456,   0.557319,   1.014970]
    Electron size [Ang]:            1.994978
      Cartesian components [Ang]: [  1.361587,   1.221006,   0.796972]

  Transition density matrix analysis:
  -----------------------------------
  
  CT numbers (Mulliken)
    omega =     0.9059
    <Phe> =    -0.0116
  
  Exciton analysis of the transition density matrix
    Trans. dipole moment [D]:             0.000000
      Cartesian components [D]:         [  0.000000,   0.000000,   0.000000]
    <r_h> [Ang]:                        [  0.000000,   0.000000,  -0.181344]
    <r_e> [Ang]:                        [ -0.000000,  -0.000000,  -0.186519]
    |<r_e - r_h>| [Ang]:                  0.005175
    Hole size [Ang]:                      1.389978
      Cartesian components [Ang]:       [  0.943258,   0.432346,   0.924868]
    Electron size [Ang]:                  2.005056
      Cartesian components [Ang]:       [  1.381716,   1.249012,   0.742347]
    RMS electron-hole separation [Ang]:   2.440537
      Cartesian components [Ang]:       [  1.678188,   1.319914,   1.182257]
    Covariance(r_h, r_e) [Ang^2]:        -0.001953
    Correlation coefficient:             -0.000701
    Center-of-mass size [Ang]:            1.219465
      Cartesian components [Ang]:       [  0.833881,   0.661766,   0.594814]

  Decomposition into state-averaged NTOs
    H- 4 -> L+ 0: -0.6660 ( 88.7%)
                   omega =  90.6%
  ----------------------------------------------------------------------------


  Excited state 10 (singlet, A2)                                    [converged]
  ----------------------------------------------------------------------------
  Term symbol:  10 (1) A2                                   R^2 =  7.06665e-07

  Total energy:                                            -78.3596052195 a.u.
  Excitation energy:                                              12.397777 eV

  Osc. strength:                                                      0.000000
  Trans. dip. moment [a.u.]:           [  -0.000000,   -0.000000,   -0.000000]
  <i|r^2|0> [a.u.]:                    [  -0.000000,   -0.000000,   -0.000000]

  Dip. moment [a.u.]:                  [   0.000000,   -0.000000,   -3.872624]
  Total dipole [Debye]:                                               9.843230
  <r^2> [a.u.]:                        [  69.525104,   35.593681,   83.961992]
  Total <r^2> [a.u.]:                                               189.080777

  V1^2 = 0.9048, V2^2 = 0.0952

  Important amplitudes:
      occ i      occ j       vir a       vir b          v   
    ---------------------------------------------------------
     4 (A1) A               1 (A2) A                  0.4872
     4 (A1) A               2 (A2) A                 -0.3928
    ---------------------------------------------------------

  Density matrix analysis:
  ------------------------
  NOs
    Occupation of frontier NOs:
       0.8819   1.1096
    Number of electrons: 18.000000
    Number of unpaired electrons: n_u =  2.50991, n_u,nl =  2.11121
    NO participation ratio (PR_NO):  3.899482
  
  
  Mulliken Population Analysis
  Atom      Charge (e)              h+              e-           Del q
  --------------------------------------------------------------------
   1 C       -0.619002        0.466913       -0.680610       -0.213698
   2 C       -0.619002        0.466913       -0.680610       -0.213698
   3 H        0.264705        0.100749       -0.017132        0.083617
   4 H        0.264705        0.100749       -0.017132        0.083617
   5 H        0.151861        0.114896       -0.011428        0.103467
   6 H        0.151861        0.114896       -0.011428        0.103467
   7 H       -0.595129        0.059194       -0.005967        0.053227
  --------------------------------------------------------------------
  Sum:       -1.000000        1.424308       -1.424308        0.000000
  
  Multipole moment analysis of the density matrix
    Molecular charge:                      -1.000000
    Number of electrons:                   18.000000
      Center of electronic charge [Ang]: [ -0.000000,   0.000000,   0.113850]
    Total nuclear charge:                  17.000000
      Center of nuclear charge [Ang]:    [ -0.000000,   0.000000,   0.000000]
    Dipole moment [D]:                     9.843227
      Cartesian components [D]:          [  0.000000,  -0.000000,  -9.843227]
    RMS size of the density [Ang]:         1.711314
      Cartesian components [Ang]:        [  1.040006,   0.744134,   1.137210]
  
  Exciton analysis of the difference density matrix
    <r_h> [Ang]:                  [  0.000000,   0.000000,  -0.031511]
    <r_e> [Ang]:                  [ -0.000000,   0.000000,  -0.168080]
    |<r_e - r_h>| [Ang]:            0.136570
    Hole size [Ang]:                1.784370
      Cartesian components [Ang]: [  1.183847,   0.737039,   1.113218]
    Electron size [Ang]:            3.286311
      Cartesian components [Ang]: [  2.173855,   2.083200,   1.316994]

  Transition density matrix analysis:
  -----------------------------------
  
  CT numbers (Mulliken)
    omega =     0.8852
    <Phe> =    -0.0031
  
  Exciton analysis of the transition density matrix
    Trans. dipole moment [D]:             0.000000
      Cartesian components [D]:         [ -0.000000,  -0.000000,  -0.000000]
    <r_h> [Ang]:                        [ -0.000000,  -0.000000,  -0.141479]
    <r_e> [Ang]:                        [ -0.000000,   0.000000,  -0.179848]
    |<r_e - r_h>| [Ang]:                  0.038370
    Hole size [Ang]:                      1.335483
      Cartesian components [Ang]:       [  1.083617,   0.466920,   0.625520]
    Electron size [Ang]:                  3.749234
      Cartesian components [Ang]:       [  2.483483,   2.416530,   1.431592]
    RMS electron-hole separation [Ang]:   3.947347
      Cartesian components [Ang]:       [  2.665598,   2.456623,   1.562415]
    Covariance(r_h, r_e) [Ang^2]:         0.130097
    Correlation coefficient:              0.025983
    Center-of-mass size [Ang]:            2.006269
      Cartesian components [Ang]:       [  1.376446,   1.232909,   0.781312]

  Decomposition into state-averaged NTOs
    H- 2 -> L+ 1:  0.6316 ( 79.8%)
    H- 0 -> L+ 7: -0.1858 (  6.9%)
                   omega =  88.5%
  ----------------------------------------------------------------------------


--------------------------------------------------------------------------------
  Time of ADC calculation:  CPU 137.26 s  wall 39.73 s
================================================================================
 
 --------------------------------------------------------------
             Orbital Energies (a.u.) and Symmetries
 --------------------------------------------------------------
 
 Alpha MOs, Restricted
 -- Occupied --                  
-11.065 -11.063  -0.871  -0.613  -0.487  -0.398  -0.342  -0.208
  1 A1    1 B1    2 A1    2 B1    3 A1    4 A1    3 B1    1 B2                 
 -0.023
  5 A1                                                                         
 -- Virtual --                   
  0.185   0.198   0.224   0.226   0.232   0.251   0.315   0.337
  4 B1    6 A1    2 B2    1 A2    7 A1    5 B1    8 A1    2 A2                 
  0.351   0.439   0.470   0.484   0.503   0.508   0.518   0.550
  6 B1    9 A1    7 B1   10 A1   11 A1    8 B1    3 B2    9 B1                 
  0.551   0.601   0.704   0.778   0.978   1.011   1.078   1.098
 12 A1    3 A2   10 B1   11 B1   13 A1   14 A1   15 A1   12 B1                 
  1.157   1.192   1.251   1.284   1.299   1.305   1.305   1.346
 16 A1   13 B1   17 A1    4 B2   18 A1    5 B2   14 B1    4 A2                 
  1.456   1.459   1.461   1.637   1.793   1.868   1.905   1.913
  5 A2   15 B1    6 B2   16 B1   19 A1   17 B1    7 B2   20 A1                 
  1.955   2.038   2.047   2.113   2.140   2.193   2.248   2.278
 18 B1   21 A1    6 A2    8 B2   19 B1    9 B2   22 A1   23 A1                 
  2.351   2.503   2.584   2.663   2.734   2.764   3.015   3.043
  7 A2   20 B1    8 A2   24 A1   21 B1   22 B1   25 A1   26 A1                 
  3.442   3.519
 23 B1   24 B1                                                                 
 
 Beta MOs, Restricted
 -- Occupied --                  
-11.065 -11.063  -0.871  -0.613  -0.487  -0.398  -0.342  -0.208
  1 A1    1 B1    2 A1    2 B1    3 A1    4 A1    3 B1    1 B2                 
 -0.023
  5 A1                                                                         
 -- Virtual --                   
  0.185   0.198   0.224   0.226   0.232   0.251   0.315   0.337
  4 B1    6 A1    2 B2    1 A2    7 A1    5 B1    8 A1    2 A2                 
  0.351   0.439   0.470   0.484   0.503   0.508   0.518   0.550
  6 B1    9 A1    7 B1   10 A1   11 A1    8 B1    3 B2    9 B1                 
  0.551   0.601   0.704   0.778   0.978   1.011   1.078   1.098
 12 A1    3 A2   10 B1   11 B1   13 A1   14 A1   15 A1   12 B1                 
  1.157   1.192   1.251   1.284   1.299   1.305   1.305   1.346
 16 A1   13 B1   17 A1    4 B2   18 A1    5 B2   14 B1    4 A2                 
  1.456   1.459   1.461   1.637   1.793   1.868   1.905   1.913
  5 A2   15 B1    6 B2   16 B1   19 A1   17 B1    7 B2   20 A1                 
  1.955   2.038   2.047   2.113   2.140   2.193   2.248   2.278
 18 B1   21 A1    6 A2    8 B2   19 B1    9 B2   22 A1   23 A1                 
  2.351   2.503   2.584   2.663   2.734   2.764   3.015   3.043
  7 A2   20 B1    8 A2   24 A1   21 B1   22 B1   25 A1   26 A1                 
  3.442   3.519
 23 B1   24 B1                                                                 
 --------------------------------------------------------------
 
          Ground-State Mulliken Net Atomic Charges

     Atom                 Charge (a.u.)
  ----------------------------------------
      1 C                    -0.381376
      2 C                    -0.381376
      3 H                     0.183422
      4 H                     0.183422
      5 H                     0.040361
      6 H                     0.040361
      7 H                    -0.684814
  ----------------------------------------
  Sum of atomic charges =    -1.000000

 -----------------------------------------------------------------
                    Cartesian Multipole Moments
 -----------------------------------------------------------------
    Charge (ESU x 10^10)
                -4.8032
    Dipole Moment (Debye)
         X      -0.0000      Y       0.0000      Z     -11.0496
       Tot      11.0496
    Quadrupole Moments (Debye-Ang)
        XX     -19.0784     XY       0.0000     YY     -21.9530
        XZ      -0.0000     YZ       0.0000     ZZ     -51.6076
    Octopole Moments (Debye-Ang^2)
       XXX       0.0000    XXY       0.0000    XYY      -0.0000
       YYY       0.0000    XXZ      -8.6905    XYZ      -0.0000
       YYZ      -9.4067    XZZ      -0.0000    YZZ       0.0000
       ZZZ    -115.3967
    Hexadecapole Moments (Debye-Ang^3)
      XXXX     -88.6938   XXXY      -0.0000   XXYY     -21.9412
      XYYY       0.0000   YYYY     -39.7711   XXXZ      -0.0000
      XXYZ       0.0000   XYYZ      -0.0000   YYYZ       0.0000
      XXZZ     -55.8861   XYZZ       0.0000   YYZZ     -50.4451
      XZZZ      -0.0000   YZZZ       0.0000   ZZZZ    -492.6174
 -----------------------------------------------------------------
 Total job time:  122.43s(wall), 182.44s(cpu) 
 Sun Mar 27 17:59:29 2022

        *************************************************************
        *                                                           *
        *  Thank you very much for using Q-Chem.  Have a nice day.  *
        *                                                           *
        *************************************************************


