/src/tsommerfeld/qchem/exe/qcprog.exe .input1.027778.6664.qcin.1 /src/jdavis/qchem.scratch/qchem6664/

                  Welcome to Q-Chem
     A Quantum Leap Into The Future Of Chemistry


 Q-Chem 5.4 (devel), Q-Chem, Inc., Pleasanton, CA (2021)

 E. Epifanovsky,  A. T. B. Gilbert,  Xintian Feng,  Joonho Lee,  Yuezhi Mao,  
 N. Mardirossian,  P. Pokhilko,  A. White,  M. Wormit,  M. P. Coons,  
 A. L. Dempwolff,  Zhengting Gan,  D. Hait,  P. R. Horn,  L. D. Jacobson,  
 I. Kaliman,  J. Kussmann,  A. W. Lange,  Ka Un Lao,  D. S. Levine,  Jie Liu,  
 S. C. McKenzie,  A. F. Morrison,  K. Nanda,  F. Plasser,  D. R. Rehn,  
 M. L. Vidal,  Zhi-Qiang You,  Ying Zhu,  B. Alam,  B. Albrecht,  
 A. Aldossary,  E. Alguire,  J. H. Andersen,  D. Barton,  K. Begam,  A. Behn,  
 Y. A. Bernard,  E. J. Berquist,  H. Burton,  A. Carreras,  K. Carter-Fenk,  
 R. Chakraborty,  A. D. Chien,  K. D. Closser,  V. Cofer-Shabica,  
 S. Dasgupta,  Jia Deng,  M. de Wergifosse,  M. Diedenhofen,  Hainam Do,  
 S. Ehlert,  Po-Tung Fang,  S. Fatehi,  Qingguo Feng,  T. Friedhoff,  
 J. Gayvert,  Qinghui Ge,  G. Gidofalvi,  M. Goldey,  J. Gomes,  
 C. Gonzalez-Espinoza,  S. Gulania,  A. Gunina,  M. W. D. Hanson-Heine,  
 P. H. P. Harbach,  A. W. Hauser,  M. F. Herbst,  M. Hernandez Vera,  
 M. Hodecker,  Z. C. Holden,  S. Houck,  Xunkun Huang,  Kerwin Hui,  
 B. C. Huynh,  M. Ivanov,  Hyunjun Ji,  Hanjie Jiang,  B. Kaduk,  S. Kaehler,  
 K. Khistyaev,  Jaehoon Kim,  P. Klunzinger,  Z. Koczor-Benda,  
 Joong Hoon Koh,  D. Kosenkov,  L. Koulias,  T. Kowalczyk,  C. M. Krauter,  
 K. Kue,  A. Kunitsa,  T. Kus,  A. Landau,  K. V. Lawler,  D. Lefrancois,  
 S. Lehtola,  Rain Li,  Yi-Pei Li,  Jiashu Liang,  M. Liebenthal,  
 Hung-Hsuan Lin,  You-Sheng Lin,  Fenglai Liu,  Kuan-Yu Liu,  
 M. Loipersberger,  A. Luenser,  A. Manjanath,  P. Manohar,  E. Mansoor,  
 S. F. Manzer,  Shan-Ping Mao,  A. V. Marenich,  T. Markovich,  S. Mason,  
 S. A. Maurer,  P. F. McLaughlin,  M. F. S. J. Menger,  J.-M. Mewes,  
 S. A. Mewes,  P. Morgante,  J. W. Mullinax,  K. J. Oosterbaan,  G. Paran,  
 Alexander C. Paul,  Suranjan K. Paul,  F. Pavosevic,  Zheng Pei,  S. Prager,  
 E. I. Proynov,  E. Ramos,  B. Rana,  A. E. Rask,  A. Rettig,  R. M. Richard,  
 F. Rob,  E. Rossomme,  T. Scheele,  M. Scheurer,  M. Schneider,  
 N. Sergueev,  S. M. Sharada,  W. Skomorowski,  D. W. Small,  C. J. Stein,  
 Yu-Chuan Su,  E. J. Sundstrom,  Zhen Tao,  J. Thirman,  T. Tsuchimochi,  
 N. M. Tubman,  S. P. Veccham,  O. Vydrov,  J. Wenzel,  J. Witte,  A. Yamada,  
 Kun Yao,  S. Yeganeh,  S. R. Yost,  A. Zech,  Igor Ying Zhang,  Xing Zhang,  
 Yu Zhang,  D. Zuev,  A. Aspuru-Guzik,  A. T. Bell,  N. A. Besley,  
 K. B. Bravaya,  B. R. Brooks,  D. Casanova,  Jeng-Da Chai,  S. Coriani,  
 C. J. Cramer,  A. E. DePrince, III,  R. A. DiStasio Jr.,  A. Dreuw,  
 B. D. Dunietz,  T. R. Furlani,  W. A. Goddard III,  S. Grimme,  
 S. Hammes-Schiffer,  T. Head-Gordon,  W. J. Hehre,  Chao-Ping Hsu,  
 T.-C. Jagau,  Yousung Jung,  A. Klamt,  Jing Kong,  D. S. Lambrecht,  
 WanZhen Liang,  N. J. Mayhall,  C. W. McCurdy,  J. B. Neaton,  
 C. Ochsenfeld,  J. A. Parkhill,  R. Peverati,  V. A. Rassolov,  Yihan Shao,  
 L. V. Slipchenko,  T. Stauch,  R. P. Steele,  J. E. Subotnik,  
 A. J. W. Thom,  A. Tkatchenko,  D. G. Truhlar,  T. Van Voorhis,  
 T. A. Wesolowski,  K. B. Whaley,  H. L. Woodcock III,  P. M. Zimmerman,  
 S. Faraji,  P. M. W. Gill,  M. Head-Gordon,  J. M. Herbert,  A. I. Krylov

 Additional authors for Version 5.4.1: 
 S. Kotaru,  Shaozhi Li,  Xiangyuan Li,  F. Matz,  A. Molle,  Haisheng Ren,  
 Yingli Su,  Hung-Yi Tsai,  C. Utku,  Fang Wang

 Contributors to earlier versions of Q-Chem not listed above: 
 R. D. Adamson,  B. Austin,  R. Baer,  J. Baker,  G. J. O. Beran,  
 K. Brandhorst,  S. T. Brown,  E. F. C. Byrd,  A. K. Chakraborty,  
 G. K. L. Chan,  Chun-Min Chang,  Yunqing Chen,  C.-L. Cheng,  
 Siu Hung Chien,  D. M. Chipman,  D. L. Crittenden,  H. Dachsel,  
 R. J. Doerksen,  A. D. Dutoi,  R. G. Edgar,  J. Fosso-Tande,  
 L. Fusti-Molnar,  D. Ghosh,  A. Ghysels,  A. Golubeva-Zadorozhnaya,  
 J. Gonthier,  M. S. Gordon,  S. R. Gwaltney,  G. Hawkins,  J. E. Herr,  
 A. Heyden,  S. Hirata,  E. G. Hohenstein,  G. Kedziora,  F. J. Keil,  
 C. Kelley,  Jihan Kim,  R. A. King,  R. Z. Khaliullin,  P. P. Korambath,  
 W. Kurlancheek,  A. Laurent,  A. M. Lee,  M. S. Lee,  S. V. Levchenko,  
 Ching Yeh Lin,  D. Liotard,  E. Livshits,  R. C. Lochan,  I. Lotan,  
 L. A. Martinez-Martinez,  P. E. Maslen,  N. Nair,  D. P. O'Neill,  
 D. Neuhauser,  E. Neuscamman,  C. M. Oana,  R. Olivares-Amaya,  R. Olson,  
 T. M. Perrine,  B. Peters,  P. A. Pieniazek,  A. Prociuk,  Y. M. Rhee,  
 J. Ritchie,  M. A. Rohrdanz,  E. Rosta,  N. J. Russ,  H. F. Schaefer III,  
 M. W. Schmidt,  N. E. Schultz,  S. Sharma,  N. Shenvi,  C. D. Sherrill,  
 A. C. Simmonett,  A. Sodt,  T. Stein,  D. Stuck,  K. S. Thanthiriwatte,  
 V. Vanovschi,  L. Vogt,  Tao Wang,  A. Warshel,  M. A. Watson,  
 C. F. Williams,  Q. Wu,  X. Xu,  Jun Yang,  W. Zhang,  Yan Zhao

 Please cite Q-Chem as follows:
 Y. Shao et al., Mol. Phys. 113, 184-215 (2015)
 DOI: 10.1080/00268976.2014.952696

 Q-Chem 5.4.1 for Intel X86 EM64T Linux

 Parts of Q-Chem use Armadillo 9.900.5 (Nocturnal Misbehaviour).
 http://arma.sourceforge.net/

 Q-Chem begins on Sun Mar 27 20:23:49 2022  

 Host: node01
0

     Scratch files written to /src/jdavis/qchem.scratch/qchem6664//
 Processing $rem in /src/tsommerfeld/qchem/config/preferences:
 Processing $rem in /home/jdavis/.qchemrc:

 Checking the input file for inconsistencies... 	...done.

--------------------------------------------------------------
User input:
--------------------------------------------------------------
$molecule
0 1
C        -0.6645000000    0.0000000000   -0.2082049804
C         0.6645000000    0.0000000000   -0.2082049804
H        -1.1590800000    0.0000000000    0.7541440196
H         1.1590800000    0.0000000000    0.7541440196
H        -1.1590800000    0.0000000000   -1.1705529804
H         1.1590800000    0.0000000000   -1.1705529804
$end

$rem
   METHOD adc(2)
   BASIS gen
   PURECART 11
   EA_STATES [0,0,10,0,0,0,0,0]
   scf_convergence 8
   ADC_DAVIDSON_MAXITER 120
   ADC_DAVIDSON_MAXSUBSPACE 200
   adc_nguess_singles 100
   THRESH 14
   S2THRESH 14
   adc_davidson_conv 5
   adc_davidson_thresh 14
   THREADS 10
   MEM_TOTAL 95000
   STATE_ANALYSIS TRUE
$end
$basis
C 1
S   9   1.00
      6.665000D+03           6.920000D-04
      1.000000D+03           5.329000D-03
      2.280000D+02           2.707700D-02
      6.471000D+01           1.017180D-01
      2.106000D+01           2.747400D-01
      7.495000D+00           4.485640D-01
      2.797000D+00           2.850740D-01
      5.215000D-01           1.520400D-02
      1.596000D-01          -3.191000D-03
S   9   1.00
      6.665000D+03          -1.460000D-04
      1.000000D+03          -1.154000D-03
      2.280000D+02          -5.725000D-03
      6.471000D+01          -2.331200D-02
      2.106000D+01          -6.395500D-02
      7.495000D+00          -1.499810D-01
      2.797000D+00          -1.272620D-01
      5.215000D-01           5.445290D-01
      1.596000D-01           5.804960D-01
S   1   1.00
      1.596000D-01           1.000000D+00
S   1   1.00
      0.0469000              1.0000000
P   4   1.00
      9.439000D+00           3.810900D-02
      2.002000D+00           2.094800D-01
      5.456000D-01           5.085570D-01
      1.517000D-01           4.688420D-01
P   1   1.00
      1.517000D-01           1.000000D+00
P   1   1.00
      0.0623656      1.0000000
P   1   1.00
      0.0311828      1.0000000
D   1   1.00
      5.500000D-01           1.0000000
****
C 2
S   9   1.00
      6.665000D+03           6.920000D-04
      1.000000D+03           5.329000D-03
      2.280000D+02           2.707700D-02
      6.471000D+01           1.017180D-01
      2.106000D+01           2.747400D-01
      7.495000D+00           4.485640D-01
      2.797000D+00           2.850740D-01
      5.215000D-01           1.520400D-02
      1.596000D-01          -3.191000D-03
S   9   1.00
      6.665000D+03          -1.460000D-04
      1.000000D+03          -1.154000D-03
      2.280000D+02          -5.725000D-03
      6.471000D+01          -2.331200D-02
      2.106000D+01          -6.395500D-02
      7.495000D+00          -1.499810D-01
      2.797000D+00          -1.272620D-01
      5.215000D-01           5.445290D-01
      1.596000D-01           5.804960D-01
S   1   1.00
      1.596000D-01           1.000000D+00
S   1   1.00
      0.0469000              1.0000000
P   4   1.00
      9.439000D+00           3.810900D-02
      2.002000D+00           2.094800D-01
      5.456000D-01           5.085570D-01
      1.517000D-01           4.688420D-01
P   1   1.00
      1.517000D-01           1.000000D+00
P   1   1.00
      0.0623656      1.0000000
P   1   1.00
      0.0311828      1.0000000
D   1   1.00
      5.500000D-01           1.0000000
****
H 3
cc-pVDZ
****
H 4
cc-pVDZ
****
H 5
cc-pVDZ
****
H 6
cc-pVDZ
****
H 7
aug-cc-pVDZ
****
$end
--------------------------------------------------------------
 Atom   2: ( -0.6645000000, -0.0000001250,  0.0000000000)
         ->( -0.6645000000,  0.0000001250, -0.0000000000)
 Atom   1: (  0.6645000000, -0.0000001250, -0.0000000000)
         ->(  0.6645000000,  0.0000000000,  0.0000000000)
 Atom   6: ( -1.1590800000, -0.9623481250, -0.0000000000)
         ->( -1.1590800000, -0.9623488750,  0.0000000000)
 Atom   5: (  1.1590800000, -0.9623481250, -0.0000000000)
         ->(  1.1590800000, -0.9623488750, -0.0000000000)
 ----------------------------------------------------------------
             Standard Nuclear Orientation (Angstroms)
    I     Atom           X                Y                Z
 ----------------------------------------------------------------
    1      C       0.6645000000     0.0000000000     0.0000000000
    2      C      -0.6645000000     0.0000001250    -0.0000000000
    3      H       1.1590800000     0.9623488750     0.0000000000
    4      H      -1.1590800000     0.9623488750     0.0000000000
    5      H       1.1590800000    -0.9623488750    -0.0000000000
    6      H      -1.1590800000    -0.9623488750     0.0000000000
 ----------------------------------------------------------------
 Molecular Point Group                 D2h   NOp =  8
 Largest Abelian Subgroup              D2h   NOp =  8
 Nuclear Repulsion Energy =          33.58921667 hartrees
 There are        8 alpha and        8 beta electrons
 Requested basis set is non-standard
 There are 30 shells and 62 basis functions
 Total memory of 95000 MB is distributed as follows: 
   MEM_STATIC is set to 192 MB
   QALLOC/CCMAN JOB total memory use is  94808 MB
 Warning: actual memory use might exceed 95000 MB

 Total QAlloc Memory Limit  95000 MB
 Mega-Array Size       188 MB
 MEM_STATIC part       192 MB

                       Distance Matrix (Angstroms)
             C (  1)   C (  2)   H (  3)   H (  4)   H (  5)
   C (  2)  1.329000
   H (  3)  1.082000  2.061931
   H (  4)  2.061931  1.082000  2.318160
   H (  5)  1.082000  2.061931  1.924698  3.013026
   H (  6)  2.061931  1.082000  3.013026  1.924698  2.318160
 
 A cutoff of  1.0D-14 yielded    465 shell pairs
 There are      2009 function pairs (      2146 Cartesian)
 Smallest overlap matrix eigenvalue = 2.37E-04

 Scale SEOQF with 1.000000e-01/1.000000e-01/1.000000e-01

 Standard Electronic Orientation quadrupole field applied
 Nucleus-field energy     =     0.0000000006 hartrees
 ================ Generating on-the-fly SAD Guess ================
Attempting to make child job directory: /src/jdavis/qchem.scratch/qchem6664//Frg1/
Attempting to make child job directory: /src/jdavis/qchem.scratch/qchem6664//Frg2/
Creating input file /src/jdavis/qchem.scratch/qchem6664/Frg1.input
using default PutDataFrgm: nothing
calling putenv with: QCSCRATCH=/src/jdavis/qchem.scratch/qchem6664/ 
Spawning Job For Fragment 0
Done Job For Fragment 0
calling putenv with: QCSCRATCH=/src/jdavis/qchem.scratch 
calling putenv with: QCTHREADS=1 
Creating input file /src/jdavis/qchem.scratch/qchem6664/Frg2.input
using default PutDataFrgm: nothing
calling putenv with: QCSCRATCH=/src/jdavis/qchem.scratch/qchem6664/ 
Spawning Job For Fragment 1
Done Job For Fragment 1
calling putenv with: QCSCRATCH=/src/jdavis/qchem.scratch 
calling putenv with: QCTHREADS=1 
 Time for running child jobs:  CPU 1.77 s  wall 54.41 s
 ============= Method Specific SAD Guess Constructed =============
 Guess from on-the-fly superposition of atomic densities
 Warning: Energy on first SCF cycle will be non-variational
 A restricted Hartree-Fock SCF calculation will be
 performed using Pulay DIIS extrapolation
 SCF converges when DIIS error is below 1.0E-08
 using 10 threads for integral computing
 -------------------------------------------------------
 OpenMP Integral computing Module                
 Release: version 1.0, May 2013, Q-Chem Inc. Pittsburgh 
 -------------------------------------------------------
 ---------------------------------------
  Cycle       Energy         DIIS Error
 ---------------------------------------
    1     -78.4573109264      7.95E-02
    2     -78.0143052464      5.76E-03
    3     -78.0356214989      1.51E-03
    4     -78.0372571875      5.01E-04
    5     -78.0374273812      6.09E-05
    6     -78.0374322373      1.28E-05
    7     -78.0374326086      3.03E-06
    8     -78.0374326651      2.74E-07
    9     -78.0374326700      3.44E-08
   10     -78.0374326703      3.63E-09 Convergence criterion met
 ---------------------------------------
 SCF time:  CPU 9.07 s  wall 0.91 s
 SCF   energy in the final basis set = -78.03743267
 Total energy in the final basis set = -78.03743267
================================================================================
|                                                                              |
|                                 A D C  M A N                                 |
|                                                                              |
 ------------------------------------------------------------------------------ 
|                                                                              |
| Components:                                                                  |
|                                                                              |
| - libvmm - 1.3-trunk                                                         |
|   Authors:                                                                   |
|   Evgeny Epifanovsky, Ilya Kaliman                                           |
|                                                                              |
| - libtensor - 2.5-trunk                                                      |
|   Authors:                                                                   |
|   Evgeny Epifanovsky, Michael Wormit, Dmitry Zuev, Sam Manzer,               |
|   Ilya Kaliman                                                               |
|                                                                              |
| - libwfa - 1.1-trunk                                                         |
|   Authors:                                                                   |
|   Felix Plasser, Stefanie Mewes (Baeppler), Benjamin Thomitzni,              |
|   Michael Wormit, Feng Chen, Anna I. Krylov, Pavel Pokhilko                  |
|                                                                              |
| - libadc - 1.1-trunk                                                         |
|   Authors:                                                                   |
|   Michael Wormit, Adrian L. Dempwolff, Philipp H. P. Harbach,                |
|   Caroline Krauter, Dirk Rehn, Matthias Schneider, Jan Wenzel                |
|                                                                              |
| - adcman - 2.6-trunk                                                         |
|   Authors:                                                                   |
|   Michael Wormit, Adrian L. Dempwolff, Philipp H. P. Harbach,                |
|   Caroline Krauter, Daniel Lefrancois, Jan-Michael Mewes, Dirk Rehn,         |
|   Matthias Schneider, Jan Wenzel, Andreas Dreuw                              |
|                                                                              |
| Authors of earlier versions of ADCMAN:                                       |
| Andreas Dreuw, Jan Hendrik Starcke, Dirk Rehn, Michael Wormit                |
|                                                                              |
================================================================================

 
 Alpha MOs, Restricted
 -- Occupied --                  
-11.237 -11.235  -1.042  -0.782  -0.660  -0.567  -0.515  -0.377
  1 Ag    1 B3u   2 Ag    2 B3u   1 B2u   3 Ag    1 B1g   1 B1u                
 -- Virtual --                   
  0.057   0.064   0.073   0.079   0.083   0.087   0.121   0.159
  3 B3u   2 B2u   2 B1u   4 Ag    1 B2g   2 B1g   5 Ag    2 B2g                
  0.194   0.257   0.261   0.277   0.279   0.285   0.286   0.340
  4 B3u   3 B2u   6 Ag    3 B1g   5 B3u   7 Ag    3 B1u   4 B2u                
  0.362   0.365   0.544   0.597   0.803   0.861   0.884   0.930
  6 B3u   3 B2g   4 B1g   7 B3u   8 Ag    5 B2u   9 Ag    8 B3u                
  0.932   1.010   1.038   1.054   1.059   1.076   1.114   1.270
  6 B2u   4 B1u  10 Ag    4 B2g   5 B1g   9 B3u   1 B3g  10 B3u                
  1.285   1.286   1.376   1.615   1.624   1.717   1.865   1.942
  1 Au    5 B1u   6 B1g  11 Ag    7 B1g   7 B2u   5 B2g   6 B1u                
  1.942   2.017   2.039   2.079   2.177   2.323   2.412   2.459
 11 B3u   2 B3g  12 Ag    8 B2u   6 B2g  12 B3u   2 Au   13 Ag                 
  2.575   2.582   2.807   2.816   3.242   3.339
 13 B3u   8 B1g   9 B2u  14 Ag   14 B3u   9 B1g                                
 
 Beta MOs, Restricted
 -- Occupied --                  
-11.237 -11.235  -1.042  -0.782  -0.660  -0.567  -0.515  -0.377
  1 Ag    1 B3u   2 Ag    2 B3u   1 B2u   3 Ag    1 B1g   1 B1u                
 -- Virtual --                   
  0.057   0.064   0.073   0.079   0.083   0.087   0.121   0.159
  3 B3u   2 B2u   2 B1u   4 Ag    1 B2g   2 B1g   5 Ag    2 B2g                
  0.194   0.257   0.261   0.277   0.279   0.285   0.286   0.340
  4 B3u   3 B2u   6 Ag    3 B1g   5 B3u   7 Ag    3 B1u   4 B2u                
  0.362   0.365   0.544   0.597   0.803   0.861   0.884   0.930
  6 B3u   3 B2g   4 B1g   7 B3u   8 Ag    5 B2u   9 Ag    8 B3u                
  0.932   1.010   1.038   1.054   1.059   1.076   1.114   1.270
  6 B2u   4 B1u  10 Ag    4 B2g   5 B1g   9 B3u   1 B3g  10 B3u                
  1.285   1.286   1.376   1.615   1.624   1.717   1.865   1.942
  1 Au    5 B1u   6 B1g  11 Ag    7 B1g   7 B2u   5 B2g   6 B1u                
  1.942   2.017   2.039   2.079   2.177   2.323   2.412   2.459
 11 B3u   2 B3g  12 Ag    8 B2u   6 B2g  12 B3u   2 Au   13 Ag                 
  2.575   2.582   2.807   2.816   3.242   3.339
 13 B3u   8 B1g   9 B2u  14 Ag   14 B3u   9 B1g                                

--------------------------------------------------------------------------------
                                   HF Summary                                   
--------------------------------------------------------------------------------
  Energy:                                                  -78.0374326703 a.u.
  Dip. moment [a.u.]:                  [   0.000000,   -0.000001,    0.000000]
  Total dipole [Debye]:                                               0.000001
  <r^2> [a.u.]:                        [  47.721774,   22.124439,   11.986226]
  Total <r^2> [a.u.]:                                                81.832439
--------------------------------------------------------------------------------

--------------------------------------------------------------------------------
                                 MP(2) Summary                                  
--------------------------------------------------------------------------------
  MP energy contribution:                                   -0.2824608495 a.u.
  Total energy:                                            -78.3198935199 a.u.
  Dip. moment [a.u.]:                  [   0.000000,   -0.000001,    0.000000]
  Total dipole [Debye]:                                               0.000002
  <r^2> [a.u.]:                        [  47.831809,   22.157813,   11.839596]
  Total <r^2> [a.u.]:                                                81.829218

  Density matrix analysis:
  ------------------------
  NOs (alpha)
    Occupation of frontier NOs:
       0.0224   0.9685
    Number of electrons:  8.000000
  NOs (beta)
    Occupation of frontier NOs:
       0.0224   0.9685
    Number of electrons:  8.000000
  NOs (spin-traced)
    Occupation of frontier NOs:
       0.0447   1.9371
    Number of electrons: 16.000000
    Number of unpaired electrons: n_u =  0.40922, n_u,nl =  0.04602
    NO participation ratio (PR_NO): 13.961108
  
  
  Mulliken Population Analysis
  Atom  Charge (e)    Spin (e)  h+ (alpha)   h+ (beta)  e- (alpha)   e- (beta)
  ----------------------------------------------------------------------------
   1 C   -0.178859   -0.000000    0.043893    0.043893   -0.051251   -0.051251
   2 C   -0.178859   -0.000000    0.043893    0.043893   -0.051251   -0.051251
   3 H    0.089426   -0.000000    0.008900    0.008900   -0.005221   -0.005221
   4 H    0.089437   -0.000000    0.008900    0.008900   -0.005221   -0.005221
   5 H    0.089433    0.000000    0.008900    0.008900   -0.005221   -0.005221
   6 H    0.089422    0.000000    0.008900    0.008900   -0.005221   -0.005221
  ----------------------------------------------------------------------------
  Sum:   -0.000000   -0.000000    0.123387    0.123387   -0.123387   -0.123387
  
  Multipole moment analysis of the density matrix
    Molecular charge:                      -0.000000
    Number of electrons:                   16.000000
      Center of electronic charge [Ang]: [ -0.000000,   0.000000,  -0.000000]
    Total nuclear charge:                  16.000000
      Center of nuclear charge [Ang]:    [  0.000000,   0.000000,   0.000000]
    Dipole moment [D]:                     0.000002
      Cartesian components [D]:          [  0.000000,  -0.000002,   0.000000]
    RMS size of the density [Ang]:         1.196728
      Cartesian components [Ang]:        [  0.914955,   0.622737,   0.455208]
  
  Exciton analysis of the difference density matrix
  Total:
    <r_h> [Ang]:                  [  0.000000,  -0.000000,   0.000000]
    <r_e> [Ang]:                  [  0.000000,   0.000000,   0.000000]
    |<r_e - r_h>| [Ang]:            0.000000
    Hole size [Ang]:                1.416703
      Cartesian components [Ang]: [  0.964077,   0.723512,   0.744402]
    Electron size [Ang]:            1.415412
      Cartesian components [Ang]: [  1.026795,   0.749227,   0.622691]
  
  Alpha spin:
    <r_h> [Ang]:                  [  0.000000,  -0.000000,   0.000000]
    <r_e> [Ang]:                  [  0.000000,   0.000000,   0.000000]
    |<r_e - r_h>| [Ang]:            0.000000
    Hole size [Ang]:                1.416703
      Cartesian components [Ang]: [  0.964077,   0.723512,   0.744402]
    Electron size [Ang]:            1.415412
      Cartesian components [Ang]: [  1.026795,   0.749227,   0.622691]
  
  Beta spin:
    <r_h> [Ang]:                  [  0.000000,  -0.000000,   0.000000]
    <r_e> [Ang]:                  [  0.000000,   0.000000,   0.000000]
    |<r_e - r_h>| [Ang]:            0.000000
    Hole size [Ang]:                1.416703
      Cartesian components [Ang]: [  0.964077,   0.723512,   0.744402]
    Electron size [Ang]:            1.415412
      Cartesian components [Ang]: [  1.026795,   0.749227,   0.622691]
--------------------------------------------------------------------------------
Less particle guess vectors found than requested: 6 (found), 100 (requested).
Adjusting number of hole-2particle guess vectors to 94.
  Starting Davidson for electron-attached states of irrep B2g ... 
--------------------------------------------------------------------------------
   It NVec Conv  Avg. Norm  Max. Norm  Conv. states           Remark
--------------------------------------------------------------------------------
       100    0  4.463e-02  3.098e-01  0.0840 n n n n n n n n Guess.
    1  110    7  1.645e-04  1.185e-03  0.0717 n n n y y y y y 
    2  120   10  5.576e-10  4.083e-09  0.0717 y y y y y y y y Converged.
--------------------------------------------------------------------------------
  Davidson Summary: 
 ------------------------------------------------------------
  State  0: electron attachment energy =   0.0717 a.u.   (converged)
  State  1: electron attachment energy =   0.1222 a.u.   (converged)
  State  2: electron attachment energy =   0.3255 a.u.   (converged)
  State  3: electron attachment energy =   0.5129 a.u.   (converged)
  State  4: electron attachment energy =   0.5129 a.u.   (converged)
  State  5: electron attachment energy =   0.5281 a.u.   (converged)
  State  6: electron attachment energy =   0.5281 a.u.   (converged)
  State  7: electron attachment energy =   0.5332 a.u.   (converged)
  State  8: electron attachment energy =   0.5333 a.u.   (converged)
  State  9: electron attachment energy =   0.5546 a.u.   (converged)
 ------------------------------------------------------------


--------------------------------------------------------------------------------
                        Electron-Attached State Summary
--------------------------------------------------------------------------------

  Electron-attached state 1 (B2g)                                  [converged]
  ----------------------------------------------------------------------------
  Term symbol:  1 (2) B2g                                   R^2 =  3.63263e-09

  Total energy:                                            -78.2481904494 a.u.
  Electron attachment energy:                                      1.951140 eV

  Pole strength:                                                      0.971851

  Dip. moment [a.u.]:                  [   0.000000,   -0.000001,   -0.000000]
  Total dipole [Debye]:                                               0.000002
  <r^2> [a.u.]:                        [  67.784655,   29.010172,   30.618930]
  Total <r^2> [a.u.]:                                               127.413757

  V1^2 = 0.9787, V2^2 = 0.0213

  Important amplitudes:
       occ i       vir a        vir b           v   
    -------------------------------------------------
                               1 (B2g) B      0.9453
                               2 (B2g) B      0.2834
    -------------------------------------------------

  Density matrix analysis:
  ------------------------
  NOs (alpha)
    Occupation of frontier NOs:
       0.0197   0.9674
    Number of electrons:  8.000000
  NOs (beta)
    Occupation of frontier NOs:
       0.0248   0.9720
    Number of electrons:  9.000000
  NOs (spin-traced)
    Occupation of frontier NOs:
       0.0383   0.9906
    Number of electrons: 17.000000
    Number of unpaired electrons: n_u =  1.41872, n_u,nl =  1.04618
    NO participation ratio (PR_NO):  2.026138
  
  
  Mulliken Population Analysis
  Atom  Charge (e)    Spin (e)  h+ (alpha)   h+ (beta)  e- (alpha)   e- (beta)
  ----------------------------------------------------------------------------
   1 C   -0.619505    0.522370    0.049990    0.043734   -0.009128   -0.525242
   2 C   -0.619505    0.522370    0.049990    0.043734   -0.009128   -0.525242
   3 H    0.059749   -0.011185   -0.000108    0.003310   -0.020323   -0.012556
   4 H    0.059760   -0.011185   -0.000108    0.003310   -0.020323   -0.012556
   5 H    0.059756   -0.011185   -0.000108    0.003310   -0.020323   -0.012557
   6 H    0.059745   -0.011185   -0.000108    0.003310   -0.020323   -0.012556
  ----------------------------------------------------------------------------
  Sum:   -1.000000    1.000000    0.099549    0.100709   -0.099549   -1.100709
  
  Multipole moment analysis of the density matrix
    Molecular charge:                      -1.000000
    Number of electrons:                   17.000000
      Center of electronic charge [Ang]: [ -0.000000,   0.000000,   0.000000]
    Total nuclear charge:                  16.000000
      Center of nuclear charge [Ang]:    [  0.000000,   0.000000,   0.000000]
    Dipole moment [D]:                     0.000002
      Cartesian components [D]:          [  0.000000,  -0.000002,  -0.000000]
    RMS size of the density [Ang]:         1.448721
      Cartesian components [Ang]:        [  1.056677,   0.691277,   0.710185]
  
  Exciton analysis of the difference density matrix
  Total:
    <r_h> [Ang]:                  [  0.000000,   0.000000,  -0.000000]
    <r_e> [Ang]:                  [  0.000000,   0.000000,   0.000000]
    |<r_e - r_h>| [Ang]:            0.000000
    Hole size [Ang]:                1.567332
      Cartesian components [Ang]: [  1.071175,   0.790540,   0.827140]
    Electron size [Ang]:            3.323409
      Cartesian components [Ang]: [  2.201494,   1.304980,   2.120259]
  
  Alpha spin:
    <r_h> [Ang]:                  [  0.000000,   0.000000,  -0.000000]
    <r_e> [Ang]:                  [  0.000000,   0.000000,  -0.000000]
    |<r_e - r_h>| [Ang]:            0.000000
    Hole size [Ang]:                1.446215
      Cartesian components [Ang]: [  1.027516,   0.737792,   0.701008]
    Electron size [Ang]:            2.193664
      Cartesian components [Ang]: [  1.422628,   1.275029,   1.078235]
  
  Beta spin:
    <r_h> [Ang]:                  [ -0.000000,   0.000000,  -0.000000]
    <r_e> [Ang]:                  [ -0.000000,   0.000000,   0.000000]
    |<r_e - r_h>| [Ang]:            0.000000
    Hole size [Ang]:                1.678485
      Cartesian components [Ang]: [  1.112648,   0.839429,   0.935247]
    Electron size [Ang]:            3.407162
      Cartesian components [Ang]: [  2.258731,   1.307655,   2.190189]
  ----------------------------------------------------------------------------


  Electron-attached state 2 (B2g)                                  [converged]
  ----------------------------------------------------------------------------
  Term symbol:  2 (2) B2g                                   R^2 =  4.08328e-09

  Total energy:                                            -78.1976586309 a.u.
  Electron attachment energy:                                      3.326180 eV

  Pole strength:                                                      0.955433

  Dip. moment [a.u.]:                  [   0.000000,   -0.000001,    0.000000]
  Total dipole [Debye]:                                               0.000002
  <r^2> [a.u.]:                        [  68.281975,   29.435540,   30.957812]
  Total <r^2> [a.u.]:                                               128.675327

  V1^2 = 0.9652, V2^2 = 0.0348

  Important amplitudes:
       occ i       vir a        vir b           v   
    -------------------------------------------------
                               2 (B2g) B     -0.9223
                               1 (B2g) B      0.3123
    -------------------------------------------------

  Density matrix analysis:
  ------------------------
  NOs (alpha)
    Occupation of frontier NOs:
       0.0199   0.9652
    Number of electrons:  8.000000
  NOs (beta)
    Occupation of frontier NOs:
       0.0253   0.9750
    Number of electrons:  9.000000
  NOs (spin-traced)
    Occupation of frontier NOs:
       0.0358   0.9866
    Number of electrons: 17.000000
    Number of unpaired electrons: n_u =  1.42688, n_u,nl =  1.04744
    NO participation ratio (PR_NO):  2.065201
  
  
  Mulliken Population Analysis
  Atom  Charge (e)    Spin (e)  h+ (alpha)   h+ (beta)  e- (alpha)   e- (beta)
  ----------------------------------------------------------------------------
   1 C   -0.577199    0.517263    0.080658    0.056364   -0.021196   -0.514166
   2 C   -0.577199    0.517263    0.080658    0.056364   -0.021196   -0.514166
   3 H    0.038597   -0.008632    0.000405    0.003429   -0.030136   -0.024528
   4 H    0.038607   -0.008632    0.000405    0.003429   -0.030136   -0.024528
   5 H    0.038602   -0.008632    0.000405    0.003429   -0.030136   -0.024528
   6 H    0.038592   -0.008632    0.000405    0.003429   -0.030136   -0.024528
  ----------------------------------------------------------------------------
  Sum:   -1.000000    1.000000    0.162936    0.126444   -0.162936   -1.126444
  
  Multipole moment analysis of the density matrix
    Molecular charge:                      -1.000000
    Number of electrons:                   17.000000
      Center of electronic charge [Ang]: [ -0.000000,   0.000000,  -0.000000]
    Total nuclear charge:                  16.000000
      Center of nuclear charge [Ang]:    [  0.000000,   0.000000,   0.000000]
    Dipole moment [D]:                     0.000002
      Cartesian components [D]:          [  0.000000,  -0.000002,   0.000000]
    RMS size of the density [Ang]:         1.455876
      Cartesian components [Ang]:        [  1.060546,   0.696326,   0.714105]
  
  Exciton analysis of the difference density matrix
  Total:
    <r_h> [Ang]:                  [ -0.000000,   0.000000,  -0.000000]
    <r_e> [Ang]:                  [  0.000000,   0.000000,  -0.000000]
    |<r_e - r_h>| [Ang]:            0.000000
    Hole size [Ang]:                1.358575
      Cartesian components [Ang]: [  0.988171,   0.694316,   0.622229]
    Electron size [Ang]:            3.253969
      Cartesian components [Ang]: [  2.158828,   1.299529,   2.058883]
  
  Alpha spin:
    <r_h> [Ang]:                  [  0.000000,   0.000000,  -0.000000]
    <r_e> [Ang]:                  [  0.000000,   0.000000,  -0.000000]
    |<r_e - r_h>| [Ang]:            0.000000
    Hole size [Ang]:                1.365414
      Cartesian components [Ang]: [  0.986281,   0.683318,   0.651676]
    Electron size [Ang]:            2.154775
      Cartesian components [Ang]: [  1.413415,   1.233009,   1.060660]
  
  Beta spin:
    <r_h> [Ang]:                  [ -0.000000,   0.000000,  -0.000000]
    <r_e> [Ang]:                  [ -0.000000,   0.000000,  -0.000000]
    |<r_e - r_h>| [Ang]:            0.000000
    Hole size [Ang]:                1.349710
      Cartesian components [Ang]: [  0.990601,   0.708235,   0.582089]
    Electron size [Ang]:            3.383530
      Cartesian components [Ang]: [  2.246264,   1.308871,   2.165509]
  ----------------------------------------------------------------------------


  Electron-attached state 3 (B2g)                                  [converged]
  ----------------------------------------------------------------------------
  Term symbol:  3 (2) B2g                                   R^2 =  1.10503e-09

  Total energy:                                            -77.9943598863 a.u.
  Electron attachment energy:                                      8.858221 eV

  Pole strength:                                                      0.956932

  Dip. moment [a.u.]:                  [   0.000000,   -0.000001,    0.000000]
  Total dipole [Debye]:                                               0.000002
  <r^2> [a.u.]:                        [  64.448010,   28.097308,   27.825338]
  Total <r^2> [a.u.]:                                               120.370655

  V1^2 = 0.9601, V2^2 = 0.0399

  Important amplitudes:
       occ i       vir a        vir b           v   
    -------------------------------------------------
                               3 (B2g) B      0.9613
                               2 (B2g) B     -0.1773
    -------------------------------------------------

  Density matrix analysis:
  ------------------------
  NOs (alpha)
    Occupation of frontier NOs:
       0.0301   0.9523
    Number of electrons:  8.000000
  NOs (beta)
    Occupation of frontier NOs:
       0.0353   0.9647
    Number of electrons:  9.000000
  NOs (spin-traced)
    Occupation of frontier NOs:
       0.0621   0.9685
    Number of electrons: 17.000000
    Number of unpaired electrons: n_u =  1.47186, n_u,nl =  1.06738
    NO participation ratio (PR_NO):  2.265603
  
  
  Mulliken Population Analysis
  Atom  Charge (e)    Spin (e)  h+ (alpha)   h+ (beta)  e- (alpha)   e- (beta)
  ----------------------------------------------------------------------------
   1 C   -0.603668    0.508723    0.056365    0.039771   -0.014408   -0.506537
   2 C   -0.603668    0.508723    0.056365    0.039771   -0.014408   -0.506537
   3 H    0.051831   -0.004361   -0.000706    0.000022   -0.020273   -0.016639
   4 H    0.051842   -0.004361   -0.000706    0.000021   -0.020273   -0.016639
   5 H    0.051837   -0.004361   -0.000706    0.000021   -0.020273   -0.016639
   6 H    0.051826   -0.004361   -0.000706    0.000022   -0.020273   -0.016639
  ----------------------------------------------------------------------------
  Sum:   -1.000000    1.000000    0.109907    0.079628   -0.109907   -1.079628
  
  Multipole moment analysis of the density matrix
    Molecular charge:                      -1.000000
    Number of electrons:                   17.000000
      Center of electronic charge [Ang]: [ -0.000000,   0.000000,  -0.000000]
    Total nuclear charge:                  16.000000
      Center of nuclear charge [Ang]:    [  0.000000,   0.000000,   0.000000]
    Dipole moment [D]:                     0.000002
      Cartesian components [D]:          [  0.000000,  -0.000002,   0.000000]
    RMS size of the density [Ang]:         1.408111
      Cartesian components [Ang]:        [  1.030342,   0.680313,   0.677013]
  
  Exciton analysis of the difference density matrix
  Total:
    <r_h> [Ang]:                  [  0.000000,   0.000000,  -0.000000]
    <r_e> [Ang]:                  [  0.000000,   0.000000,  -0.000000]
    |<r_e - r_h>| [Ang]:            0.000000
    Hole size [Ang]:                1.366407
      Cartesian components [Ang]: [  0.981726,   0.707555,   0.634546]
    Electron size [Ang]:            3.061132
      Cartesian components [Ang]: [  2.016230,   1.215724,   1.956364]
  
  Alpha spin:
    <r_h> [Ang]:                  [  0.000000,   0.000000,  -0.000000]
    <r_e> [Ang]:                  [  0.000000,   0.000000,   0.000000]
    |<r_e - r_h>| [Ang]:            0.000000
    Hole size [Ang]:                1.275531
      Cartesian components [Ang]: [  0.934163,   0.643182,   0.583639]
    Electron size [Ang]:            2.116688
      Cartesian components [Ang]: [  1.393382,   1.213741,   1.032322]
  
  Beta spin:
    <r_h> [Ang]:                  [  0.000000,   0.000000,  -0.000000]
    <r_e> [Ang]:                  [  0.000000,   0.000000,  -0.000000]
    |<r_e - r_h>| [Ang]:            0.000000
    Hole size [Ang]:                1.482718
      Cartesian components [Ang]: [  1.043820,   0.787813,   0.698745]
    Electron size [Ang]:            3.141393
      Cartesian components [Ang]: [  2.069149,   1.215926,   2.026944]
  ----------------------------------------------------------------------------


  Electron-attached state 4 (B2g)                                  [converged]
  ----------------------------------------------------------------------------
  Term symbol:  4 (2) B2g                                   R^2 =  8.38865e-15

  Total energy:                                            -77.8069631589 a.u.
  Electron attachment energy:                                     13.957545 eV

  Pole strength:                                                      0.000001

  Dip. moment [a.u.]:                  [  -0.000000,   -0.000001,    0.000000]
  Total dipole [Debye]:                                               0.000003
  <r^2> [a.u.]:                        [ 144.540581,   42.386938,   30.309661]
  Total <r^2> [a.u.]:                                               217.237180

  V1^2 = 0.0000, V2^2 = 1.0000

  Important amplitudes:
       occ i       vir a        vir b           v   
    -------------------------------------------------
     1 (B1u) A    3 (B3u) A    4 (Ag ) B     -0.5346
     1 (B1u) B    4 (Ag ) B    3 (B3u) B      0.4561
    -------------------------------------------------

  Density matrix analysis:
  ------------------------
  NOs (alpha)
    Occupation of frontier NOs:
       0.3853   0.5719
    Number of electrons:  8.000000
  NOs (beta)
    Occupation of frontier NOs:
       0.4287   0.5528
    Number of electrons:  9.000000
  NOs (spin-traced)
    Occupation of frontier NOs:
       0.9380   1.0006
    Number of electrons: 17.000000
    Number of unpaired electrons: n_u =  3.28044, n_u,nl =  3.02334
    NO participation ratio (PR_NO):  3.730067
  
  
  Mulliken Population Analysis
  Atom  Charge (e)    Spin (e)  h+ (alpha)   h+ (beta)  e- (alpha)   e- (beta)
  ----------------------------------------------------------------------------
   1 C   -0.687864    0.544239    0.288570    0.205638   -0.270952   -0.732260
   2 C   -0.687864    0.544239    0.288570    0.205638   -0.270952   -0.732260
   3 H    0.093928   -0.022120    0.001691    0.001205   -0.010500    0.012106
   4 H    0.093940   -0.022120    0.001691    0.001205   -0.010500    0.012106
   5 H    0.093935   -0.022120    0.001691    0.001205   -0.010500    0.012106
   6 H    0.093924   -0.022120    0.001691    0.001205   -0.010500    0.012106
  ----------------------------------------------------------------------------
  Sum:   -1.000000    1.000000    0.583903    0.416097   -0.583903   -1.416097
  
  Multipole moment analysis of the density matrix
    Molecular charge:                      -1.000000
    Number of electrons:                   17.000000
      Center of electronic charge [Ang]: [  0.000000,   0.000000,  -0.000000]
    Total nuclear charge:                  16.000000
      Center of nuclear charge [Ang]:    [  0.000000,   0.000000,   0.000000]
    Dipole moment [D]:                     0.000003
      Cartesian components [D]:          [ -0.000000,  -0.000003,   0.000000]
    RMS size of the density [Ang]:         1.891663
      Cartesian components [Ang]:        [  1.543020,   0.835589,   0.706590]
  
  Exciton analysis of the difference density matrix
  Total:
    <r_h> [Ang]:                  [ -0.000000,   0.000000,   0.000000]
    <r_e> [Ang]:                  [  0.000000,   0.000000,  -0.000000]
    |<r_e - r_h>| [Ang]:            0.000000
    Hole size [Ang]:                1.251882
      Cartesian components [Ang]: [  0.747843,   0.510251,   0.864629]
    Electron size [Ang]:            4.443271
      Cartesian components [Ang]: [  3.717559,   1.721204,   1.720426]
  
  Alpha spin:
    <r_h> [Ang]:                  [ -0.000000,   0.000000,   0.000000]
    <r_e> [Ang]:                  [ -0.000000,   0.000000,  -0.000000]
    |<r_e - r_h>| [Ang]:            0.000000
    Hole size [Ang]:                1.251882
      Cartesian components [Ang]: [  0.747843,   0.510251,   0.864629]
    Electron size [Ang]:            4.495538
      Cartesian components [Ang]: [  3.651723,   1.874343,   1.833474]
  
  Beta spin:
    <r_h> [Ang]:                  [ -0.000000,   0.000000,   0.000000]
    <r_e> [Ang]:                  [  0.000000,   0.000000,  -0.000000]
    |<r_e - r_h>| [Ang]:            0.000000
    Hole size [Ang]:                1.251882
      Cartesian components [Ang]: [  0.747843,   0.510251,   0.864629]
    Electron size [Ang]:            4.421539
      Cartesian components [Ang]: [  3.744369,   1.653937,   1.671588]
  ----------------------------------------------------------------------------


  Electron-attached state 5 (B2g)                                  [converged]
  ----------------------------------------------------------------------------
  Term symbol:  5 (2) B2g                                   R^2 =  1.12458e-13

  Total energy:                                            -77.8069460345 a.u.
  Electron attachment energy:                                     13.958011 eV

  Pole strength:                                                      0.000052

  Dip. moment [a.u.]:                  [  -0.000000,   -0.000001,    0.000000]
  Total dipole [Debye]:                                               0.000003
  <r^2> [a.u.]:                        [ 144.568032,   42.391701,   30.311575]
  Total <r^2> [a.u.]:                                               217.271307

  V1^2 = 0.0001, V2^2 = 0.9999

  Important amplitudes:
       occ i       vir a        vir b           v   
    -------------------------------------------------
     1 (B1u) A    4 (Ag ) A    3 (B3u) B     -0.5720
     1 (B1u) B    4 (Ag ) B    3 (B3u) B     -0.3539
    -------------------------------------------------

  Density matrix analysis:
  ------------------------
  NOs (alpha)
    Occupation of frontier NOs:
       0.2207   0.6547
    Number of electrons:  8.000000
  NOs (beta)
    Occupation of frontier NOs:
       0.3461   0.7181
    Number of electrons:  9.000000
  NOs (spin-traced)
    Occupation of frontier NOs:
       0.9381   1.0005
    Number of electrons: 17.000000
    Number of unpaired electrons: n_u =  3.28073, n_u,nl =  3.02336
    NO participation ratio (PR_NO):  3.730225
  
  
  Mulliken Population Analysis
  Atom  Charge (e)    Spin (e)  h+ (alpha)   h+ (beta)  e- (alpha)   e- (beta)
  ----------------------------------------------------------------------------
   1 C   -0.687626    0.454091    0.370355    0.123830   -0.397693   -0.605259
   2 C   -0.687626    0.454091    0.370355    0.123830   -0.397693   -0.605259
   3 H    0.093810    0.022955    0.002170    0.000726    0.011499   -0.010011
   4 H    0.093821    0.022954    0.002170    0.000726    0.011499   -0.010011
   5 H    0.093817    0.022954    0.002170    0.000726    0.011499   -0.010011
   6 H    0.093806    0.022954    0.002170    0.000726    0.011499   -0.010011
  ----------------------------------------------------------------------------
  Sum:   -1.000000    1.000000    0.749390    0.250561   -0.749390   -1.250561
  
  Multipole moment analysis of the density matrix
    Molecular charge:                      -1.000000
    Number of electrons:                   17.000000
      Center of electronic charge [Ang]: [  0.000000,   0.000000,  -0.000000]
    Total nuclear charge:                  16.000000
      Center of nuclear charge [Ang]:    [  0.000000,   0.000000,   0.000000]
    Dipole moment [D]:                     0.000003
      Cartesian components [D]:          [ -0.000000,  -0.000003,   0.000000]
    RMS size of the density [Ang]:         1.891811
      Cartesian components [Ang]:        [  1.543167,   0.835636,   0.706612]
  
  Exciton analysis of the difference density matrix
  Total:
    <r_h> [Ang]:                  [ -0.000000,   0.000000,   0.000000]
    <r_e> [Ang]:                  [  0.000000,   0.000000,  -0.000000]
    |<r_e - r_h>| [Ang]:            0.000000
    Hole size [Ang]:                1.251875
      Cartesian components [Ang]: [  0.747843,   0.510249,   0.864620]
    Electron size [Ang]:            4.443856
      Cartesian components [Ang]: [  3.718119,   1.721417,   1.720517]
  
  Alpha spin:
    <r_h> [Ang]:                  [ -0.000000,   0.000000,   0.000000]
    <r_e> [Ang]:                  [  0.000000,   0.000000,  -0.000000]
    |<r_e - r_h>| [Ang]:            0.000000
    Hole size [Ang]:                1.251885
      Cartesian components [Ang]: [  0.747845,   0.510253,   0.864631]
    Electron size [Ang]:            4.402991
      Cartesian components [Ang]: [  3.768875,   1.592092,   1.627010]
  
  Beta spin:
    <r_h> [Ang]:                  [ -0.000000,   0.000000,   0.000000]
    <r_e> [Ang]:                  [ -0.000000,   0.000000,  -0.000000]
    |<r_e - r_h>| [Ang]:            0.000000
    Hole size [Ang]:                1.251844
      Cartesian components [Ang]: [  0.747835,   0.510237,   0.864590]
    Electron size [Ang]:            4.468165
      Cartesian components [Ang]: [  3.687369,   1.794453,   1.774190]
  ----------------------------------------------------------------------------


  Electron-attached state 6 (B2g)                                  [converged]
  ----------------------------------------------------------------------------
  Term symbol:  6 (2) B2g                                   R^2 =  9.41137e-15

  Total energy:                                            -77.7917486772 a.u.
  Electron attachment energy:                                     14.371552 eV

  Pole strength:                                                      0.000000

  Dip. moment [a.u.]:                  [   0.000000,   -0.000000,    0.000000]
  Total dipole [Debye]:                                               0.000001
  <r^2> [a.u.]:                        [  93.205038,   90.924241,   31.792993]
  Total <r^2> [a.u.]:                                               215.922272

  V1^2 = 0.0000, V2^2 = 1.0000

  Important amplitudes:
       occ i       vir a        vir b           v   
    -------------------------------------------------
     1 (B1u) A    2 (B1g) A    2 (B2u) B      0.5268
     1 (B1u) B    2 (B1g) B    2 (B2u) B      0.4680
    -------------------------------------------------

  Density matrix analysis:
  ------------------------
  NOs (alpha)
    Occupation of frontier NOs:
       0.4072   0.5553
    Number of electrons:  8.000000
  NOs (beta)
    Occupation of frontier NOs:
       0.4452   0.5309
    Number of electrons:  9.000000
  NOs (spin-traced)
    Occupation of frontier NOs:
       0.9380   1.0005
    Number of electrons: 17.000000
    Number of unpaired electrons: n_u =  3.28032, n_u,nl =  3.02331
    NO participation ratio (PR_NO):  3.730001
  
  
  Mulliken Population Analysis
  Atom  Charge (e)    Spin (e)  h+ (alpha)   h+ (beta)  e- (alpha)   e- (beta)
  ----------------------------------------------------------------------------
   1 C   -0.549858    0.471413    0.277726    0.216482   -0.227519   -0.637688
   2 C   -0.549858    0.471413    0.277726    0.216482   -0.227519   -0.637688
   3 H    0.024926    0.014293    0.001627    0.001268   -0.026731   -0.040665
   4 H    0.024937    0.014294    0.001627    0.001268   -0.026731   -0.040666
   5 H    0.024932    0.014294    0.001627    0.001268   -0.026731   -0.040666
   6 H    0.024921    0.014293    0.001627    0.001268   -0.026731   -0.040665
  ----------------------------------------------------------------------------
  Sum:   -1.000000    1.000000    0.561961    0.438039   -0.561961   -1.438039
  
  Multipole moment analysis of the density matrix
    Molecular charge:                      -1.000000
    Number of electrons:                   17.000000
      Center of electronic charge [Ang]: [ -0.000000,   0.000000,  -0.000000]
    Total nuclear charge:                  16.000000
      Center of nuclear charge [Ang]:    [  0.000000,   0.000000,   0.000000]
    Dipole moment [D]:                     0.000001
      Cartesian components [D]:          [  0.000000,  -0.000001,   0.000000]
    RMS size of the density [Ang]:         1.885929
      Cartesian components [Ang]:        [  1.239071,   1.223817,   0.723673]
  
  Exciton analysis of the difference density matrix
  Total:
    <r_h> [Ang]:                  [ -0.000000,   0.000000,   0.000000]
    <r_e> [Ang]:                  [ -0.000000,  -0.000000,   0.000000]
    |<r_e - r_h>| [Ang]:            0.000000
    Hole size [Ang]:                1.251882
      Cartesian components [Ang]: [  0.747843,   0.510251,   0.864629]
    Electron size [Ang]:            4.422504
      Cartesian components [Ang]: [  2.575371,   3.123853,   1.779762]
  
  Alpha spin:
    <r_h> [Ang]:                  [ -0.000000,   0.000000,   0.000000]
    <r_e> [Ang]:                  [  0.000000,  -0.000000,   0.000000]
    |<r_e - r_h>| [Ang]:            0.000000
    Hole size [Ang]:                1.251882
      Cartesian components [Ang]: [  0.747843,   0.510251,   0.864629]
    Electron size [Ang]:            4.695600
      Cartesian components [Ang]: [  3.091321,   3.075135,   1.742394]
  
  Beta spin:
    <r_h> [Ang]:                  [ -0.000000,   0.000000,   0.000000]
    <r_e> [Ang]:                  [ -0.000000,   0.000000,  -0.000000]
    |<r_e - r_h>| [Ang]:            0.000000
    Hole size [Ang]:                1.251882
      Cartesian components [Ang]: [  0.747843,   0.510251,   0.864629]
    Electron size [Ang]:            4.311084
      Cartesian components [Ang]: [  2.343072,   3.142686,   1.794153]
  ----------------------------------------------------------------------------


  Electron-attached state 7 (B2g)                                  [converged]
  ----------------------------------------------------------------------------
  Term symbol:  7 (2) B2g                                   R^2 =  1.18051e-14

  Total energy:                                            -77.7917479111 a.u.
  Electron attachment energy:                                     14.371573 eV

  Pole strength:                                                      0.000002

  Dip. moment [a.u.]:                  [   0.000000,   -0.000000,    0.000000]
  Total dipole [Debye]:                                               0.000001
  <r^2> [a.u.]:                        [  93.205062,   90.923948,   31.793356]
  Total <r^2> [a.u.]:                                               215.922366

  V1^2 = 0.0000, V2^2 = 1.0000

  Important amplitudes:
       occ i       vir a        vir b           v   
    -------------------------------------------------
     1 (B1u) A    2 (B2u) A    2 (B1g) B      0.5743
     1 (B1u) B    2 (B1g) B    2 (B2u) B     -0.3381
    -------------------------------------------------

  Density matrix analysis:
  ------------------------
  NOs (alpha)
    Occupation of frontier NOs:
       0.1989   0.6602
    Number of electrons:  8.000000
  NOs (beta)
    Occupation of frontier NOs:
       0.3407   0.7401
    Number of electrons:  9.000000
  NOs (spin-traced)
    Occupation of frontier NOs:
       0.9380   1.0005
    Number of electrons: 17.000000
    Number of unpaired electrons: n_u =  3.28036, n_u,nl =  3.02331
    NO participation ratio (PR_NO):  3.730034
  
  
  Mulliken Population Analysis
  Atom  Charge (e)    Spin (e)  h+ (alpha)   h+ (beta)  e- (alpha)   e- (beta)
  ----------------------------------------------------------------------------
   1 C   -0.549857    0.434864    0.381216    0.112991   -0.349283   -0.515922
   2 C   -0.549857    0.434864    0.381216    0.112991   -0.349283   -0.515922
   3 H    0.024925    0.032568    0.002234    0.000662   -0.018200   -0.049197
   4 H    0.024936    0.032568    0.002234    0.000662   -0.018200   -0.049197
   5 H    0.024932    0.032568    0.002234    0.000662   -0.018200   -0.049197
   6 H    0.024921    0.032568    0.002234    0.000662   -0.018200   -0.049197
  ----------------------------------------------------------------------------
  Sum:   -1.000000    1.000000    0.771367    0.228631   -0.771367   -1.228631
  
  Multipole moment analysis of the density matrix
    Molecular charge:                      -1.000000
    Number of electrons:                   17.000000
      Center of electronic charge [Ang]: [ -0.000000,   0.000000,  -0.000000]
    Total nuclear charge:                  16.000000
      Center of nuclear charge [Ang]:    [  0.000000,   0.000000,   0.000000]
    Dipole moment [D]:                     0.000001
      Cartesian components [D]:          [  0.000000,  -0.000001,   0.000000]
    RMS size of the density [Ang]:         1.885930
      Cartesian components [Ang]:        [  1.239072,   1.223815,   0.723677]
  
  Exciton analysis of the difference density matrix
  Total:
    <r_h> [Ang]:                  [ -0.000000,   0.000000,   0.000000]
    <r_e> [Ang]:                  [ -0.000000,  -0.000000,   0.000000]
    |<r_e - r_h>| [Ang]:            0.000000
    Hole size [Ang]:                1.251880
      Cartesian components [Ang]: [  0.747842,   0.510250,   0.864627]
    Electron size [Ang]:            4.422507
      Cartesian components [Ang]: [  2.575372,   3.123848,   1.779776]
  
  Alpha spin:
    <r_h> [Ang]:                  [ -0.000000,   0.000000,   0.000000]
    <r_e> [Ang]:                  [ -0.000000,   0.000000,  -0.000000]
    |<r_e - r_h>| [Ang]:            0.000000
    Hole size [Ang]:                1.251882
      Cartesian components [Ang]: [  0.747843,   0.510251,   0.864629]
    Electron size [Ang]:            4.212423
      Cartesian components [Ang]: [  2.121924,   3.158873,   1.806505]
  
  Beta spin:
    <r_h> [Ang]:                  [ -0.000000,   0.000000,   0.000000]
    <r_e> [Ang]:                  [  0.000000,  -0.000000,   0.000000]
    |<r_e - r_h>| [Ang]:            0.000000
    Hole size [Ang]:                1.251872
      Cartesian components [Ang]: [  0.747840,   0.510246,   0.864621]
    Electron size [Ang]:            4.549449
      Cartesian components [Ang]: [  2.823083,   3.101656,   1.762788]
  ----------------------------------------------------------------------------


  Electron-attached state 8 (B2g)                                  [converged]
  ----------------------------------------------------------------------------
  Term symbol:  8 (2) B2g                                   R^2 =  9.56212e-15

  Total energy:                                            -77.7867328134 a.u.
  Electron attachment energy:                                     14.508041 eV

  Pole strength:                                                      0.000504

  Dip. moment [a.u.]:                  [   0.000000,   -0.000001,   -0.000000]
  Total dipole [Debye]:                                               0.000002
  <r^2> [a.u.]:                        [  85.880862,   42.242278,   72.165181]
  Total <r^2> [a.u.]:                                               200.288321

  V1^2 = 0.0005, V2^2 = 0.9995

  Important amplitudes:
       occ i       vir a        vir b           v   
    -------------------------------------------------
     1 (B1u) B    1 (B2g) B    2 (B1u) B      0.5246
     1 (B1u) A    2 (B1u) A    1 (B2g) B     -0.4707
    -------------------------------------------------

  Density matrix analysis:
  ------------------------
  NOs (alpha)
    Occupation of frontier NOs:
       0.4409   0.5227
    Number of electrons:  8.000000
  NOs (beta)
    Occupation of frontier NOs:
       0.4167   0.5588
    Number of electrons:  9.000000
  NOs (spin-traced)
    Occupation of frontier NOs:
       0.9255   1.0043
    Number of electrons: 17.000000
    Number of unpaired electrons: n_u =  3.24765, n_u,nl =  3.01823
    NO participation ratio (PR_NO):  3.728751
  
  
  Mulliken Population Analysis
  Atom  Charge (e)    Spin (e)  h+ (alpha)   h+ (beta)  e- (alpha)   e- (beta)
  ----------------------------------------------------------------------------
   1 C   -0.682790    0.499447    0.222373    0.272504   -0.224615   -0.774193
   2 C   -0.682790    0.499447    0.222373    0.272504   -0.224615   -0.774193
   3 H    0.091392    0.000276    0.001301    0.001599   -0.000180   -0.000755
   4 H    0.091403    0.000276    0.001301    0.001599   -0.000180   -0.000755
   5 H    0.091398    0.000276    0.001301    0.001599   -0.000180   -0.000755
   6 H    0.091387    0.000276    0.001301    0.001599   -0.000180   -0.000755
  ----------------------------------------------------------------------------
  Sum:   -1.000000    1.000000    0.449951    0.551406   -0.449951   -1.551406
  
  Multipole moment analysis of the density matrix
    Molecular charge:                      -1.000000
    Number of electrons:                   17.000000
      Center of electronic charge [Ang]: [ -0.000000,   0.000000,   0.000000]
    Total nuclear charge:                  16.000000
      Center of nuclear charge [Ang]:    [  0.000000,   0.000000,   0.000000]
    Dipole moment [D]:                     0.000002
      Cartesian components [D]:          [  0.000000,  -0.000002,  -0.000000]
    RMS size of the density [Ang]:         1.816371
      Cartesian components [Ang]:        [  1.189392,   0.834162,   1.090286]
  
  Exciton analysis of the difference density matrix
  Total:
    <r_h> [Ang]:                  [ -0.000000,   0.000000,   0.000000]
    <r_e> [Ang]:                  [  0.000000,   0.000000,   0.000000]
    |<r_e - r_h>| [Ang]:            0.000000
    Hole size [Ang]:                1.261292
      Cartesian components [Ang]: [  0.751522,   0.515057,   0.872232]
    Electron size [Ang]:            4.167816
      Cartesian components [Ang]: [  2.367780,   1.715499,   2.970079]
  
  Alpha spin:
    <r_h> [Ang]:                  [ -0.000000,   0.000000,   0.000000]
    <r_e> [Ang]:                  [  0.000000,   0.000000,   0.000000]
    |<r_e - r_h>| [Ang]:            0.000000
    Hole size [Ang]:                1.261840
      Cartesian components [Ang]: [  0.751761,   0.515351,   0.872645]
    Electron size [Ang]:            4.147822
      Cartesian components [Ang]: [  1.903563,   1.843102,   3.191214]
  
  Beta spin:
    <r_h> [Ang]:                  [ -0.000000,   0.000000,   0.000000]
    <r_e> [Ang]:                  [  0.000000,   0.000000,   0.000000]
    |<r_e - r_h>| [Ang]:            0.000000
    Hole size [Ang]:                1.260845
      Cartesian components [Ang]: [  0.751327,   0.514817,   0.871895]
    Electron size [Ang]:            4.173597
      Cartesian components [Ang]: [  2.486254,   1.676675,   2.902794]
  ----------------------------------------------------------------------------


  Electron-attached state 9 (B2g)                                  [converged]
  ----------------------------------------------------------------------------
  Term symbol:  9 (2) B2g                                   R^2 =  2.00673e-13

  Total energy:                                            -77.7866233553 a.u.
  Electron attachment energy:                                     14.511019 eV

  Pole strength:                                                      0.001378

  Dip. moment [a.u.]:                  [   0.000000,   -0.000001,   -0.000000]
  Total dipole [Debye]:                                               0.000002
  <r^2> [a.u.]:                        [  85.951033,   42.283297,   72.298820]
  Total <r^2> [a.u.]:                                               200.533149

  V1^2 = 0.0014, V2^2 = 0.9986

  Important amplitudes:
       occ i       vir a        vir b           v   
    -------------------------------------------------
     1 (B1u) A    1 (B2g) A    2 (B1u) B     -0.5743
     1 (B1u) A    2 (B1u) A    1 (B2g) B     -0.3338
    -------------------------------------------------

  Density matrix analysis:
  ------------------------
  NOs (alpha)
    Occupation of frontier NOs:
       0.2236   0.6621
    Number of electrons:  8.000000
  NOs (beta)
    Occupation of frontier NOs:
       0.3411   0.7752
    Number of electrons:  9.000000
  NOs (spin-traced)
    Occupation of frontier NOs:
       0.9385   1.0006
    Number of electrons: 17.000000
    Number of unpaired electrons: n_u =  3.27617, n_u,nl =  3.02228
    NO participation ratio (PR_NO):  3.725263
  
  
  Mulliken Population Analysis
  Atom  Charge (e)    Spin (e)  h+ (alpha)   h+ (beta)  e- (alpha)   e- (beta)
  ----------------------------------------------------------------------------
   1 C   -0.683302    0.495939    0.436382    0.057272   -0.440634   -0.557463
   2 C   -0.683302    0.495939    0.436382    0.057272   -0.440634   -0.557463
   3 H    0.091648    0.002030    0.002557    0.000337   -0.000431   -0.000241
   4 H    0.091659    0.002030    0.002557    0.000337   -0.000431   -0.000241
   5 H    0.091655    0.002030    0.002557    0.000337   -0.000431   -0.000241
   6 H    0.091643    0.002030    0.002557    0.000337   -0.000431   -0.000241
  ----------------------------------------------------------------------------
  Sum:   -1.000000    1.000000    0.882994    0.115890   -0.882994   -1.115890
  
  Multipole moment analysis of the density matrix
    Molecular charge:                      -1.000000
    Number of electrons:                   17.000000
      Center of electronic charge [Ang]: [ -0.000000,   0.000000,   0.000000]
    Total nuclear charge:                  16.000000
      Center of nuclear charge [Ang]:    [  0.000000,   0.000000,   0.000000]
    Dipole moment [D]:                     0.000002
      Cartesian components [D]:          [  0.000000,  -0.000002,  -0.000000]
    RMS size of the density [Ang]:         1.817480
      Cartesian components [Ang]:        [  1.189877,   0.834567,   1.091295]
  
  Exciton analysis of the difference density matrix
  Total:
    <r_h> [Ang]:                  [ -0.000000,   0.000000,   0.000000]
    <r_e> [Ang]:                  [  0.000000,   0.000000,   0.000000]
    |<r_e - r_h>| [Ang]:            0.000000
    Hole size [Ang]:                1.248601
      Cartesian components [Ang]: [  0.746765,   0.508745,   0.861700]
    Electron size [Ang]:            4.172360
      Cartesian components [Ang]: [  2.370419,   1.717197,   2.973371]
  
  Alpha spin:
    <r_h> [Ang]:                  [ -0.000000,   0.000000,   0.000000]
    <r_e> [Ang]:                  [  0.000000,   0.000000,   0.000000]
    |<r_e - r_h>| [Ang]:            0.000000
    Hole size [Ang]:                1.247543
      Cartesian components [Ang]: [  0.746351,   0.508199,   0.860847]
    Electron size [Ang]:            4.183272
      Cartesian components [Ang]: [  2.574968,   1.649006,   2.854835]
  
  Beta spin:
    <r_h> [Ang]:                  [ -0.000000,   0.000000,   0.000000]
    <r_e> [Ang]:                  [  0.000000,   0.000000,   0.000000]
    |<r_e - r_h>| [Ang]:            0.000000
    Hole size [Ang]:                1.256637
      Cartesian components [Ang]: [  0.749911,   0.512885,   0.868170]
    Electron size [Ang]:            4.163704
      Cartesian components [Ang]: [  2.195094,   1.769294,   3.063918]
  ----------------------------------------------------------------------------


  Electron-attached state 10 (B2g)                                  [converged]
  ----------------------------------------------------------------------------
  Term symbol:  10 (2) B2g                                  R^2 =  7.44516e-14

  Total energy:                                            -77.7653117539 a.u.
  Electron attachment energy:                                     15.090937 eV

  Pole strength:                                                      0.000008

  Dip. moment [a.u.]:                  [   0.000000,   -0.000001,    0.000000]
  Total dipole [Debye]:                                               0.000002
  <r^2> [a.u.]:                        [ 104.751500,   44.978111,   35.389608]
  Total <r^2> [a.u.]:                                               185.119219

  V1^2 = 0.0000, V2^2 = 1.0000

  Important amplitudes:
       occ i       vir a        vir b           v   
    -------------------------------------------------
     1 (B1u) A    3 (B3u) A    5 (Ag ) B      0.5757
     1 (B1u) B    5 (Ag ) B    3 (B3u) B     -0.3253
    -------------------------------------------------

  Density matrix analysis:
  ------------------------
  NOs (alpha)
    Occupation of frontier NOs:
       0.1822   0.6632
    Number of electrons:  8.000000
  NOs (beta)
    Occupation of frontier NOs:
       0.3373   0.7570
    Number of electrons:  9.000000
  NOs (spin-traced)
    Occupation of frontier NOs:
       0.9380   1.0005
    Number of electrons: 17.000000
    Number of unpaired electrons: n_u =  3.27693, n_u,nl =  3.02321
    NO participation ratio (PR_NO):  3.726661
  
  
  Mulliken Population Analysis
  Atom  Charge (e)    Spin (e)  h+ (alpha)   h+ (beta)  e- (alpha)   e- (beta)
  ----------------------------------------------------------------------------
   1 C   -0.778201    0.607208    0.389599    0.104606   -0.385665   -0.707881
   2 C   -0.778201    0.607208    0.389599    0.104606   -0.385665   -0.707881
   3 H    0.139097   -0.053604    0.002283    0.000613   -0.004249    0.051025
   4 H    0.139108   -0.053604    0.002283    0.000613   -0.004249    0.051024
   5 H    0.139104   -0.053604    0.002283    0.000613   -0.004249    0.051024
   6 H    0.139093   -0.053604    0.002283    0.000613   -0.004249    0.051025
  ----------------------------------------------------------------------------
  Sum:   -1.000000    1.000000    0.788328    0.211665   -0.788328   -1.211665
  
  Multipole moment analysis of the density matrix
    Molecular charge:                      -1.000000
    Number of electrons:                   17.000000
      Center of electronic charge [Ang]: [ -0.000000,   0.000000,  -0.000000]
    Total nuclear charge:                  16.000000
      Center of nuclear charge [Ang]:    [  0.000000,   0.000000,   0.000000]
    Dipole moment [D]:                     0.000002
      Cartesian components [D]:          [  0.000000,  -0.000002,   0.000000]
    RMS size of the density [Ang]:         1.746234
      Cartesian components [Ang]:        [  1.313581,   0.860750,   0.763510]
  
  Exciton analysis of the difference density matrix
  Total:
    <r_h> [Ang]:                  [ -0.000000,   0.000000,   0.000000]
    <r_e> [Ang]:                  [ -0.000000,   0.000000,  -0.000000]
    |<r_e - r_h>| [Ang]:            0.000000
    Hole size [Ang]:                1.251882
      Cartesian components [Ang]: [  0.747844,   0.510251,   0.864628]
    Electron size [Ang]:            3.904577
      Cartesian components [Ang]: [  2.872147,   1.823556,   1.916021]
  
  Alpha spin:
    <r_h> [Ang]:                  [ -0.000000,   0.000000,   0.000000]
    <r_e> [Ang]:                  [ -0.000000,   0.000000,  -0.000000]
    |<r_e - r_h>| [Ang]:            0.000000
    Hole size [Ang]:                1.251882
      Cartesian components [Ang]: [  0.747843,   0.510251,   0.864629]
    Electron size [Ang]:            4.317991
      Cartesian components [Ang]: [  3.420934,   1.862806,   1.863385]
  
  Beta spin:
    <r_h> [Ang]:                  [ -0.000000,   0.000000,   0.000000]
    <r_e> [Ang]:                  [ -0.000000,   0.000000,  -0.000000]
    |<r_e - r_h>| [Ang]:            0.000000
    Hole size [Ang]:                1.251880
      Cartesian components [Ang]: [  0.747845,   0.510251,   0.864624]
    Electron size [Ang]:            3.610273
      Cartesian components [Ang]: [  2.449957,   1.797559,   1.949504]
  ----------------------------------------------------------------------------


--------------------------------------------------------------------------------
  Time of ADC calculation:  CPU 36.29 s  wall 10.46 s
================================================================================
 
 --------------------------------------------------------------
             Orbital Energies (a.u.) and Symmetries
 --------------------------------------------------------------
 
 Alpha MOs, Restricted
 -- Occupied --                  
-11.237 -11.235  -1.042  -0.782  -0.660  -0.567  -0.515  -0.377
  1 Ag    1 B3u   2 Ag    2 B3u   1 B2u   3 Ag    1 B1g   1 B1u                
 -- Virtual --                   
  0.057   0.064   0.073   0.079   0.083   0.087   0.121   0.159
  3 B3u   2 B2u   2 B1u   4 Ag    1 B2g   2 B1g   5 Ag    2 B2g                
  0.194   0.257   0.261   0.277   0.279   0.285   0.286   0.340
  4 B3u   3 B2u   6 Ag    3 B1g   5 B3u   7 Ag    3 B1u   4 B2u                
  0.362   0.365   0.544   0.597   0.803   0.861   0.884   0.930
  6 B3u   3 B2g   4 B1g   7 B3u   8 Ag    5 B2u   9 Ag    8 B3u                
  0.932   1.010   1.038   1.054   1.059   1.076   1.114   1.270
  6 B2u   4 B1u  10 Ag    4 B2g   5 B1g   9 B3u   1 B3g  10 B3u                
  1.285   1.286   1.376   1.615   1.624   1.717   1.865   1.942
  1 Au    5 B1u   6 B1g  11 Ag    7 B1g   7 B2u   5 B2g   6 B1u                
  1.942   2.017   2.039   2.079   2.177   2.323   2.412   2.459
 11 B3u   2 B3g  12 Ag    8 B2u   6 B2g  12 B3u   2 Au   13 Ag                 
  2.575   2.582   2.807   2.816   3.242   3.339
 13 B3u   8 B1g   9 B2u  14 Ag   14 B3u   9 B1g                                
 
 Beta MOs, Restricted
 -- Occupied --                  
-11.237 -11.235  -1.042  -0.782  -0.660  -0.567  -0.515  -0.377
  1 Ag    1 B3u   2 Ag    2 B3u   1 B2u   3 Ag    1 B1g   1 B1u                
 -- Virtual --                   
  0.057   0.064   0.073   0.079   0.083   0.087   0.121   0.159
  3 B3u   2 B2u   2 B1u   4 Ag    1 B2g   2 B1g   5 Ag    2 B2g                
  0.194   0.257   0.261   0.277   0.279   0.285   0.286   0.340
  4 B3u   3 B2u   6 Ag    3 B1g   5 B3u   7 Ag    3 B1u   4 B2u                
  0.362   0.365   0.544   0.597   0.803   0.861   0.884   0.930
  6 B3u   3 B2g   4 B1g   7 B3u   8 Ag    5 B2u   9 Ag    8 B3u                
  0.932   1.010   1.038   1.054   1.059   1.076   1.114   1.270
  6 B2u   4 B1u  10 Ag    4 B2g   5 B1g   9 B3u   1 B3g  10 B3u                
  1.285   1.286   1.376   1.615   1.624   1.717   1.865   1.942
  1 Au    5 B1u   6 B1g  11 Ag    7 B1g   7 B2u   5 B2g   6 B1u                
  1.942   2.017   2.039   2.079   2.177   2.323   2.412   2.459
 11 B3u   2 B3g  12 Ag    8 B2u   6 B2g  12 B3u   2 Au   13 Ag                 
  2.575   2.582   2.807   2.816   3.242   3.339
 13 B3u   8 B1g   9 B2u  14 Ag   14 B3u   9 B1g                                
 --------------------------------------------------------------
 
          Ground-State Mulliken Net Atomic Charges

     Atom                 Charge (a.u.)
  ----------------------------------------
      1 C                    -0.164143
      2 C                    -0.164143
      3 H                     0.082068
      4 H                     0.082079
      5 H                     0.082075
      6 H                     0.082064
  ----------------------------------------
  Sum of atomic charges =     0.000000

 -----------------------------------------------------------------
                    Cartesian Multipole Moments
 -----------------------------------------------------------------
    Charge (ESU x 10^10)
                -0.0000
    Dipole Moment (Debye)
         X       0.0000      Y      -0.0000      Z       0.0000
       Tot       0.0000
    Quadrupole Moments (Debye-Ang)
        XX     -12.9248     XY       0.0000     YY     -11.9648
        XZ       0.0000     YZ      -0.0000     ZZ     -16.1219
    Octopole Moments (Debye-Ang^2)
       XXX       0.0000    XXY      -0.0000    XYY       0.0000
       YYY      -0.0000    XXZ       0.0000    XYZ      -0.0000
       YYZ       0.0000    XZZ       0.0000    YZZ      -0.0000
       ZZZ      -0.0000
    Hexadecapole Moments (Debye-Ang^3)
      XXXX     -68.1252   XXXY       0.0000   XXYY     -13.2306
      XYYY      -0.0000   YYYY     -26.8770   XXXZ       0.0000
      XXYZ       0.0000   XYYZ       0.0000   YYYZ      -0.0000
      XXZZ     -15.5578   XYZZ       0.0000   YYZZ      -8.9504
      XZZZ       0.0000   YZZZ      -0.0000   ZZZZ     -21.4985
 -----------------------------------------------------------------
 Total job time:  93.10s(wall), 79.49s(cpu) 
 Sun Mar 27 20:25:22 2022

        *************************************************************
        *                                                           *
        *  Thank you very much for using Q-Chem.  Have a nice day.  *
        *                                                           *
        *************************************************************


