/src/tsommerfeld/qchem/exe/qcprog.exe .input0.848485.7351.qcin.1 /src/jdavis/qchem.scratch/qchem7351/

                  Welcome to Q-Chem
     A Quantum Leap Into The Future Of Chemistry


 Q-Chem 5.4 (devel), Q-Chem, Inc., Pleasanton, CA (2021)

 E. Epifanovsky,  A. T. B. Gilbert,  Xintian Feng,  Joonho Lee,  Yuezhi Mao,  
 N. Mardirossian,  P. Pokhilko,  A. White,  M. Wormit,  M. P. Coons,  
 A. L. Dempwolff,  Zhengting Gan,  D. Hait,  P. R. Horn,  L. D. Jacobson,  
 I. Kaliman,  J. Kussmann,  A. W. Lange,  Ka Un Lao,  D. S. Levine,  Jie Liu,  
 S. C. McKenzie,  A. F. Morrison,  K. Nanda,  F. Plasser,  D. R. Rehn,  
 M. L. Vidal,  Zhi-Qiang You,  Ying Zhu,  B. Alam,  B. Albrecht,  
 A. Aldossary,  E. Alguire,  J. H. Andersen,  D. Barton,  K. Begam,  A. Behn,  
 Y. A. Bernard,  E. J. Berquist,  H. Burton,  A. Carreras,  K. Carter-Fenk,  
 R. Chakraborty,  A. D. Chien,  K. D. Closser,  V. Cofer-Shabica,  
 S. Dasgupta,  Jia Deng,  M. de Wergifosse,  M. Diedenhofen,  Hainam Do,  
 S. Ehlert,  Po-Tung Fang,  S. Fatehi,  Qingguo Feng,  T. Friedhoff,  
 J. Gayvert,  Qinghui Ge,  G. Gidofalvi,  M. Goldey,  J. Gomes,  
 C. Gonzalez-Espinoza,  S. Gulania,  A. Gunina,  M. W. D. Hanson-Heine,  
 P. H. P. Harbach,  A. W. Hauser,  M. F. Herbst,  M. Hernandez Vera,  
 M. Hodecker,  Z. C. Holden,  S. Houck,  Xunkun Huang,  Kerwin Hui,  
 B. C. Huynh,  M. Ivanov,  Hyunjun Ji,  Hanjie Jiang,  B. Kaduk,  S. Kaehler,  
 K. Khistyaev,  Jaehoon Kim,  P. Klunzinger,  Z. Koczor-Benda,  
 Joong Hoon Koh,  D. Kosenkov,  L. Koulias,  T. Kowalczyk,  C. M. Krauter,  
 K. Kue,  A. Kunitsa,  T. Kus,  A. Landau,  K. V. Lawler,  D. Lefrancois,  
 S. Lehtola,  Rain Li,  Yi-Pei Li,  Jiashu Liang,  M. Liebenthal,  
 Hung-Hsuan Lin,  You-Sheng Lin,  Fenglai Liu,  Kuan-Yu Liu,  
 M. Loipersberger,  A. Luenser,  A. Manjanath,  P. Manohar,  E. Mansoor,  
 S. F. Manzer,  Shan-Ping Mao,  A. V. Marenich,  T. Markovich,  S. Mason,  
 S. A. Maurer,  P. F. McLaughlin,  M. F. S. J. Menger,  J.-M. Mewes,  
 S. A. Mewes,  P. Morgante,  J. W. Mullinax,  K. J. Oosterbaan,  G. Paran,  
 Alexander C. Paul,  Suranjan K. Paul,  F. Pavosevic,  Zheng Pei,  S. Prager,  
 E. I. Proynov,  E. Ramos,  B. Rana,  A. E. Rask,  A. Rettig,  R. M. Richard,  
 F. Rob,  E. Rossomme,  T. Scheele,  M. Scheurer,  M. Schneider,  
 N. Sergueev,  S. M. Sharada,  W. Skomorowski,  D. W. Small,  C. J. Stein,  
 Yu-Chuan Su,  E. J. Sundstrom,  Zhen Tao,  J. Thirman,  T. Tsuchimochi,  
 N. M. Tubman,  S. P. Veccham,  O. Vydrov,  J. Wenzel,  J. Witte,  A. Yamada,  
 Kun Yao,  S. Yeganeh,  S. R. Yost,  A. Zech,  Igor Ying Zhang,  Xing Zhang,  
 Yu Zhang,  D. Zuev,  A. Aspuru-Guzik,  A. T. Bell,  N. A. Besley,  
 K. B. Bravaya,  B. R. Brooks,  D. Casanova,  Jeng-Da Chai,  S. Coriani,  
 C. J. Cramer,  A. E. DePrince, III,  R. A. DiStasio Jr.,  A. Dreuw,  
 B. D. Dunietz,  T. R. Furlani,  W. A. Goddard III,  S. Grimme,  
 S. Hammes-Schiffer,  T. Head-Gordon,  W. J. Hehre,  Chao-Ping Hsu,  
 T.-C. Jagau,  Yousung Jung,  A. Klamt,  Jing Kong,  D. S. Lambrecht,  
 WanZhen Liang,  N. J. Mayhall,  C. W. McCurdy,  J. B. Neaton,  
 C. Ochsenfeld,  J. A. Parkhill,  R. Peverati,  V. A. Rassolov,  Yihan Shao,  
 L. V. Slipchenko,  T. Stauch,  R. P. Steele,  J. E. Subotnik,  
 A. J. W. Thom,  A. Tkatchenko,  D. G. Truhlar,  T. Van Voorhis,  
 T. A. Wesolowski,  K. B. Whaley,  H. L. Woodcock III,  P. M. Zimmerman,  
 S. Faraji,  P. M. W. Gill,  M. Head-Gordon,  J. M. Herbert,  A. I. Krylov

 Additional authors for Version 5.4.1: 
 S. Kotaru,  Shaozhi Li,  Xiangyuan Li,  F. Matz,  A. Molle,  Haisheng Ren,  
 Yingli Su,  Hung-Yi Tsai,  C. Utku,  Fang Wang

 Contributors to earlier versions of Q-Chem not listed above: 
 R. D. Adamson,  B. Austin,  R. Baer,  J. Baker,  G. J. O. Beran,  
 K. Brandhorst,  S. T. Brown,  E. F. C. Byrd,  A. K. Chakraborty,  
 G. K. L. Chan,  Chun-Min Chang,  Yunqing Chen,  C.-L. Cheng,  
 Siu Hung Chien,  D. M. Chipman,  D. L. Crittenden,  H. Dachsel,  
 R. J. Doerksen,  A. D. Dutoi,  R. G. Edgar,  J. Fosso-Tande,  
 L. Fusti-Molnar,  D. Ghosh,  A. Ghysels,  A. Golubeva-Zadorozhnaya,  
 J. Gonthier,  M. S. Gordon,  S. R. Gwaltney,  G. Hawkins,  J. E. Herr,  
 A. Heyden,  S. Hirata,  E. G. Hohenstein,  G. Kedziora,  F. J. Keil,  
 C. Kelley,  Jihan Kim,  R. A. King,  R. Z. Khaliullin,  P. P. Korambath,  
 W. Kurlancheek,  A. Laurent,  A. M. Lee,  M. S. Lee,  S. V. Levchenko,  
 Ching Yeh Lin,  D. Liotard,  E. Livshits,  R. C. Lochan,  I. Lotan,  
 L. A. Martinez-Martinez,  P. E. Maslen,  N. Nair,  D. P. O'Neill,  
 D. Neuhauser,  E. Neuscamman,  C. M. Oana,  R. Olivares-Amaya,  R. Olson,  
 T. M. Perrine,  B. Peters,  P. A. Pieniazek,  A. Prociuk,  Y. M. Rhee,  
 J. Ritchie,  M. A. Rohrdanz,  E. Rosta,  N. J. Russ,  H. F. Schaefer III,  
 M. W. Schmidt,  N. E. Schultz,  S. Sharma,  N. Shenvi,  C. D. Sherrill,  
 A. C. Simmonett,  A. Sodt,  T. Stein,  D. Stuck,  K. S. Thanthiriwatte,  
 V. Vanovschi,  L. Vogt,  Tao Wang,  A. Warshel,  M. A. Watson,  
 C. F. Williams,  Q. Wu,  X. Xu,  Jun Yang,  W. Zhang,  Yan Zhao

 Please cite Q-Chem as follows:
 Y. Shao et al., Mol. Phys. 113, 184-215 (2015)
 DOI: 10.1080/00268976.2014.952696

 Q-Chem 5.4.1 for Intel X86 EM64T Linux

 Parts of Q-Chem use Armadillo 9.900.5 (Nocturnal Misbehaviour).
 http://arma.sourceforge.net/

 Q-Chem begins on Thu Mar  3 18:26:19 2022  

 Host: node01
0

     Scratch files written to /src/jdavis/qchem.scratch/qchem7351//
 Processing $rem in /src/tsommerfeld/qchem/config/preferences:
 Processing $rem in /home/jdavis/.qchemrc:

 Checking the input file for inconsistencies... 	...done.

--------------------------------------------------------------
User input:
--------------------------------------------------------------
$molecule
-1 1
C        -0.6645000000    0.0000000000    1.1619088658
C         0.6645000000    0.0000000000    1.1619088658
H        -1.1590800000    0.0000000000    0.1995598658
H         1.1590800000    0.0000000000    0.1995598658
H        -1.1590800000    0.0000000000    2.1242568658
H         1.1590800000    0.0000000000    2.1242568658
O         0.0000000000    0.0000000000   -8.84
H         0.0000000000    0.0000000000   -9.81
$end
$rem
   METHOD adc(2)
   BASIS gen
   PURECART 11
   EE_STATES [0,0,0,10]
   scf_convergence 8
   ADC_DAVIDSON_MAXITER 120
   ADC_DAVIDSON_MAXSUBSPACE 200
   adc_nguess_singles 100
   THRESH 14
   S2THRESH 14
   adc_davidson_conv 5
   adc_davidson_thresh 14
   THREADS 10
   MEM_TOTAL 95000
   STATE_ANALYSIS TRUE
$end
$basis
C 1
S   9   1.00
      6.665000D+03           6.920000D-04
      1.000000D+03           5.329000D-03
      2.280000D+02           2.707700D-02
      6.471000D+01           1.017180D-01
      2.106000D+01           2.747400D-01
      7.495000D+00           4.485640D-01
      2.797000D+00           2.850740D-01
      5.215000D-01           1.520400D-02
      1.596000D-01          -3.191000D-03
S   9   1.00
      6.665000D+03          -1.460000D-04
      1.000000D+03          -1.154000D-03
      2.280000D+02          -5.725000D-03
      6.471000D+01          -2.331200D-02
      2.106000D+01          -6.395500D-02
      7.495000D+00          -1.499810D-01
      2.797000D+00          -1.272620D-01
      5.215000D-01           5.445290D-01
      1.596000D-01           5.804960D-01
S   1   1.00
      1.596000D-01           1.000000D+00
S   1   1.00
      0.0469000              1.0000000
P   4   1.00
      9.439000D+00           3.810900D-02
      2.002000D+00           2.094800D-01
      5.456000D-01           5.085570D-01
      1.517000D-01           4.688420D-01
P   1   1.00
      1.517000D-01           1.000000D+00
P   1   1.00
      0.0367758      1.0000000
P   1   1.00
      0.0183879      1.0000000
D   1   1.00
      5.500000D-01           1.0000000
****
C 2
S   9   1.00
      6.665000D+03           6.920000D-04
      1.000000D+03           5.329000D-03
      2.280000D+02           2.707700D-02
      6.471000D+01           1.017180D-01
      2.106000D+01           2.747400D-01
      7.495000D+00           4.485640D-01
      2.797000D+00           2.850740D-01
      5.215000D-01           1.520400D-02
      1.596000D-01          -3.191000D-03
S   9   1.00
      6.665000D+03          -1.460000D-04
      1.000000D+03          -1.154000D-03
      2.280000D+02          -5.725000D-03
      6.471000D+01          -2.331200D-02
      2.106000D+01          -6.395500D-02
      7.495000D+00          -1.499810D-01
      2.797000D+00          -1.272620D-01
      5.215000D-01           5.445290D-01
      1.596000D-01           5.804960D-01
S   1   1.00
      1.596000D-01           1.000000D+00
S   1   1.00
      0.0469000              1.0000000
P   4   1.00
      9.439000D+00           3.810900D-02
      2.002000D+00           2.094800D-01
      5.456000D-01           5.085570D-01
      1.517000D-01           4.688420D-01
P   1   1.00
      1.517000D-01           1.000000D+00
P   1   1.00
      0.0367758      1.0000000
P   1   1.00
      0.0183879      1.0000000
D   1   1.00
      5.500000D-01           1.0000000
****
H 3
cc-pVDZ
****
H 4
cc-pVDZ
****
H 5
cc-pVDZ
****
H 6
cc-pVDZ
****
O 7
aug-cc-pVDZ
****
H 8
cc-pVDZ
****
$end
--------------------------------------------------------------
 ----------------------------------------------------------------
             Standard Nuclear Orientation (Angstroms)
    I     Atom           X                Y                Z
 ----------------------------------------------------------------
    1      C      -0.6645000000     0.0000000000     3.6394872717
    2      C       0.6645000000    -0.0000000000     3.6394872717
    3      H      -1.1590800000     0.0000000000     2.6771382717
    4      H       1.1590800000    -0.0000000000     2.6771382717
    5      H      -1.1590800000     0.0000000000     4.6018352717
    6      H       1.1590800000    -0.0000000000     4.6018352717
    7      O      -0.0000000000     0.0000000000    -6.3624215941
    8      H      -0.0000000000     0.0000000000    -7.3324215941
 ----------------------------------------------------------------
 Molecular Point Group                 C2v   NOp =  4
 Largest Abelian Subgroup              C2v   NOp =  4
 Nuclear Repulsion Energy =          45.48950572 hartrees
 There are       13 alpha and       13 beta electrons
 Requested basis set is non-standard
 There are 42 shells and 90 basis functions
 Total memory of 95000 MB is distributed as follows: 
   MEM_STATIC is set to 192 MB
   QALLOC/CCMAN JOB total memory use is  94808 MB
 Warning: actual memory use might exceed 95000 MB

 Total QAlloc Memory Limit  95000 MB
 Mega-Array Size       188 MB
 MEM_STATIC part       192 MB

                       Distance Matrix (Angstroms)
             C (  1)   C (  2)   H (  3)   H (  4)   H (  5)   H (  6)
   C (  2)  1.329000
   H (  3)  1.082000  2.061931
   H (  4)  2.061931  1.082000  2.318160
   H (  5)  1.082000  2.061931  1.924697  3.013026
   H (  6)  2.061931  1.082000  3.013026  1.924697  2.318160
   O (  7) 10.023958 10.023958  9.113567  9.113567 11.025352 11.025352
   H (  8) 10.992013 10.992013 10.076446 10.076446 11.990411 11.990411
             O (  7)
   H (  8)  0.970000
 
 A cutoff of  1.0D-14 yielded    667 shell pairs
 There are      3043 function pairs (      3287 Cartesian)
 Smallest overlap matrix eigenvalue = 4.42E-04

 Scale SEOQF with 1.000000e-01/1.000000e-01/1.000000e-02

 Standard Electronic Orientation quadrupole field applied
 Nucleus-field energy     =    -0.0000000060 hartrees
 ================ Generating on-the-fly SAD Guess ================
Attempting to make child job directory: /src/jdavis/qchem.scratch/qchem7351//Frg1/
Attempting to make child job directory: /src/jdavis/qchem.scratch/qchem7351//Frg2/
Attempting to make child job directory: /src/jdavis/qchem.scratch/qchem7351//Frg3/
Creating input file /src/jdavis/qchem.scratch/qchem7351/Frg1.input
using default PutDataFrgm: nothing
calling putenv with: QCSCRATCH=/src/jdavis/qchem.scratch/qchem7351/ 
Spawning Job For Fragment 0
Done Job For Fragment 0
calling putenv with: QCSCRATCH=/src/jdavis/qchem.scratch 
calling putenv with: QCTHREADS=1 
Creating input file /src/jdavis/qchem.scratch/qchem7351/Frg2.input
using default PutDataFrgm: nothing
calling putenv with: QCSCRATCH=/src/jdavis/qchem.scratch/qchem7351/ 
Spawning Job For Fragment 1
Done Job For Fragment 1
calling putenv with: QCSCRATCH=/src/jdavis/qchem.scratch 
calling putenv with: QCTHREADS=1 
Creating input file /src/jdavis/qchem.scratch/qchem7351/Frg3.input
using default PutDataFrgm: nothing
calling putenv with: QCSCRATCH=/src/jdavis/qchem.scratch/qchem7351/ 
Spawning Job For Fragment 2
Done Job For Fragment 2
calling putenv with: QCSCRATCH=/src/jdavis/qchem.scratch 
calling putenv with: QCTHREADS=1 
 Time for running child jobs:  CPU 1.77 s  wall 80.82 s
 ============= Method Specific SAD Guess Constructed =============
 Guess from on-the-fly superposition of atomic densities
 Warning: Energy on first SCF cycle will be non-variational
 A restricted Hartree-Fock SCF calculation will be
 performed using Pulay DIIS extrapolation
 SCF converges when DIIS error is below 1.0E-08
 using 10 threads for integral computing
 -------------------------------------------------------
 OpenMP Integral computing Module                
 Release: version 1.0, May 2013, Q-Chem Inc. Pittsburgh 
 -------------------------------------------------------
 ---------------------------------------
  Cycle       Energy         DIIS Error
 ---------------------------------------
    1    -153.5091915115      5.93E-02
    2    -153.2821079117      1.22E-02
    3    -153.3436762119      1.06E-02
    4    -153.4320350837      6.45E-04
    5    -153.4327724062      1.83E-04
    6    -153.4328194541      3.78E-05
    7    -153.4328220018      9.05E-06
    8    -153.4328222631      2.55E-06
    9    -153.4328222833      4.21E-07
   10    -153.4328222838      5.62E-08
   11    -153.4328222838      1.22E-08
   12    -153.4328222838      3.18E-09 Convergence criterion met
 ---------------------------------------
 SCF time:  CPU 12.17 s  wall 1.22 s
 SCF   energy in the final basis set = -153.43282228
 Total energy in the final basis set = -153.43282228
================================================================================
|                                                                              |
|                                 A D C  M A N                                 |
|                                                                              |
 ------------------------------------------------------------------------------ 
|                                                                              |
| Components:                                                                  |
|                                                                              |
| - libvmm - 1.3-trunk                                                         |
|   Authors:                                                                   |
|   Evgeny Epifanovsky, Ilya Kaliman                                           |
|                                                                              |
| - libtensor - 2.5-trunk                                                      |
|   Authors:                                                                   |
|   Evgeny Epifanovsky, Michael Wormit, Dmitry Zuev, Sam Manzer,               |
|   Ilya Kaliman                                                               |
|                                                                              |
| - libwfa - 1.1-trunk                                                         |
|   Authors:                                                                   |
|   Felix Plasser, Stefanie Mewes (Baeppler), Benjamin Thomitzni,              |
|   Michael Wormit, Feng Chen, Anna I. Krylov, Pavel Pokhilko                  |
|                                                                              |
| - libadc - 1.1-trunk                                                         |
|   Authors:                                                                   |
|   Michael Wormit, Adrian L. Dempwolff, Philipp H. P. Harbach,                |
|   Caroline Krauter, Dirk Rehn, Matthias Schneider, Jan Wenzel                |
|                                                                              |
| - adcman - 2.6-trunk                                                         |
|   Authors:                                                                   |
|   Michael Wormit, Adrian L. Dempwolff, Philipp H. P. Harbach,                |
|   Caroline Krauter, Daniel Lefrancois, Jan-Michael Mewes, Dirk Rehn,         |
|   Matthias Schneider, Jan Wenzel, Andreas Dreuw                              |
|                                                                              |
| Authors of earlier versions of ADCMAN:                                       |
| Andreas Dreuw, Jan Hendrik Starcke, Dirk Rehn, Michael Wormit                |
|                                                                              |
================================================================================

 
 Alpha MOs, Restricted
 -- Occupied --                  
-20.199 -11.183 -11.181  -0.988  -0.904  -0.728  -0.607  -0.513
  1 A1    2 A1    1 B1    3 A1    4 A1    2 B1    5 A1    6 A1                 
 -0.461  -0.323  -0.251  -0.108  -0.108
  3 B1    1 B2    7 A1    2 B2    4 B1                                         
 -- Virtual --                   
  0.080   0.093   0.095   0.104   0.111   0.113   0.149   0.171
  5 B1    3 B2    8 A1    1 A2    9 A1    6 B1   10 A1    7 B1                 
  0.176   0.208   0.225   0.227   0.245   0.304   0.320   0.346
  2 A2   11 A1    8 B1    4 B2   12 A1    3 A2   13 A1    9 B1                 
  0.380   0.391   0.401   0.443   0.444   0.456   0.503   0.561
 14 A1   15 A1   10 B1    5 B2   11 B1   16 A1   12 B1   13 B1                 
  0.584   0.724   0.809   0.903   0.913   0.955   0.963   0.984
 17 A1   18 A1   19 A1    6 B2   20 A1   21 A1    4 A2   14 B1                 
  1.047   1.078   1.090   1.168   1.170   1.269   1.269   1.323
 15 B1   22 A1   16 B1    7 B2   23 A1    8 B2   17 B1    5 A2                 
  1.323   1.337   1.338   1.368   1.400   1.544   1.659   1.669
 24 A1    9 B2    6 A2   18 B1   19 B1   25 A1   26 A1   20 B1                 
  1.729   1.729   1.749   1.900   1.972   1.974   1.991   2.027
 10 B2   21 B1   27 A1    7 A2   22 B1   28 A1   11 B2   29 A1                 
  2.071   2.088   2.224   2.326   2.376   2.376   2.466   2.493
 12 B2   30 A1    8 A2   23 B1   13 B2   24 B1    9 A2   31 A1                 
  2.534   2.594   2.627   2.852   2.856   3.030   3.313   3.394
 32 A1   25 B1   26 B1   33 A1   34 A1   35 A1   27 B1   28 B1                 
  3.930   3.930   3.959   3.959   4.401
 14 B2   29 B1   10 A2   36 A1   37 A1                                         
 
 Beta MOs, Restricted
 -- Occupied --                  
-20.199 -11.183 -11.181  -0.988  -0.904  -0.728  -0.607  -0.513
  1 A1    2 A1    1 B1    3 A1    4 A1    2 B1    5 A1    6 A1                 
 -0.461  -0.323  -0.251  -0.108  -0.108
  3 B1    1 B2    7 A1    2 B2    4 B1                                         
 -- Virtual --                   
  0.080   0.093   0.095   0.104   0.111   0.113   0.149   0.171
  5 B1    3 B2    8 A1    1 A2    9 A1    6 B1   10 A1    7 B1                 
  0.176   0.208   0.225   0.227   0.245   0.304   0.320   0.346
  2 A2   11 A1    8 B1    4 B2   12 A1    3 A2   13 A1    9 B1                 
  0.380   0.391   0.401   0.443   0.444   0.456   0.503   0.561
 14 A1   15 A1   10 B1    5 B2   11 B1   16 A1   12 B1   13 B1                 
  0.584   0.724   0.809   0.903   0.913   0.955   0.963   0.984
 17 A1   18 A1   19 A1    6 B2   20 A1   21 A1    4 A2   14 B1                 
  1.047   1.078   1.090   1.168   1.170   1.269   1.269   1.323
 15 B1   22 A1   16 B1    7 B2   23 A1    8 B2   17 B1    5 A2                 
  1.323   1.337   1.338   1.368   1.400   1.544   1.659   1.669
 24 A1    9 B2    6 A2   18 B1   19 B1   25 A1   26 A1   20 B1                 
  1.729   1.729   1.749   1.900   1.972   1.974   1.991   2.027
 10 B2   21 B1   27 A1    7 A2   22 B1   28 A1   11 B2   29 A1                 
  2.071   2.088   2.224   2.326   2.376   2.376   2.466   2.493
 12 B2   30 A1    8 A2   23 B1   13 B2   24 B1    9 A2   31 A1                 
  2.534   2.594   2.627   2.852   2.856   3.030   3.313   3.394
 32 A1   25 B1   26 B1   33 A1   34 A1   35 A1   27 B1   28 B1                 
  3.930   3.930   3.959   3.959   4.401
 14 B2   29 B1   10 A2   36 A1   37 A1                                         

--------------------------------------------------------------------------------
                                   HF Summary                                   
--------------------------------------------------------------------------------
  Energy:                                                 -153.4328222838 a.u.
  Dip. moment [a.u.]:                  [   0.000000,    0.000000,   11.487448]
  Total dipole [Debye]:                                              29.198186
  <r^2> [a.u.]:                        [  55.267738,   19.513310, 2266.844931]
  Total <r^2> [a.u.]:                                              2341.625979
--------------------------------------------------------------------------------

--------------------------------------------------------------------------------
                                 MP(2) Summary                                  
--------------------------------------------------------------------------------
  MP energy contribution:                                   -0.5236906578 a.u.
  Total energy:                                           -153.9565129416 a.u.
  Dip. moment [a.u.]:                  [   0.000000,   -0.000000,   11.526539]
  Total dipole [Debye]:                                              29.297544
  <r^2> [a.u.]:                        [  56.223557,   20.214050, 2268.496395]
  Total <r^2> [a.u.]:                                              2344.934002

  Density matrix analysis:
  ------------------------
  NOs
    Occupation of frontier NOs:
       0.0446   1.9373
    Number of electrons: 26.000000
    Number of unpaired electrons: n_u =  0.71308, n_u,nl =  0.08533
    NO participation ratio (PR_NO): 22.885363
  
  
  Mulliken Population Analysis
  Atom      Charge (e)              h+              e-           Del q
  --------------------------------------------------------------------
   1 C       -0.167379        0.088075       -0.102070       -0.013995
   2 C       -0.167379        0.088075       -0.102070       -0.013995
   3 H        0.094476        0.017312       -0.010341        0.006971
   4 H        0.094476        0.017312       -0.010341        0.006971
   5 H        0.072878        0.017613       -0.010612        0.007002
   6 H        0.072878        0.017613       -0.010612        0.007002
   7 O       -1.024956        0.282740       -0.270264        0.012476
   8 H        0.025006        0.017564       -0.029997       -0.012432
  --------------------------------------------------------------------
  Sum:       -1.000000        0.546305       -0.546305        0.000000
  
  Multipole moment analysis of the density matrix
    Molecular charge:                      -1.000000
    Number of electrons:                   26.000000
      Center of electronic charge [Ang]: [  0.000000,   0.000000,  -0.234599]
    Total nuclear charge:                  25.000000
      Center of nuclear charge [Ang]:    [ -0.000000,  -0.000000,  -0.000000]
    Dipole moment [D]:                     29.297536
      Cartesian components [D]:          [ -0.000000,  -0.000000,  29.297536]
    RMS size of the density [Ang]:         5.020027
      Cartesian components [Ang]:        [  0.778168,   0.466596,   4.937349]
  
  Exciton analysis of the difference density matrix
    <r_h> [Ang]:                  [  0.000000,  -0.000000,  -1.871475]
    <r_e> [Ang]:                  [  0.000000,   0.000000,  -1.909340]
    |<r_e - r_h>| [Ang]:            0.037865
    Hole size [Ang]:                5.151162
      Cartesian components [Ang]: [  0.825755,   0.713233,   5.034273]
    Electron size [Ang]:            5.299713
      Cartesian components [Ang]: [  1.082503,   0.931607,   5.103651]
--------------------------------------------------------------------------------
  Starting Davidson for singlet states of irrep B2 ... 
--------------------------------------------------------------------------------
   It NVec Conv  Avg. Norm  Max. Norm  Conv. states           Remark
--------------------------------------------------------------------------------
       100    0  1.556e-01  5.638e-01  0.2152 n n n n n n n n Guess.
    1  110    0  1.751e-02  9.375e-02  0.0388 n n n n n n n n 
    2  120    0  6.103e-03  4.300e-02  0.0375 n n n n n n n n 
    3  130    0  8.879e-03  8.715e-02  0.0375 n n n n n n n n 
    4  140    1  1.710e-03  1.699e-02  0.0375 n y n n n n n n 
    5  150    5  2.457e-04  2.441e-03  0.0375 y y y y y n n n 
    6  160    8  1.656e-05  1.644e-04  0.0375 y y y y y y n n 
    7  170    9  1.530e-06  1.519e-05  0.0375 y y y y y y y n 
    8  180   10  2.162e-07  2.148e-06  0.0375 y y y y y y y y Converged.
--------------------------------------------------------------------------------
  Davidson Summary: 
 ------------------------------------------------------------
  State  0: excitation energy =   0.0375 a.u.   (converged)
  State  1: excitation energy =   0.0528 a.u.   (converged)
  State  2: excitation energy =   0.0579 a.u.   (converged)
  State  3: excitation energy =   0.0861 a.u.   (converged)
  State  4: excitation energy =   0.1020 a.u.   (converged)
  State  5: excitation energy =   0.1440 a.u.   (converged)
  State  6: excitation energy =   0.1753 a.u.   (converged)
  State  7: excitation energy =   0.1820 a.u.   (converged)
  State  8: excitation energy =   0.1947 a.u.   (converged)
  State  9: excitation energy =   0.2219 a.u.   (converged)
 ------------------------------------------------------------


--------------------------------------------------------------------------------
                   State-averaged natural transition orbitals
--------------------------------------------------------------------------------
--------------------------------------------------------------------------------

--------------------------------------------------------------------------------
                             Excited State Summary
--------------------------------------------------------------------------------
--------------------------------------------------------------------------------

  Excited state 1 (singlet, B2)                                    [converged]
  ----------------------------------------------------------------------------
  Term symbol:  1 (1) B2                                    R^2 =  4.61114e-10

  Total energy:                                           -153.9190282065 a.u.
  Excitation energy:                                               1.020012 eV

  Osc. strength:                                                      0.000031
  Trans. dip. moment [a.u.]:           [   0.000000,   -0.034997,   -0.000000]
  <i|r^2|0> [a.u.]:                    [   0.000000,    0.000000,   -0.000000]

  Dip. moment [a.u.]:                  [   0.000000,    0.000000,   -7.719626]
  Total dipole [Debye]:                                              19.621335
  <r^2> [a.u.]:                        [  73.809606,   35.422098, 2222.477428]
  Total <r^2> [a.u.]:                                              2331.709132

  V1^2 = 0.8561, V2^2 = 0.1439

  Important amplitudes:
      occ i      occ j       vir a       vir b          v   
    ---------------------------------------------------------
     2 (B2) A               8 (A1) A                 -0.6316
     2 (B2) A               9 (A1) A                  0.1584
    ---------------------------------------------------------

  Density matrix analysis:
  ------------------------
  NOs
    Occupation of frontier NOs:
       0.9567   0.9989
    Number of electrons: 26.000000
    Number of unpaired electrons: n_u =  2.75374, n_u,nl =  2.12075
    NO participation ratio (PR_NO):  3.896717
  
  
  Mulliken Population Analysis
  Atom      Charge (e)              h+              e-           Del q
  --------------------------------------------------------------------
   1 C       -0.647529        0.004983       -0.485134       -0.480150
   2 C       -0.647529        0.004983       -0.485134       -0.480150
   3 H        0.079278        0.000254       -0.015452       -0.015198
   4 H        0.079278        0.000254       -0.015452       -0.015198
   5 H        0.068772        0.007237       -0.011342       -0.004105
   6 H        0.068772        0.007237       -0.011342       -0.004105
   7 O       -0.141483        1.421242       -0.537769        0.883473
   8 H        0.140440        0.140629       -0.025195        0.115434
  --------------------------------------------------------------------
  Sum:       -1.000000        1.586820       -1.586820       -0.000000
  
  Multipole moment analysis of the density matrix
    Molecular charge:                      -1.000000
    Number of electrons:                   26.000000
      Center of electronic charge [Ang]: [  0.000000,  -0.000000,   0.157117]
    Total nuclear charge:                  25.000000
      Center of nuclear charge [Ang]:    [ -0.000000,  -0.000000,  -0.000000]
    Dipole moment [D]:                     19.621329
      Cartesian components [D]:          [ -0.000000,   0.000000, -19.621329]
    RMS size of the density [Ang]:         5.008851
      Cartesian components [Ang]:        [  0.891602,   0.617663,   4.890002]
  
  Exciton analysis of the difference density matrix
    <r_h> [Ang]:                  [  0.000000,  -0.000000,  -6.275102]
    <r_e> [Ang]:                  [  0.000000,  -0.000000,   0.143164]
    |<r_e - r_h>| [Ang]:            6.418266
    Hole size [Ang]:                1.945699
      Cartesian components [Ang]: [  0.811637,   0.901821,   1.521088]
    Electron size [Ang]:            6.388141
      Cartesian components [Ang]: [  1.939637,   1.870045,   5.792157]

  Transition density matrix analysis:
  -----------------------------------
  
  CT numbers (Mulliken)
    omega =     0.8418
    <Phe> =    -0.0000
  
  Exciton analysis of the transition density matrix
    Trans. dipole moment [D]:             0.044476
      Cartesian components [D]:         [  0.000000,  -0.044476,  -0.000000]
    <r_h> [Ang]:                        [ -0.000000,   0.000000,  -6.398174]
    <r_e> [Ang]:                        [  0.000000,  -0.000000,   3.729011]
    |<r_e - r_h>| [Ang]:                 10.127185
    Hole size [Ang]:                      1.091389
      Cartesian components [Ang]:       [  0.486090,   0.841927,   0.495989]
    Electron size [Ang]:                  5.157527
      Cartesian components [Ang]:       [  2.353341,   2.285059,   3.979997]
    RMS electron-hole separation [Ang]:  11.417179
      Cartesian components [Ang]:       [  2.402989,   2.435229,  10.892533]
    Covariance(r_h, r_e) [Ang^2]:        -0.000441
    Correlation coefficient:             -0.000078
    Center-of-mass size [Ang]:            2.635827
      Cartesian components [Ang]:       [  1.201524,   1.217614,   2.005328]

  Decomposition into state-averaged NTOs
    H- 0 -> L+ 1:  0.5391 ( 58.1%)
    H- 0 -> L+ 6:  0.2782 ( 15.5%)
    H- 0 -> L+ 8: -0.1379 (  3.8%)
    H- 0 -> L+ 3:  0.1353 (  3.7%)
    H- 0 -> L+ 7: -0.1244 (  3.1%)
                   omega =  84.2%
  ----------------------------------------------------------------------------


  Excited state 2 (singlet, B2)                                    [converged]
  ----------------------------------------------------------------------------
  Term symbol:  2 (1) B2                                    R^2 =  1.75864e-10

  Total energy:                                           -153.9037107519 a.u.
  Excitation energy:                                               1.436821 eV

  Osc. strength:                                                      0.000005
  Trans. dip. moment [a.u.]:           [   0.000000,    0.011621,    0.000000]
  <i|r^2|0> [a.u.]:                    [  -0.000000,   -0.000000,    0.000000]

  Dip. moment [a.u.]:                  [   0.000000,    0.000000,   -7.555261]
  Total dipole [Debye]:                                              19.203562
  <r^2> [a.u.]:                        [ 100.783220,   65.232957, 2179.281248]
  Total <r^2> [a.u.]:                                              2345.297425

  V1^2 = 0.8534, V2^2 = 0.1466

  Important amplitudes:
      occ i      occ j       vir a       vir b          v   
    ---------------------------------------------------------
     4 (B1) A               1 (A2) A                  0.6508
     4 (B1) A   4 (B1) B    1 (A2) A   11 (B1) B      0.0667
    ---------------------------------------------------------

  Density matrix analysis:
  ------------------------
  NOs
    Occupation of frontier NOs:
       0.9562   0.9991
    Number of electrons: 26.000000
    Number of unpaired electrons: n_u =  2.75514, n_u,nl =  2.12134
    NO participation ratio (PR_NO):  3.901508
  
  
  Mulliken Population Analysis
  Atom      Charge (e)              h+              e-           Del q
  --------------------------------------------------------------------
   1 C       -0.659338        0.010135       -0.502093       -0.491959
   2 C       -0.659338        0.010135       -0.502093       -0.491959
   3 H        0.085270       -0.000058       -0.009148       -0.009206
   4 H        0.085270       -0.000058       -0.009148       -0.009206
   5 H        0.074057        0.001279       -0.000100        0.001179
   6 H        0.074057        0.001279       -0.000100        0.001179
   7 O       -0.142693        1.422965       -0.540702        0.882263
   8 H        0.142714        0.143378       -0.025670        0.117708
  --------------------------------------------------------------------
  Sum:       -1.000000        1.589055       -1.589055       -0.000000
  
  Multipole moment analysis of the density matrix
    Molecular charge:                      -1.000000
    Number of electrons:                   26.000000
      Center of electronic charge [Ang]: [ -0.000000,  -0.000000,   0.153772]
    Total nuclear charge:                  25.000000
      Center of nuclear charge [Ang]:    [ -0.000000,  -0.000000,  -0.000000]
    Dipole moment [D]:                     19.203556
      Cartesian components [D]:          [  0.000000,   0.000000, -19.203556]
    RMS size of the density [Ang]:         5.023542
      Cartesian components [Ang]:        [  1.041858,   0.838201,   4.842306]
  
  Exciton analysis of the difference density matrix
    <r_h> [Ang]:                  [  0.000000,   0.000000,  -6.301114]
    <r_e> [Ang]:                  [ -0.000000,  -0.000000,   0.053390]
    |<r_e - r_h>| [Ang]:            6.354504
    Hole size [Ang]:                1.866132
      Cartesian components [Ang]: [  0.909835,   0.808777,   1.414401]
    Electron size [Ang]:            6.576296
      Cartesian components [Ang]: [  2.946227,   2.930444,   5.097050]

  Transition density matrix analysis:
  -----------------------------------
  
  CT numbers (Mulliken)
    omega =     0.8388
    <Phe> =     0.0000
  
  Exciton analysis of the transition density matrix
    Trans. dipole moment [D]:             0.014769
      Cartesian components [D]:         [  0.000000,   0.014769,   0.000000]
    <r_h> [Ang]:                        [ -0.000000,   0.000000,  -6.398151]
    <r_e> [Ang]:                        [ -0.000000,  -0.000000,   3.639485]
    |<r_e - r_h>| [Ang]:                 10.037636
    Hole size [Ang]:                      1.092430
      Cartesian components [Ang]:       [  0.842644,   0.486503,   0.496657]
    Electron size [Ang]:                  5.577721
      Cartesian components [Ang]:       [  3.667841,   3.639079,   2.101192]
    RMS electron-hole separation [Ang]:  11.535007
      Cartesian components [Ang]:       [  3.763123,   3.671442,  10.267220]
    Covariance(r_h, r_e) [Ang^2]:         0.001056
    Correlation coefficient:              0.000173
    Center-of-mass size [Ang]:            2.841940
      Cartesian components [Ang]:       [  1.881829,   1.835734,   1.079546]

  Decomposition into state-averaged NTOs
    H- 1 -> L+ 4:  0.6230 ( 77.6%)
    H- 1 -> L+ 5: -0.1426 (  4.1%)
    H- 1 -> L+ 9: -0.1046 (  2.2%)
                   omega =  83.9%
  ----------------------------------------------------------------------------


  Excited state 3 (singlet, B2)                                    [converged]
  ----------------------------------------------------------------------------
  Term symbol:  3 (1) B2                                    R^2 =  1.75188e-09

  Total energy:                                           -153.8986075056 a.u.
  Excitation energy:                                               1.575687 eV

  Osc. strength:                                                      0.000004
  Trans. dip. moment [a.u.]:           [  -0.000000,   -0.010471,    0.000000]
  <i|r^2|0> [a.u.]:                    [  -0.000000,   -0.000000,    0.000000]

  Dip. moment [a.u.]:                  [   0.000000,    0.000000,   -7.454777]
  Total dipole [Debye]:                                              18.948156
  <r^2> [a.u.]:                        [ 127.355189,   35.369494, 2181.243579]
  Total <r^2> [a.u.]:                                              2343.968262

  V1^2 = 0.8543, V2^2 = 0.1457

  Important amplitudes:
      occ i      occ j       vir a       vir b          v   
    ---------------------------------------------------------
     2 (B2) A               9 (A1) A                  0.6328
     2 (B2) A               8 (A1) A                  0.1602
    ---------------------------------------------------------

  Density matrix analysis:
  ------------------------
  NOs
    Occupation of frontier NOs:
       0.9563   0.9991
    Number of electrons: 26.000000
    Number of unpaired electrons: n_u =  2.75570, n_u,nl =  2.12173
    NO participation ratio (PR_NO):  3.902544
  
  
  Mulliken Population Analysis
  Atom      Charge (e)              h+              e-           Del q
  --------------------------------------------------------------------
   1 C       -0.661016        0.004927       -0.498564       -0.493637
   2 C       -0.661016        0.004927       -0.498564       -0.493637
   3 H        0.085814       -0.000104       -0.008559       -0.008662
   4 H        0.085814       -0.000104       -0.008559       -0.008662
   5 H        0.075300        0.004296       -0.001874        0.002422
   6 H        0.075300        0.004296       -0.001874        0.002422
   7 O       -0.142656        1.423383       -0.541083        0.882300
   8 H        0.142461        0.143075       -0.025620        0.117455
  --------------------------------------------------------------------
  Sum:       -1.000000        1.584696       -1.584696        0.000000
  
  Multipole moment analysis of the density matrix
    Molecular charge:                      -1.000000
    Number of electrons:                   26.000000
      Center of electronic charge [Ang]: [ -0.000000,  -0.000000,   0.151727]
    Total nuclear charge:                  25.000000
      Center of nuclear charge [Ang]:    [ -0.000000,  -0.000000,  -0.000000]
    Dipole moment [D]:                     18.948150
      Cartesian components [D]:          [  0.000000,   0.000000, -18.948150]
    RMS size of the density [Ang]:         5.022179
      Cartesian components [Ang]:        [  1.171178,   0.617204,   4.844552]
  
  Exciton analysis of the difference density matrix
    <r_h> [Ang]:                  [  0.000000,   0.000000,  -6.324784]
    <r_e> [Ang]:                  [ -0.000000,  -0.000000,   0.013643]
    |<r_e - r_h>| [Ang]:            6.338427
    Hole size [Ang]:                1.811448
      Cartesian components [Ang]: [  0.813846,   0.902954,   1.343009]
    Electron size [Ang]:            6.566079
      Cartesian components [Ang]: [  3.637565,   1.869068,   5.136936]

  Transition density matrix analysis:
  -----------------------------------
  
  CT numbers (Mulliken)
    omega =     0.8401
    <Phe> =    -0.0000
  
  Exciton analysis of the transition density matrix
    Trans. dipole moment [D]:             0.013308
      Cartesian components [D]:         [ -0.000000,  -0.013308,   0.000000]
    <r_h> [Ang]:                        [ -0.000000,   0.000000,  -6.398284]
    <r_e> [Ang]:                        [ -0.000000,  -0.000000,   3.583545]
    |<r_e - r_h>| [Ang]:                  9.981829
    Hole size [Ang]:                      1.091802
      Cartesian components [Ang]:       [  0.486345,   0.842372,   0.495893]
    Electron size [Ang]:                  5.578065
      Cartesian components [Ang]:       [  4.533860,   2.282032,   2.313277]
    RMS electron-hole separation [Ang]:  11.486665
      Cartesian components [Ang]:       [  4.559854,   2.432490,  10.258372]
    Covariance(r_h, r_e) [Ang^2]:         0.000136
    Correlation coefficient:              0.000022
    Center-of-mass size [Ang]:            2.841967
      Cartesian components [Ang]:       [  2.279943,   1.216297,   1.182903]

  Decomposition into state-averaged NTOs
    H- 0 -> L+ 3: -0.5884 ( 69.2%)
    H- 0 -> L+ 1:  0.2009 (  8.1%)
    H- 0 -> L+ 6: -0.1232 (  3.0%)
    H- 0 -> L+ 7: -0.1197 (  2.9%)
                   omega =  84.0%
  ----------------------------------------------------------------------------


  Excited state 4 (singlet, B2)                                    [converged]
  ----------------------------------------------------------------------------
  Term symbol:  4 (1) B2                                    R^2 =  5.86163e-09

  Total energy:                                           -153.8704109266 a.u.
  Excitation energy:                                               2.342955 eV

  Osc. strength:                                                      0.000001
  Trans. dip. moment [a.u.]:           [  -0.000000,    0.004158,    0.000000]
  <i|r^2|0> [a.u.]:                    [  -0.000000,   -0.000000,    0.000000]

  Dip. moment [a.u.]:                  [  -0.000000,    0.000000,   -7.494321]
  Total dipole [Debye]:                                              19.048668
  <r^2> [a.u.]:                        [  75.034900,   27.357462, 2171.392520]
  Total <r^2> [a.u.]:                                              2273.784882

  V1^2 = 0.8499, V2^2 = 0.1501

  Important amplitudes:
      occ i      occ j       vir a       vir b          v   
    ---------------------------------------------------------
     2 (B2) A              10 (A1) A                 -0.6467
     2 (B2) A   2 (B2) B   10 (A1) A    5 (B2) B     -0.0653
    ---------------------------------------------------------

  Density matrix analysis:
  ------------------------
  NOs
    Occupation of frontier NOs:
       0.9566   0.9928
    Number of electrons: 26.000000
    Number of unpaired electrons: n_u =  2.76482, n_u,nl =  2.12415
    NO participation ratio (PR_NO):  3.951457
  
  
  Mulliken Population Analysis
  Atom      Charge (e)              h+              e-           Del q
  --------------------------------------------------------------------
   1 C       -0.759067        0.030172       -0.621859       -0.591688
   2 C       -0.759067        0.030172       -0.621859       -0.591688
   3 H        0.133724       -0.000866        0.040114        0.039248
   4 H        0.133724       -0.000866        0.040114        0.039248
   5 H        0.125357        0.000372        0.052107        0.052480
   6 H        0.125357        0.000372        0.052107        0.052480
   7 O       -0.140728        1.414719       -0.530491        0.884228
   8 H        0.140698        0.140714       -0.025021        0.115692
  --------------------------------------------------------------------
  Sum:       -1.000000        1.614789       -1.614789        0.000000
  
  Multipole moment analysis of the density matrix
    Molecular charge:                      -1.000000
    Number of electrons:                   26.000000
      Center of electronic charge [Ang]: [  0.000000,  -0.000000,   0.152532]
    Total nuclear charge:                  25.000000
      Center of nuclear charge [Ang]:    [ -0.000000,  -0.000000,  -0.000000]
    Dipole moment [D]:                     19.048662
      Cartesian components [D]:          [ -0.000000,   0.000000, -19.048662]
    RMS size of the density [Ang]:         4.946326
      Cartesian components [Ang]:        [  0.898972,   0.542816,   4.833564]
  
  Exciton analysis of the difference density matrix
    <r_h> [Ang]:                  [  0.000000,  -0.000000,  -6.073512]
    <r_e> [Ang]:                  [  0.000000,  -0.000000,   0.159751]
    |<r_e - r_h>| [Ang]:            6.233263
    Hole size [Ang]:                2.377616
      Cartesian components [Ang]: [  0.817240,   0.906515,   2.040443]
    Electron size [Ang]:            5.493338
      Cartesian components [Ang]: [  1.982435,   1.435459,   4.917944]

  Transition density matrix analysis:
  -----------------------------------
  
  CT numbers (Mulliken)
    omega =     0.8345
    <Phe> =    -0.0000
  
  Exciton analysis of the transition density matrix
    Trans. dipole moment [D]:             0.005284
      Cartesian components [D]:         [ -0.000000,   0.005284,   0.000000]
    <r_h> [Ang]:                        [ -0.000000,   0.000000,  -6.398041]
    <r_e> [Ang]:                        [  0.000000,  -0.000000,   3.604708]
    |<r_e - r_h>| [Ang]:                 10.002750
    Hole size [Ang]:                      1.092035
      Cartesian components [Ang]:       [  0.486065,   0.841838,   0.497584]
    Electron size [Ang]:                  3.339381
      Cartesian components [Ang]:       [  2.424047,   1.709995,   1.533420]
    RMS electron-hole separation [Ang]:  10.601978
      Cartesian components [Ang]:       [  2.472277,   1.905691,  10.132034]
    Covariance(r_h, r_e) [Ang^2]:        -0.001460
    Correlation coefficient:             -0.000400
    Center-of-mass size [Ang]:            1.756494
      Cartesian components [Ang]:       [  1.236161,   0.953138,   0.805422]

  Decomposition into state-averaged NTOs
    H- 0 -> L+ 8: -0.4616 ( 42.6%)
    H- 0 -> L+ 7: -0.3798 ( 28.9%)
    H- 0 -> L+ 6: -0.2181 (  9.5%)
    H- 0 -> L+ 1: -0.1043 (  2.2%)
                   omega =  83.4%
  ----------------------------------------------------------------------------


  Excited state 5 (singlet, B2)                                    [converged]
  ----------------------------------------------------------------------------
  Term symbol:  5 (1) B2                                    R^2 =  1.27441e-09

  Total energy:                                           -153.8544680641 a.u.
  Excitation energy:                                               2.776782 eV

  Osc. strength:                                                      0.000002
  Trans. dip. moment [a.u.]:           [   0.000000,    0.005009,    0.000000]
  <i|r^2|0> [a.u.]:                    [  -0.000000,   -0.000000,   -0.000000]

  Dip. moment [a.u.]:                  [  -0.000000,    0.000000,   -7.551808]
  Total dipole [Debye]:                                              19.194785
  <r^2> [a.u.]:                        [  69.608060,   33.461268, 2169.697344]
  Total <r^2> [a.u.]:                                              2272.766672

  V1^2 = 0.8402, V2^2 = 0.1598

  Important amplitudes:
      occ i      occ j       vir a       vir b          v   
    ---------------------------------------------------------
     4 (B1) A               2 (A2) A                  0.6349
     4 (B1) A               3 (A2) A                  0.1152
    ---------------------------------------------------------

  Density matrix analysis:
  ------------------------
  NOs
    Occupation of frontier NOs:
       0.9568   0.9967
    Number of electrons: 26.000000
    Number of unpaired electrons: n_u =  2.74581, n_u,nl =  2.11331
    NO participation ratio (PR_NO):  3.886971
  
  
  Mulliken Population Analysis
  Atom      Charge (e)              h+              e-           Del q
  --------------------------------------------------------------------
   1 C       -0.584320        0.113738       -0.530679       -0.416941
   2 C       -0.584320        0.113738       -0.530679       -0.416941
   3 H        0.048645        0.004186       -0.050017       -0.045831
   4 H        0.048645        0.004186       -0.050017       -0.045831
   5 H        0.035665        0.004673       -0.041885       -0.037213
   6 H        0.035665        0.004673       -0.041885       -0.037213
   7 O       -0.138418        1.400744       -0.514206        0.886538
   8 H        0.138438        0.137744       -0.024311        0.113432
  --------------------------------------------------------------------
  Sum:       -1.000000        1.783681       -1.783681       -0.000000
  
  Multipole moment analysis of the density matrix
    Molecular charge:                      -1.000000
    Number of electrons:                   26.000000
      Center of electronic charge [Ang]: [  0.000000,  -0.000000,   0.153702]
    Total nuclear charge:                  25.000000
      Center of nuclear charge [Ang]:    [ -0.000000,  -0.000000,  -0.000000]
    Dipole moment [D]:                     19.194779
      Cartesian components [D]:          [ -0.000000,   0.000000, -19.194779]
    RMS size of the density [Ang]:         4.945181
      Cartesian components [Ang]:        [  0.865853,   0.600324,   4.831638]
  
  Exciton analysis of the difference density matrix
    <r_h> [Ang]:                  [  0.000000,   0.000000,  -5.057903]
    <r_e> [Ang]:                  [  0.000000,  -0.000000,   0.602205]
    |<r_e - r_h>| [Ang]:            5.660108
    Hole size [Ang]:                3.749883
      Cartesian components [Ang]: [  0.919143,   0.787479,   3.549179]
    Electron size [Ang]:            5.286914
      Cartesian components [Ang]: [  1.716426,   1.643127,   4.722867]

  Transition density matrix analysis:
  -----------------------------------
  
  CT numbers (Mulliken)
    omega =     0.8159
    <Phe> =     0.0000
  
  Exciton analysis of the transition density matrix
    Trans. dipole moment [D]:             0.006365
      Cartesian components [D]:         [  0.000000,   0.006365,   0.000000]
    <r_h> [Ang]:                        [ -0.000000,   0.000000,  -6.398075]
    <r_e> [Ang]:                        [  0.000000,  -0.000000,   3.639441]
    |<r_e - r_h>| [Ang]:                 10.037516
    Hole size [Ang]:                      1.091338
      Cartesian components [Ang]:       [  0.841799,   0.486014,   0.496167]
    Electron size [Ang]:                  3.200153
      Cartesian components [Ang]:       [  2.131470,   2.063922,   1.199183]
    RMS electron-hole separation [Ang]:  10.591645
      Cartesian components [Ang]:       [  2.291514,   2.120362,  10.121065]
    Covariance(r_h, r_e) [Ang^2]:         0.000398
    Correlation coefficient:              0.000114
    Center-of-mass size [Ang]:            1.690621
      Cartesian components [Ang]:       [  1.145921,   1.060193,   0.648886]

  Decomposition into state-averaged NTOs
    H- 1 -> L+ 9:  0.4690 ( 44.0%)
    H- 1 -> L+ 5:  0.3971 ( 31.5%)
    H- 1 -> L+ 4:  0.1741 (  6.1%)
                   omega =  81.6%
  ----------------------------------------------------------------------------


  Excited state 6 (singlet, B2)                                    [converged]
  ----------------------------------------------------------------------------
  Term symbol:  6 (1) B2                                    R^2 =  2.88027e-08

  Total energy:                                           -153.8125460804 a.u.
  Excitation energy:                                               3.917538 eV

  Osc. strength:                                                      0.000039
  Trans. dip. moment [a.u.]:           [   0.000000,   -0.020198,   -0.000000]
  <i|r^2|0> [a.u.]:                    [   0.000000,    0.000000,    0.000000]

  Dip. moment [a.u.]:                  [   0.000000,   -0.000000,   -7.194306]
  Total dipole [Debye]:                                              18.286106
  <r^2> [a.u.]:                        [  65.553306,   29.014146, 2199.523904]
  Total <r^2> [a.u.]:                                              2294.091356

  V1^2 = 0.8536, V2^2 = 0.1464

  Important amplitudes:
      occ i      occ j       vir a       vir b          v   
    ---------------------------------------------------------
     2 (B2) A              11 (A1) A                  0.6446
     2 (B2) A              12 (A1) A                  0.0714
    ---------------------------------------------------------

  Density matrix analysis:
  ------------------------
  NOs
    Occupation of frontier NOs:
       0.9570   0.9951
    Number of electrons: 26.000000
    Number of unpaired electrons: n_u =  2.75828, n_u,nl =  2.12164
    NO participation ratio (PR_NO):  3.923216
  
  
  Mulliken Population Analysis
  Atom      Charge (e)              h+              e-           Del q
  --------------------------------------------------------------------
   1 C       -0.749312        0.026763       -0.608697       -0.581933
   2 C       -0.749312        0.026763       -0.608697       -0.581933
   3 H        0.136264        0.001840        0.039948        0.041787
   4 H        0.136264        0.001840        0.039948        0.041787
   5 H        0.121398        0.004562        0.043958        0.048520
   6 H        0.121398        0.004562        0.043958        0.048520
   7 O       -0.159177        1.412915       -0.547136        0.865779
   8 H        0.142480        0.139861       -0.022387        0.117474
  --------------------------------------------------------------------
  Sum:       -1.000000        1.619105       -1.619105        0.000000
  
  Multipole moment analysis of the density matrix
    Molecular charge:                      -1.000000
    Number of electrons:                   26.000000
      Center of electronic charge [Ang]: [ -0.000000,   0.000000,   0.146425]
    Total nuclear charge:                  25.000000
      Center of nuclear charge [Ang]:    [ -0.000000,  -0.000000,  -0.000000]
    Dipole moment [D]:                     18.286100
      Cartesian components [D]:          [  0.000000,  -0.000000, -18.286100]
    RMS size of the density [Ang]:         4.968569
      Cartesian components [Ang]:        [  0.840256,   0.559010,   4.864993]
  
  Exciton analysis of the difference density matrix
    <r_h> [Ang]:                  [  0.000000,  -0.000000,  -6.024244]
    <r_e> [Ang]:                  [ -0.000000,   0.000000,   0.094348]
    |<r_e - r_h>| [Ang]:            6.118592
    Hole size [Ang]:                2.476639
      Cartesian components [Ang]: [  0.816402,   0.900405,   2.157892]
    Electron size [Ang]:            5.798533
      Cartesian components [Ang]: [  1.510006,   1.527327,   5.386106]

  Transition density matrix analysis:
  -----------------------------------
  
  CT numbers (Mulliken)
    omega =     0.8382
    <Phe> =    -0.0001
  
  Exciton analysis of the transition density matrix
    Trans. dipole moment [D]:             0.025669
      Cartesian components [D]:         [  0.000000,  -0.025669,  -0.000000]
    <r_h> [Ang]:                        [ -0.000000,   0.000000,  -6.397928]
    <r_e> [Ang]:                        [ -0.000000,  -0.000000,   3.438064]
    |<r_e - r_h>| [Ang]:                  9.835992
    Hole size [Ang]:                      1.091806
      Cartesian components [Ang]:       [  0.485851,   0.841478,   0.497899]
    Electron size [Ang]:                  4.243836
      Cartesian components [Ang]:       [  1.775943,   1.843697,   3.384812]
    RMS electron-hole separation [Ang]:  10.768211
      Cartesian components [Ang]:       [  1.841177,   2.026643,  10.414277]
    Covariance(r_h, r_e) [Ang^2]:        -0.002724
    Correlation coefficient:             -0.000588
    Center-of-mass size [Ang]:            2.190704
      Cartesian components [Ang]:       [  0.920614,   1.013327,   1.710211]

  Decomposition into state-averaged NTOs
    H- 0 -> L+ 6: -0.4928 ( 48.6%)
    H- 0 -> L+ 1:  0.2477 ( 12.3%)
    H- 0 -> L+ 8:  0.2412 ( 11.6%)
    H- 0 -> L+ 3:  0.2261 ( 10.2%)
                   omega =  83.8%
  ----------------------------------------------------------------------------


  Excited state 7 (singlet, B2)                                    [converged]
  ----------------------------------------------------------------------------
  Term symbol:  7 (1) B2                                    R^2 =  2.41771e-07

  Total energy:                                           -153.7811723566 a.u.
  Excitation energy:                                               4.771260 eV

  Osc. strength:                                                      0.086308
  Trans. dip. moment [a.u.]:           [  -0.000000,    0.859272,   -0.000000]
  <i|r^2|0> [a.u.]:                    [  -0.000000,   -0.000000,   -0.000000]

  Dip. moment [a.u.]:                  [  -0.000000,   -0.000000,   12.253880]
  Total dipole [Debye]:                                              31.146263
  <r^2> [a.u.]:                        [  60.389056,   22.739976, 2304.048425]
  Total <r^2> [a.u.]:                                              2387.177457

  V1^2 = 0.9080, V2^2 = 0.0920

  Important amplitudes:
      occ i      occ j       vir a       vir b          v   
    ---------------------------------------------------------
     2 (B2) A              14 (A1) A                  0.6097
     2 (B2) A              16 (A1) A                 -0.1869
    ---------------------------------------------------------

  Density matrix analysis:
  ------------------------
  NOs
    Occupation of frontier NOs:
       0.9661   0.9995
    Number of electrons: 26.000000
    Number of unpaired electrons: n_u =  2.69055, n_u,nl =  2.09411
    NO participation ratio (PR_NO):  3.697789
  
  
  Mulliken Population Analysis
  Atom      Charge (e)              h+              e-           Del q
  --------------------------------------------------------------------
   1 C       -0.180109        0.002220       -0.014950       -0.012730
   2 C       -0.180109        0.002220       -0.014950       -0.012730
   3 H        0.092960       -0.000006       -0.001510       -0.001516
   4 H        0.092960       -0.000006       -0.001510       -0.001516
   5 H        0.074225        0.000643        0.000704        0.001347
   6 H        0.074225        0.000643        0.000704        0.001347
   7 O       -1.727154        1.234940       -1.937138       -0.702198
   8 H        0.753002        0.164232        0.563763        0.727996
  --------------------------------------------------------------------
  Sum:       -1.000000        1.404885       -1.404885       -0.000000
  
  Multipole moment analysis of the density matrix
    Molecular charge:                      -1.000000
    Number of electrons:                   26.000000
      Center of electronic charge [Ang]: [  0.000000,   0.000000,  -0.249403]
    Total nuclear charge:                  25.000000
      Center of nuclear charge [Ang]:    [ -0.000000,  -0.000000,  -0.000000]
    Dipole moment [D]:                     31.146253
      Cartesian components [D]:          [ -0.000000,  -0.000000,  31.146253]
    RMS size of the density [Ang]:         5.064433
      Cartesian components [Ang]:        [  0.806480,   0.494891,   4.975254]
  
  Exciton analysis of the difference density matrix
    <r_h> [Ang]:                  [  0.000000,   0.000000,  -6.413348]
    <r_e> [Ang]:                  [  0.000000,   0.000000,  -6.687315]
    |<r_e - r_h>| [Ang]:            0.273967
    Hole size [Ang]:                1.505134
      Cartesian components [Ang]: [  0.741998,   0.891193,   0.959501]
    Electron size [Ang]:            2.663916
      Cartesian components [Ang]: [  1.175095,   1.139169,   2.101878]

  Transition density matrix analysis:
  -----------------------------------
  
  CT numbers (Mulliken)
    omega =     0.8883
    <Phe> =    -0.0188
  
  Exciton analysis of the transition density matrix
    Trans. dipole moment [D]:             1.092026
      Cartesian components [D]:         [ -0.000000,   1.092026,  -0.000000]
    <r_h> [Ang]:                        [ -0.000000,   0.000000,  -6.398808]
    <r_e> [Ang]:                        [  0.000000,   0.000000,  -6.913275]
    |<r_e - r_h>| [Ang]:                  0.514467
    Hole size [Ang]:                      1.074922
      Cartesian components [Ang]:       [  0.478796,   0.829126,   0.488633]
    Electron size [Ang]:                  2.908635
      Cartesian components [Ang]:       [  1.297983,   1.267258,   2.273643]
    RMS electron-hole separation [Ang]:   3.141536
      Cartesian components [Ang]:       [  1.383327,   1.510963,   2.381732]
    Covariance(r_h, r_e) [Ang^2]:         0.005519
    Correlation coefficient:              0.001765
    Center-of-mass size [Ang]:            1.551342
      Cartesian components [Ang]:       [  0.691813,   0.758910,   1.162804]

  Decomposition into state-averaged NTOs
    H- 0 -> L+ 0: -0.6578 ( 86.5%)
    H- 0 -> L+ 7:  0.0767 (  1.2%)
                   omega =  88.8%
  ----------------------------------------------------------------------------


  Excited state 8 (singlet, B2)                                    [converged]
  ----------------------------------------------------------------------------
  Term symbol:  8 (1) B2                                    R^2 =  2.14838e-06

  Total energy:                                           -153.7745407933 a.u.
  Excitation energy:                                               4.951714 eV

  Osc. strength:                                                      0.002958
  Trans. dip. moment [a.u.]:           [  -0.000000,    0.156146,    0.000000]
  <i|r^2|0> [a.u.]:                    [  -0.000000,    0.000000,    0.000000]

  Dip. moment [a.u.]:                  [  -0.000000,   -0.000000,   -7.046355]
  Total dipole [Debye]:                                              17.910052
  <r^2> [a.u.]:                        [  83.904903,   28.056075, 2176.939723]
  Total <r^2> [a.u.]:                                              2288.900701

  V1^2 = 0.8522, V2^2 = 0.1478

  Important amplitudes:
      occ i      occ j       vir a       vir b          v   
    ---------------------------------------------------------
     2 (B2) A              12 (A1) A                 -0.6371
     2 (B2) A              14 (A1) A                  0.0851
    ---------------------------------------------------------

  Density matrix analysis:
  ------------------------
  NOs
    Occupation of frontier NOs:
       0.9568   0.9940
    Number of electrons: 26.000000
    Number of unpaired electrons: n_u =  2.76159, n_u,nl =  2.12262
    NO participation ratio (PR_NO):  3.937144
  
  
  Mulliken Population Analysis
  Atom      Charge (e)              h+              e-           Del q
  --------------------------------------------------------------------
   1 C       -0.639950        0.040002       -0.512572       -0.472571
   2 C       -0.639950        0.040002       -0.512572       -0.472571
   3 H        0.082747        0.001748       -0.013478       -0.011729
   4 H        0.082747        0.001748       -0.013478       -0.011729
   5 H        0.067964        0.002395       -0.007310       -0.004914
   6 H        0.067964        0.002395       -0.007310       -0.004914
   7 O       -0.170974        1.409981       -0.555999        0.853982
   8 H        0.149452        0.141166       -0.016719        0.124446
  --------------------------------------------------------------------
  Sum:       -1.000000        1.639437       -1.639437       -0.000000
  
  Multipole moment analysis of the density matrix
    Molecular charge:                      -1.000000
    Number of electrons:                   26.000000
      Center of electronic charge [Ang]: [  0.000000,   0.000000,   0.143414]
    Total nuclear charge:                  25.000000
      Center of nuclear charge [Ang]:    [ -0.000000,  -0.000000,  -0.000000]
    Dipole moment [D]:                     17.910047
      Cartesian components [D]:          [ -0.000000,  -0.000000, -17.910047]
    RMS size of the density [Ang]:         4.963028
      Cartesian components [Ang]:        [  0.950623,   0.549703,   4.840019]
  
  Exciton analysis of the difference density matrix
    <r_h> [Ang]:                  [ -0.000000,  -0.000000,  -5.901092]
    <r_e> [Ang]:                  [  0.000000,   0.000000,   0.093863]
    |<r_e - r_h>| [Ang]:            5.994954
    Hole size [Ang]:                2.690446
      Cartesian components [Ang]: [  0.822181,   0.902597,   2.397465]
    Electron size [Ang]:            5.699268
      Cartesian components [Ang]: [  2.324687,   1.467705,   4.992327]

  Transition density matrix analysis:
  -----------------------------------
  
  CT numbers (Mulliken)
    omega =     0.8370
    <Phe> =    -0.0006
  
  Exciton analysis of the transition density matrix
    Trans. dipole moment [D]:             0.198442
      Cartesian components [D]:         [ -0.000000,   0.198442,   0.000000]
    <r_h> [Ang]:                        [ -0.000000,   0.000000,  -6.398166]
    <r_e> [Ang]:                        [  0.000000,   0.000000,   3.348861]
    |<r_e - r_h>| [Ang]:                  9.747027
    Hole size [Ang]:                      1.091039
      Cartesian components [Ang]:       [  0.485842,   0.841487,   0.496209]
    Electron size [Ang]:                  4.137484
      Cartesian components [Ang]:       [  2.878721,   1.761883,   2.393221]
    RMS electron-hole separation [Ang]:  10.644914
      Cartesian components [Ang]:       [  2.919412,   1.952299,  10.048868]
    Covariance(r_h, r_e) [Ang^2]:        -0.000259
    Correlation coefficient:             -0.000057
    Center-of-mass size [Ang]:            2.139429
      Cartesian components [Ang]:       [  1.459725,   0.976369,   1.221909]

  Decomposition into state-averaged NTOs
    H- 0 -> L+ 7: -0.4850 ( 47.0%)
    H- 0 -> L+ 8:  0.3419 ( 23.4%)
    H- 0 -> L+ 6:  0.1891 (  7.1%)
    H- 0 -> L+ 1: -0.1368 (  3.7%)
    H- 0 -> L+ 0: -0.0968 (  1.9%)
                   omega =  83.7%
  ----------------------------------------------------------------------------


  Excited state 9 (singlet, B2)                                    [converged]
  ----------------------------------------------------------------------------
  Term symbol:  9 (1) B2                                    R^2 =  2.42528e-08

  Total energy:                                           -153.7618161031 a.u.
  Excitation energy:                                               5.297970 eV

  Osc. strength:                                                      0.000002
  Trans. dip. moment [a.u.]:           [  -0.000000,   -0.003816,   -0.000000]
  <i|r^2|0> [a.u.]:                    [   0.000000,    0.000000,    0.000000]

  Dip. moment [a.u.]:                  [  -0.000000,   -0.000000,   -7.561419]
  Total dipole [Debye]:                                              19.219213
  <r^2> [a.u.]:                        [  73.872259,   75.182900, 2181.204638]
  Total <r^2> [a.u.]:                                              2330.259797

  V1^2 = 0.8584, V2^2 = 0.1416

  Important amplitudes:
      occ i      occ j       vir a       vir b          v   
    ---------------------------------------------------------
     7 (A1) A               3 (B2) A                  0.6534
     7 (A1) A   2 (B2) B    3 (B2) A    5 (B2) B      0.0562
    ---------------------------------------------------------

  Density matrix analysis:
  ------------------------
  NOs
    Occupation of frontier NOs:
       0.9736   0.9991
    Number of electrons: 26.000000
    Number of unpaired electrons: n_u =  2.80305, n_u,nl =  2.13972
    NO participation ratio (PR_NO):  3.960660
  
  
  Mulliken Population Analysis
  Atom      Charge (e)              h+              e-           Del q
  --------------------------------------------------------------------
   1 C       -0.656027        0.011319       -0.499966       -0.488648
   2 C       -0.656027        0.011319       -0.499966       -0.488648
   3 H        0.083490       -0.000690       -0.010296       -0.010987
   4 H        0.083490       -0.000690       -0.010296       -0.010987
   5 H        0.072523        0.000620       -0.000975       -0.000355
   6 H        0.072523        0.000620       -0.000975       -0.000355
   7 O       -0.327036        1.246260       -0.548341        0.697920
   8 H        0.327065        0.320418       -0.018359        0.302059
  --------------------------------------------------------------------
  Sum:       -1.000000        1.589175       -1.589175        0.000000
  
  Multipole moment analysis of the density matrix
    Molecular charge:                      -1.000000
    Number of electrons:                   26.000000
      Center of electronic charge [Ang]: [  0.000000,   0.000000,   0.153897]
    Total nuclear charge:                  25.000000
      Center of nuclear charge [Ang]:    [ -0.000000,  -0.000000,  -0.000000]
    Dipole moment [D]:                     19.219207
      Cartesian components [D]:          [ -0.000000,  -0.000000, -19.219207]
    RMS size of the density [Ang]:         5.007392
      Cartesian components [Ang]:        [  0.891980,   0.899858,   4.844441]
  
  Exciton analysis of the difference density matrix
    <r_h> [Ang]:                  [  0.000000,   0.000000,  -6.306560]
    <r_e> [Ang]:                  [  0.000000,   0.000000,   0.049511]
    |<r_e - r_h>| [Ang]:            6.356072
    Hole size [Ang]:                1.849856
      Cartesian components [Ang]: [  0.790839,   0.786081,   1.476014]
    Electron size [Ang]:            6.372321
      Cartesian components [Ang]: [  1.932693,   3.209982,   5.154337]

  Transition density matrix analysis:
  -----------------------------------
  
  CT numbers (Mulliken)
    omega =     0.8420
    <Phe> =     0.0000
  
  Exciton analysis of the transition density matrix
    Trans. dipole moment [D]:             0.004850
      Cartesian components [D]:         [ -0.000000,  -0.004850,  -0.000000]
    <r_h> [Ang]:                        [ -0.000000,  -0.000000,  -6.449145]
    <r_e> [Ang]:                        [  0.000000,   0.000000,   3.639150]
    |<r_e - r_h>| [Ang]:                 10.088296
    Hole size [Ang]:                      1.009244
      Cartesian components [Ang]:       [  0.421159,   0.421162,   0.814752]
    Electron size [Ang]:                  5.179276
      Cartesian components [Ang]:       [  2.346649,   3.998292,   2.309069]
    RMS electron-hole separation [Ang]:  11.385064
      Cartesian components [Ang]:       [  2.384247,   4.020441,  10.381286]
    Covariance(r_h, r_e) [Ang^2]:        -0.001248
    Correlation coefficient:             -0.000239
    Center-of-mass size [Ang]:            2.638227
      Cartesian components [Ang]:       [  1.192019,   2.010192,   1.224118]

  Decomposition into state-averaged NTOs
    H- 2 -> L+ 2:  0.6488 ( 84.2%)
                   omega =  84.2%
  ----------------------------------------------------------------------------


  Excited state 10 (singlet, B2)                                    [converged]
  ----------------------------------------------------------------------------
  Term symbol:  10 (1) B2                                   R^2 =  2.51306e-08

  Total energy:                                           -153.7346311528 a.u.
  Excitation energy:                                               6.037711 eV

  Osc. strength:                                                      0.000003
  Trans. dip. moment [a.u.]:           [  -0.000000,   -0.004304,   -0.000000]
  <i|r^2|0> [a.u.]:                    [   0.000000,    0.000000,    0.000000]

  Dip. moment [a.u.]:                  [   0.000000,   -0.000000,   -7.551414]
  Total dipole [Debye]:                                              19.193785
  <r^2> [a.u.]:                        [  73.366232,   37.676064, 2170.875556]
  Total <r^2> [a.u.]:                                              2281.917851

  V1^2 = 0.8410, V2^2 = 0.1590

  Important amplitudes:
      occ i      occ j       vir a       vir b          v   
    ---------------------------------------------------------
     4 (B1) A               3 (A2) A                  0.6352
     4 (B1) A               2 (A2) A                 -0.1262
    ---------------------------------------------------------

  Density matrix analysis:
  ------------------------
  NOs
    Occupation of frontier NOs:
       0.9568   0.9891
    Number of electrons: 26.000000
    Number of unpaired electrons: n_u =  2.76737, n_u,nl =  2.12137
    NO participation ratio (PR_NO):  3.974425
  
  
  Mulliken Population Analysis
  Atom      Charge (e)              h+              e-           Del q
  --------------------------------------------------------------------
   1 C       -0.593394        0.087464       -0.513479       -0.426015
   2 C       -0.593394        0.087464       -0.513479       -0.426015
   3 H        0.052999        0.000487       -0.041964       -0.041477
   4 H        0.052999        0.000487       -0.041964       -0.041477
   5 H        0.040385        0.001077       -0.033570       -0.032493
   6 H        0.040385        0.001077       -0.033570       -0.032493
   7 O       -0.138576        1.401220       -0.514840        0.886380
   8 H        0.138596        0.137947       -0.024356        0.113590
  --------------------------------------------------------------------
  Sum:       -1.000000        1.717224       -1.717224        0.000000
  
  Multipole moment analysis of the density matrix
    Molecular charge:                      -1.000000
    Number of electrons:                   26.000000
      Center of electronic charge [Ang]: [ -0.000000,   0.000000,   0.153694]
    Total nuclear charge:                  25.000000
      Center of nuclear charge [Ang]:    [ -0.000000,  -0.000000,  -0.000000]
    Dipole moment [D]:                     19.193779
      Cartesian components [D]:          [  0.000000,  -0.000000, -19.193779]
    RMS size of the density [Ang]:         4.955137
      Cartesian components [Ang]:        [  0.888920,   0.637011,   4.832951]
  
  Exciton analysis of the difference density matrix
    <r_h> [Ang]:                  [  0.000000,   0.000000,  -5.398760]
    <r_e> [Ang]:                  [ -0.000000,   0.000000,   0.480274]
    |<r_e - r_h>| [Ang]:            5.879034
    Hole size [Ang]:                3.376506
      Cartesian components [Ang]: [  0.906450,   0.775552,   3.158743]
    Electron size [Ang]:            5.480937
      Cartesian components [Ang]: [  1.901871,   1.857154,   4.793176]

  Transition density matrix analysis:
  -----------------------------------
  
  CT numbers (Mulliken)
    omega =     0.8211
    <Phe> =     0.0000
  
  Exciton analysis of the transition density matrix
    Trans. dipole moment [D]:             0.005469
      Cartesian components [D]:         [ -0.000000,  -0.005469,  -0.000000]
    <r_h> [Ang]:                        [ -0.000000,   0.000000,  -6.398062]
    <r_e> [Ang]:                        [ -0.000000,   0.000000,   3.639459]
    |<r_e - r_h>| [Ang]:                 10.037522
    Hole size [Ang]:                      1.091004
      Cartesian components [Ang]:       [  0.841542,   0.485866,   0.496015]
    Electron size [Ang]:                  3.607409
      Cartesian components [Ang]:       [  2.380038,   2.347304,   1.356091]
    RMS electron-hole separation [Ang]:  10.721695
      Cartesian components [Ang]:       [  2.524289,   2.397052,  10.140851]
    Covariance(r_h, r_e) [Ang^2]:         0.000389
    Correlation coefficient:              0.000099
    Center-of-mass size [Ang]:            1.884441
      Cartesian components [Ang]:       [  1.262291,   1.198535,   0.721978]

  Decomposition into state-averaged NTOs
    H- 1 -> L+ 5: -0.4910 ( 48.2%)
    H- 1 -> L+ 9:  0.4097 ( 33.6%)
                   omega =  82.1%
  ----------------------------------------------------------------------------


--------------------------------------------------------------------------------
  Time of ADC calculation:  CPU 207.96 s  wall 55.94 s
================================================================================
 
 --------------------------------------------------------------
             Orbital Energies (a.u.) and Symmetries
 --------------------------------------------------------------
 
 Alpha MOs, Restricted
 -- Occupied --                  
-20.199 -11.183 -11.181  -0.988  -0.904  -0.728  -0.607  -0.513
  1 A1    2 A1    1 B1    3 A1    4 A1    2 B1    5 A1    6 A1                 
 -0.461  -0.323  -0.251  -0.108  -0.108
  3 B1    1 B2    7 A1    2 B2    4 B1                                         
 -- Virtual --                   
  0.080   0.093   0.095   0.104   0.111   0.113   0.149   0.171
  5 B1    3 B2    8 A1    1 A2    9 A1    6 B1   10 A1    7 B1                 
  0.176   0.208   0.225   0.227   0.245   0.304   0.320   0.346
  2 A2   11 A1    8 B1    4 B2   12 A1    3 A2   13 A1    9 B1                 
  0.380   0.391   0.401   0.443   0.444   0.456   0.503   0.561
 14 A1   15 A1   10 B1    5 B2   11 B1   16 A1   12 B1   13 B1                 
  0.584   0.724   0.809   0.903   0.913   0.955   0.963   0.984
 17 A1   18 A1   19 A1    6 B2   20 A1   21 A1    4 A2   14 B1                 
  1.047   1.078   1.090   1.168   1.170   1.269   1.269   1.323
 15 B1   22 A1   16 B1    7 B2   23 A1    8 B2   17 B1    5 A2                 
  1.323   1.337   1.338   1.368   1.400   1.544   1.659   1.669
 24 A1    9 B2    6 A2   18 B1   19 B1   25 A1   26 A1   20 B1                 
  1.729   1.729   1.749   1.900   1.972   1.974   1.991   2.027
 10 B2   21 B1   27 A1    7 A2   22 B1   28 A1   11 B2   29 A1                 
  2.071   2.088   2.224   2.326   2.376   2.376   2.466   2.493
 12 B2   30 A1    8 A2   23 B1   13 B2   24 B1    9 A2   31 A1                 
  2.534   2.594   2.627   2.852   2.856   3.030   3.313   3.394
 32 A1   25 B1   26 B1   33 A1   34 A1   35 A1   27 B1   28 B1                 
  3.930   3.930   3.959   3.959   4.401
 14 B2   29 B1   10 A2   36 A1   37 A1                                         
 
 Beta MOs, Restricted
 -- Occupied --                  
-20.199 -11.183 -11.181  -0.988  -0.904  -0.728  -0.607  -0.513
  1 A1    2 A1    1 B1    3 A1    4 A1    2 B1    5 A1    6 A1                 
 -0.461  -0.323  -0.251  -0.108  -0.108
  3 B1    1 B2    7 A1    2 B2    4 B1                                         
 -- Virtual --                   
  0.080   0.093   0.095   0.104   0.111   0.113   0.149   0.171
  5 B1    3 B2    8 A1    1 A2    9 A1    6 B1   10 A1    7 B1                 
  0.176   0.208   0.225   0.227   0.245   0.304   0.320   0.346
  2 A2   11 A1    8 B1    4 B2   12 A1    3 A2   13 A1    9 B1                 
  0.380   0.391   0.401   0.443   0.444   0.456   0.503   0.561
 14 A1   15 A1   10 B1    5 B2   11 B1   16 A1   12 B1   13 B1                 
  0.584   0.724   0.809   0.903   0.913   0.955   0.963   0.984
 17 A1   18 A1   19 A1    6 B2   20 A1   21 A1    4 A2   14 B1                 
  1.047   1.078   1.090   1.168   1.170   1.269   1.269   1.323
 15 B1   22 A1   16 B1    7 B2   23 A1    8 B2   17 B1    5 A2                 
  1.323   1.337   1.338   1.368   1.400   1.544   1.659   1.669
 24 A1    9 B2    6 A2   18 B1   19 B1   25 A1   26 A1   20 B1                 
  1.729   1.729   1.749   1.900   1.972   1.974   1.991   2.027
 10 B2   21 B1   27 A1    7 A2   22 B1   28 A1   11 B2   29 A1                 
  2.071   2.088   2.224   2.326   2.376   2.376   2.466   2.493
 12 B2   30 A1    8 A2   23 B1   13 B2   24 B1    9 A2   31 A1                 
  2.534   2.594   2.627   2.852   2.856   3.030   3.313   3.394
 32 A1   25 B1   26 B1   33 A1   34 A1   35 A1   27 B1   28 B1                 
  3.930   3.930   3.959   3.959   4.401
 14 B2   29 B1   10 A2   36 A1   37 A1                                         
 --------------------------------------------------------------
 
          Ground-State Mulliken Net Atomic Charges

     Atom                 Charge (a.u.)
  ----------------------------------------
      1 C                    -0.153384
      2 C                    -0.153384
      3 H                     0.087505
      4 H                     0.087505
      5 H                     0.065876
      6 H                     0.065876
      7 O                    -1.037432
      8 H                     0.037438
  ----------------------------------------
  Sum of atomic charges =    -1.000000

 -----------------------------------------------------------------
                    Cartesian Multipole Moments
 -----------------------------------------------------------------
    Charge (ESU x 10^10)
                -4.8032
    Dipole Moment (Debye)
         X      -0.0000      Y       0.0000      Z      29.1982
       Tot      29.1982
    Quadrupole Moments (Debye-Ang)
        XX     -23.0744     XY      -0.0000     YY     -26.2461
        XZ      -0.0000     YZ      -0.0000     ZZ    -199.5022
    Octopole Moments (Debye-Ang^2)
       XXX      -0.0000    XXY       0.0000    XYY       0.0000
       YYY       0.0000    XXZ      17.5240    XYZ      -0.0000
       YYZ       6.1818    XZZ      -0.0000    YZZ       0.0000
       ZZZ    1094.9441
    Hexadecapole Moments (Debye-Ang^3)
      XXXX     -84.3394   XXXY       0.0000   XXYY     -20.8922
      XYYY      -0.0000   YYYY     -37.4181   XXXZ      -0.0000
      XXYZ       0.0000   XYYZ       0.0000   YYYZ       0.0000
      XXZZ    -608.3119   XYZZ      -0.0000   YYZZ    -644.5116
      XZZZ      -0.0000   YZZZ      -0.0000   ZZZZ   -9457.2341
 -----------------------------------------------------------------
 Total job time:  165.47s(wall), 259.06s(cpu) 
 Thu Mar  3 18:29:04 2022

        *************************************************************
        *                                                           *
        *  Thank you very much for using Q-Chem.  Have a nice day.  *
        *                                                           *
        *************************************************************


