/src/tsommerfeld/qchem/exe/qcprog.exe .input1.654545.8848.qcin.1 /src/jdavis/qchem.scratch/qchem8848/

                  Welcome to Q-Chem
     A Quantum Leap Into The Future Of Chemistry


 Q-Chem 5.4 (devel), Q-Chem, Inc., Pleasanton, CA (2021)

 E. Epifanovsky,  A. T. B. Gilbert,  Xintian Feng,  Joonho Lee,  Yuezhi Mao,  
 N. Mardirossian,  P. Pokhilko,  A. White,  M. Wormit,  M. P. Coons,  
 A. L. Dempwolff,  Zhengting Gan,  D. Hait,  P. R. Horn,  L. D. Jacobson,  
 I. Kaliman,  J. Kussmann,  A. W. Lange,  Ka Un Lao,  D. S. Levine,  Jie Liu,  
 S. C. McKenzie,  A. F. Morrison,  K. Nanda,  F. Plasser,  D. R. Rehn,  
 M. L. Vidal,  Zhi-Qiang You,  Ying Zhu,  B. Alam,  B. Albrecht,  
 A. Aldossary,  E. Alguire,  J. H. Andersen,  D. Barton,  K. Begam,  A. Behn,  
 Y. A. Bernard,  E. J. Berquist,  H. Burton,  A. Carreras,  K. Carter-Fenk,  
 R. Chakraborty,  A. D. Chien,  K. D. Closser,  V. Cofer-Shabica,  
 S. Dasgupta,  Jia Deng,  M. de Wergifosse,  M. Diedenhofen,  Hainam Do,  
 S. Ehlert,  Po-Tung Fang,  S. Fatehi,  Qingguo Feng,  T. Friedhoff,  
 J. Gayvert,  Qinghui Ge,  G. Gidofalvi,  M. Goldey,  J. Gomes,  
 C. Gonzalez-Espinoza,  S. Gulania,  A. Gunina,  M. W. D. Hanson-Heine,  
 P. H. P. Harbach,  A. W. Hauser,  M. F. Herbst,  M. Hernandez Vera,  
 M. Hodecker,  Z. C. Holden,  S. Houck,  Xunkun Huang,  Kerwin Hui,  
 B. C. Huynh,  M. Ivanov,  Hyunjun Ji,  Hanjie Jiang,  B. Kaduk,  S. Kaehler,  
 K. Khistyaev,  Jaehoon Kim,  P. Klunzinger,  Z. Koczor-Benda,  
 Joong Hoon Koh,  D. Kosenkov,  L. Koulias,  T. Kowalczyk,  C. M. Krauter,  
 K. Kue,  A. Kunitsa,  T. Kus,  A. Landau,  K. V. Lawler,  D. Lefrancois,  
 S. Lehtola,  Rain Li,  Yi-Pei Li,  Jiashu Liang,  M. Liebenthal,  
 Hung-Hsuan Lin,  You-Sheng Lin,  Fenglai Liu,  Kuan-Yu Liu,  
 M. Loipersberger,  A. Luenser,  A. Manjanath,  P. Manohar,  E. Mansoor,  
 S. F. Manzer,  Shan-Ping Mao,  A. V. Marenich,  T. Markovich,  S. Mason,  
 S. A. Maurer,  P. F. McLaughlin,  M. F. S. J. Menger,  J.-M. Mewes,  
 S. A. Mewes,  P. Morgante,  J. W. Mullinax,  K. J. Oosterbaan,  G. Paran,  
 Alexander C. Paul,  Suranjan K. Paul,  F. Pavosevic,  Zheng Pei,  S. Prager,  
 E. I. Proynov,  E. Ramos,  B. Rana,  A. E. Rask,  A. Rettig,  R. M. Richard,  
 F. Rob,  E. Rossomme,  T. Scheele,  M. Scheurer,  M. Schneider,  
 N. Sergueev,  S. M. Sharada,  W. Skomorowski,  D. W. Small,  C. J. Stein,  
 Yu-Chuan Su,  E. J. Sundstrom,  Zhen Tao,  J. Thirman,  T. Tsuchimochi,  
 N. M. Tubman,  S. P. Veccham,  O. Vydrov,  J. Wenzel,  J. Witte,  A. Yamada,  
 Kun Yao,  S. Yeganeh,  S. R. Yost,  A. Zech,  Igor Ying Zhang,  Xing Zhang,  
 Yu Zhang,  D. Zuev,  A. Aspuru-Guzik,  A. T. Bell,  N. A. Besley,  
 K. B. Bravaya,  B. R. Brooks,  D. Casanova,  Jeng-Da Chai,  S. Coriani,  
 C. J. Cramer,  A. E. DePrince, III,  R. A. DiStasio Jr.,  A. Dreuw,  
 B. D. Dunietz,  T. R. Furlani,  W. A. Goddard III,  S. Grimme,  
 S. Hammes-Schiffer,  T. Head-Gordon,  W. J. Hehre,  Chao-Ping Hsu,  
 T.-C. Jagau,  Yousung Jung,  A. Klamt,  Jing Kong,  D. S. Lambrecht,  
 WanZhen Liang,  N. J. Mayhall,  C. W. McCurdy,  J. B. Neaton,  
 C. Ochsenfeld,  J. A. Parkhill,  R. Peverati,  V. A. Rassolov,  Yihan Shao,  
 L. V. Slipchenko,  T. Stauch,  R. P. Steele,  J. E. Subotnik,  
 A. J. W. Thom,  A. Tkatchenko,  D. G. Truhlar,  T. Van Voorhis,  
 T. A. Wesolowski,  K. B. Whaley,  H. L. Woodcock III,  P. M. Zimmerman,  
 S. Faraji,  P. M. W. Gill,  M. Head-Gordon,  J. M. Herbert,  A. I. Krylov

 Additional authors for Version 5.4.1: 
 S. Kotaru,  Shaozhi Li,  Xiangyuan Li,  F. Matz,  A. Molle,  Haisheng Ren,  
 Yingli Su,  Hung-Yi Tsai,  C. Utku,  Fang Wang

 Contributors to earlier versions of Q-Chem not listed above: 
 R. D. Adamson,  B. Austin,  R. Baer,  J. Baker,  G. J. O. Beran,  
 K. Brandhorst,  S. T. Brown,  E. F. C. Byrd,  A. K. Chakraborty,  
 G. K. L. Chan,  Chun-Min Chang,  Yunqing Chen,  C.-L. Cheng,  
 Siu Hung Chien,  D. M. Chipman,  D. L. Crittenden,  H. Dachsel,  
 R. J. Doerksen,  A. D. Dutoi,  R. G. Edgar,  J. Fosso-Tande,  
 L. Fusti-Molnar,  D. Ghosh,  A. Ghysels,  A. Golubeva-Zadorozhnaya,  
 J. Gonthier,  M. S. Gordon,  S. R. Gwaltney,  G. Hawkins,  J. E. Herr,  
 A. Heyden,  S. Hirata,  E. G. Hohenstein,  G. Kedziora,  F. J. Keil,  
 C. Kelley,  Jihan Kim,  R. A. King,  R. Z. Khaliullin,  P. P. Korambath,  
 W. Kurlancheek,  A. Laurent,  A. M. Lee,  M. S. Lee,  S. V. Levchenko,  
 Ching Yeh Lin,  D. Liotard,  E. Livshits,  R. C. Lochan,  I. Lotan,  
 L. A. Martinez-Martinez,  P. E. Maslen,  N. Nair,  D. P. O'Neill,  
 D. Neuhauser,  E. Neuscamman,  C. M. Oana,  R. Olivares-Amaya,  R. Olson,  
 T. M. Perrine,  B. Peters,  P. A. Pieniazek,  A. Prociuk,  Y. M. Rhee,  
 J. Ritchie,  M. A. Rohrdanz,  E. Rosta,  N. J. Russ,  H. F. Schaefer III,  
 M. W. Schmidt,  N. E. Schultz,  S. Sharma,  N. Shenvi,  C. D. Sherrill,  
 A. C. Simmonett,  A. Sodt,  T. Stein,  D. Stuck,  K. S. Thanthiriwatte,  
 V. Vanovschi,  L. Vogt,  Tao Wang,  A. Warshel,  M. A. Watson,  
 C. F. Williams,  Q. Wu,  X. Xu,  Jun Yang,  W. Zhang,  Yan Zhao

 Please cite Q-Chem as follows:
 Y. Shao et al., Mol. Phys. 113, 184-215 (2015)
 DOI: 10.1080/00268976.2014.952696

 Q-Chem 5.4.1 for Intel X86 EM64T Linux

 Parts of Q-Chem use Armadillo 9.900.5 (Nocturnal Misbehaviour).
 http://arma.sourceforge.net/

 Q-Chem begins on Thu Mar  3 19:18:00 2022  

 Host: node01
0

     Scratch files written to /src/jdavis/qchem.scratch/qchem8848//
 Processing $rem in /src/tsommerfeld/qchem/config/preferences:
 Processing $rem in /home/jdavis/.qchemrc:

 Checking the input file for inconsistencies... 	...done.

--------------------------------------------------------------
User input:
--------------------------------------------------------------
$molecule
-1 1
C        -0.6645000000    0.0000000000    1.1619088658
C         0.6645000000    0.0000000000    1.1619088658
H        -1.1590800000    0.0000000000    0.1995598658
H         1.1590800000    0.0000000000    0.1995598658
H        -1.1590800000    0.0000000000    2.1242568658
H         1.1590800000    0.0000000000    2.1242568658
O         0.0000000000    0.0000000000   -8.84
H         0.0000000000    0.0000000000   -9.81
$end
$rem
   METHOD adc(2)
   BASIS gen
   PURECART 11
   EE_STATES [0,0,0,10]
   scf_convergence 8
   ADC_DAVIDSON_MAXITER 120
   ADC_DAVIDSON_MAXSUBSPACE 200
   adc_nguess_singles 100
   THRESH 14
   S2THRESH 14
   adc_davidson_conv 5
   adc_davidson_thresh 14
   THREADS 10
   MEM_TOTAL 95000
   STATE_ANALYSIS TRUE
$end
$basis
C 1
S   9   1.00
      6.665000D+03           6.920000D-04
      1.000000D+03           5.329000D-03
      2.280000D+02           2.707700D-02
      6.471000D+01           1.017180D-01
      2.106000D+01           2.747400D-01
      7.495000D+00           4.485640D-01
      2.797000D+00           2.850740D-01
      5.215000D-01           1.520400D-02
      1.596000D-01          -3.191000D-03
S   9   1.00
      6.665000D+03          -1.460000D-04
      1.000000D+03          -1.154000D-03
      2.280000D+02          -5.725000D-03
      6.471000D+01          -2.331200D-02
      2.106000D+01          -6.395500D-02
      7.495000D+00          -1.499810D-01
      2.797000D+00          -1.272620D-01
      5.215000D-01           5.445290D-01
      1.596000D-01           5.804960D-01
S   1   1.00
      1.596000D-01           1.000000D+00
S   1   1.00
      0.0469000              1.0000000
P   4   1.00
      9.439000D+00           3.810900D-02
      2.002000D+00           2.094800D-01
      5.456000D-01           5.085570D-01
      1.517000D-01           4.688420D-01
P   1   1.00
      1.517000D-01           1.000000D+00
P   1   1.00
      0.0717127      1.0000000
P   1   1.00
      0.0358564      1.0000000
D   1   1.00
      5.500000D-01           1.0000000
****
C 2
S   9   1.00
      6.665000D+03           6.920000D-04
      1.000000D+03           5.329000D-03
      2.280000D+02           2.707700D-02
      6.471000D+01           1.017180D-01
      2.106000D+01           2.747400D-01
      7.495000D+00           4.485640D-01
      2.797000D+00           2.850740D-01
      5.215000D-01           1.520400D-02
      1.596000D-01          -3.191000D-03
S   9   1.00
      6.665000D+03          -1.460000D-04
      1.000000D+03          -1.154000D-03
      2.280000D+02          -5.725000D-03
      6.471000D+01          -2.331200D-02
      2.106000D+01          -6.395500D-02
      7.495000D+00          -1.499810D-01
      2.797000D+00          -1.272620D-01
      5.215000D-01           5.445290D-01
      1.596000D-01           5.804960D-01
S   1   1.00
      1.596000D-01           1.000000D+00
S   1   1.00
      0.0469000              1.0000000
P   4   1.00
      9.439000D+00           3.810900D-02
      2.002000D+00           2.094800D-01
      5.456000D-01           5.085570D-01
      1.517000D-01           4.688420D-01
P   1   1.00
      1.517000D-01           1.000000D+00
P   1   1.00
      0.0717127      1.0000000
P   1   1.00
      0.0358564      1.0000000
D   1   1.00
      5.500000D-01           1.0000000
****
H 3
cc-pVDZ
****
H 4
cc-pVDZ
****
H 5
cc-pVDZ
****
H 6
cc-pVDZ
****
O 7
aug-cc-pVDZ
****
H 8
cc-pVDZ
****
$end
--------------------------------------------------------------
 ----------------------------------------------------------------
             Standard Nuclear Orientation (Angstroms)
    I     Atom           X                Y                Z
 ----------------------------------------------------------------
    1      C      -0.6645000000     0.0000000000     3.6394872717
    2      C       0.6645000000    -0.0000000000     3.6394872717
    3      H      -1.1590800000     0.0000000000     2.6771382717
    4      H       1.1590800000    -0.0000000000     2.6771382717
    5      H      -1.1590800000     0.0000000000     4.6018352717
    6      H       1.1590800000    -0.0000000000     4.6018352717
    7      O      -0.0000000000     0.0000000000    -6.3624215941
    8      H      -0.0000000000     0.0000000000    -7.3324215941
 ----------------------------------------------------------------
 Molecular Point Group                 C2v   NOp =  4
 Largest Abelian Subgroup              C2v   NOp =  4
 Nuclear Repulsion Energy =          45.48950572 hartrees
 There are       13 alpha and       13 beta electrons
 Requested basis set is non-standard
 There are 42 shells and 90 basis functions
 Total memory of 95000 MB is distributed as follows: 
   MEM_STATIC is set to 192 MB
   QALLOC/CCMAN JOB total memory use is  94808 MB
 Warning: actual memory use might exceed 95000 MB

 Total QAlloc Memory Limit  95000 MB
 Mega-Array Size       188 MB
 MEM_STATIC part       192 MB

                       Distance Matrix (Angstroms)
             C (  1)   C (  2)   H (  3)   H (  4)   H (  5)   H (  6)
   C (  2)  1.329000
   H (  3)  1.082000  2.061931
   H (  4)  2.061931  1.082000  2.318160
   H (  5)  1.082000  2.061931  1.924697  3.013026
   H (  6)  2.061931  1.082000  3.013026  1.924697  2.318160
   O (  7) 10.023958 10.023958  9.113567  9.113567 11.025352 11.025352
   H (  8) 10.992013 10.992013 10.076446 10.076446 11.990411 11.990411
             O (  7)
   H (  8)  0.970000
 
 A cutoff of  1.0D-14 yielded    667 shell pairs
 There are      3043 function pairs (      3287 Cartesian)
 Smallest overlap matrix eigenvalue = 2.57E-04

 Scale SEOQF with 1.000000e-01/1.000000e-01/1.000000e-02

 Standard Electronic Orientation quadrupole field applied
 Nucleus-field energy     =    -0.0000000060 hartrees
 ================ Generating on-the-fly SAD Guess ================
Attempting to make child job directory: /src/jdavis/qchem.scratch/qchem8848//Frg1/
Attempting to make child job directory: /src/jdavis/qchem.scratch/qchem8848//Frg2/
Attempting to make child job directory: /src/jdavis/qchem.scratch/qchem8848//Frg3/
Creating input file /src/jdavis/qchem.scratch/qchem8848/Frg1.input
using default PutDataFrgm: nothing
calling putenv with: QCSCRATCH=/src/jdavis/qchem.scratch/qchem8848/ 
Spawning Job For Fragment 0
Done Job For Fragment 0
calling putenv with: QCSCRATCH=/src/jdavis/qchem.scratch 
calling putenv with: QCTHREADS=1 
Creating input file /src/jdavis/qchem.scratch/qchem8848/Frg2.input
using default PutDataFrgm: nothing
calling putenv with: QCSCRATCH=/src/jdavis/qchem.scratch/qchem8848/ 
Spawning Job For Fragment 1
Done Job For Fragment 1
calling putenv with: QCSCRATCH=/src/jdavis/qchem.scratch 
calling putenv with: QCTHREADS=1 
Creating input file /src/jdavis/qchem.scratch/qchem8848/Frg3.input
using default PutDataFrgm: nothing
calling putenv with: QCSCRATCH=/src/jdavis/qchem.scratch/qchem8848/ 
Spawning Job For Fragment 2
Done Job For Fragment 2
calling putenv with: QCSCRATCH=/src/jdavis/qchem.scratch 
calling putenv with: QCTHREADS=1 
 Time for running child jobs:  CPU 1.77 s  wall 80.79 s
 ============= Method Specific SAD Guess Constructed =============
 Guess from on-the-fly superposition of atomic densities
 Warning: Energy on first SCF cycle will be non-variational
 A restricted Hartree-Fock SCF calculation will be
 performed using Pulay DIIS extrapolation
 SCF converges when DIIS error is below 1.0E-08
 using 10 threads for integral computing
 -------------------------------------------------------
 OpenMP Integral computing Module                
 Release: version 1.0, May 2013, Q-Chem Inc. Pittsburgh 
 -------------------------------------------------------
 ---------------------------------------
  Cycle       Energy         DIIS Error
 ---------------------------------------
    1    -153.5099632047      5.93E-02
    2    -153.2822312140      1.22E-02
    3    -153.3438829302      1.06E-02
    4    -153.4321178906      6.44E-04
    5    -153.4328576230      1.83E-04
    6    -153.4329051114      3.81E-05
    7    -153.4329077353      9.25E-06
    8    -153.4329080144      2.63E-06
    9    -153.4329080361      4.37E-07
   10    -153.4329080366      5.78E-08
   11    -153.4329080366      1.19E-08
   12    -153.4329080366      2.97E-09 Convergence criterion met
 ---------------------------------------
 SCF time:  CPU 12.19 s  wall 1.23 s
 SCF   energy in the final basis set = -153.43290804
 Total energy in the final basis set = -153.43290804
================================================================================
|                                                                              |
|                                 A D C  M A N                                 |
|                                                                              |
 ------------------------------------------------------------------------------ 
|                                                                              |
| Components:                                                                  |
|                                                                              |
| - libvmm - 1.3-trunk                                                         |
|   Authors:                                                                   |
|   Evgeny Epifanovsky, Ilya Kaliman                                           |
|                                                                              |
| - libtensor - 2.5-trunk                                                      |
|   Authors:                                                                   |
|   Evgeny Epifanovsky, Michael Wormit, Dmitry Zuev, Sam Manzer,               |
|   Ilya Kaliman                                                               |
|                                                                              |
| - libwfa - 1.1-trunk                                                         |
|   Authors:                                                                   |
|   Felix Plasser, Stefanie Mewes (Baeppler), Benjamin Thomitzni,              |
|   Michael Wormit, Feng Chen, Anna I. Krylov, Pavel Pokhilko                  |
|                                                                              |
| - libadc - 1.1-trunk                                                         |
|   Authors:                                                                   |
|   Michael Wormit, Adrian L. Dempwolff, Philipp H. P. Harbach,                |
|   Caroline Krauter, Dirk Rehn, Matthias Schneider, Jan Wenzel                |
|                                                                              |
| - adcman - 2.6-trunk                                                         |
|   Authors:                                                                   |
|   Michael Wormit, Adrian L. Dempwolff, Philipp H. P. Harbach,                |
|   Caroline Krauter, Daniel Lefrancois, Jan-Michael Mewes, Dirk Rehn,         |
|   Matthias Schneider, Jan Wenzel, Andreas Dreuw                              |
|                                                                              |
| Authors of earlier versions of ADCMAN:                                       |
| Andreas Dreuw, Jan Hendrik Starcke, Dirk Rehn, Michael Wormit                |
|                                                                              |
================================================================================

 
 Alpha MOs, Restricted
 -- Occupied --                  
-20.199 -11.183 -11.181  -0.988  -0.904  -0.728  -0.606  -0.513
  1 A1    2 A1    1 B1    3 A1    4 A1    2 B1    5 A1    6 A1                 
 -0.461  -0.323  -0.251  -0.108  -0.108
  3 B1    1 B2    7 A1    2 B2    4 B1                                         
 -- Virtual --                   
  0.113   0.128   0.136   0.137   0.143   0.157   0.184   0.224
  5 B1    8 A1    3 B2    9 A1    1 A2    6 B1   10 A1    2 A2                 
  0.256   0.316   0.349   0.358   0.368   0.376   0.376   0.380
  7 B1   11 A1   12 A1    8 B1   13 A1    9 B1    4 B2   14 A1                 
  0.395   0.423   0.443   0.443   0.454   0.457   0.584   0.608
 15 A1   10 B1   11 B1    5 B2   16 A1    3 A2   17 A1   12 B1                 
  0.663   0.880   0.909   0.972   0.987   1.047   1.090   1.098
 13 B1   18 A1   19 A1   20 A1   14 B1   21 A1   15 B1   22 A1                 
  1.121   1.164   1.168   1.169   1.170   1.269   1.269   1.323
  6 B2    4 A2    7 B2   23 A1   16 B1   17 B1    8 B2    5 A2                 
  1.323   1.323   1.338   1.341   1.469   1.544   1.673   1.698
 24 A1   18 B1    6 A2    9 B2   19 B1   25 A1   26 A1   20 B1                 
  1.729   1.729   1.778   1.924   1.973   1.997   2.008   2.071
 10 B2   21 B1   27 A1    7 A2   28 A1   11 B2   22 B1   12 B2                 
  2.111   2.143   2.233   2.376   2.376   2.380   2.466   2.520
 29 A1   30 A1    8 A2   23 B1   13 B2   24 B1    9 A2   31 A1                 
  2.534   2.631   2.635   2.874   2.882   3.030   3.307   3.393
 32 A1   25 B1   26 B1   33 A1   34 A1   35 A1   27 B1   28 B1                 
  3.930   3.930   3.959   3.959   4.401
 29 B1   14 B2   10 A2   36 A1   37 A1                                         
 
 Beta MOs, Restricted
 -- Occupied --                  
-20.199 -11.183 -11.181  -0.988  -0.904  -0.728  -0.606  -0.513
  1 A1    2 A1    1 B1    3 A1    4 A1    2 B1    5 A1    6 A1                 
 -0.461  -0.323  -0.251  -0.108  -0.108
  3 B1    1 B2    7 A1    2 B2    4 B1                                         
 -- Virtual --                   
  0.113   0.128   0.136   0.137   0.143   0.157   0.184   0.224
  5 B1    8 A1    3 B2    9 A1    1 A2    6 B1   10 A1    2 A2                 
  0.256   0.316   0.349   0.358   0.368   0.376   0.376   0.380
  7 B1   11 A1   12 A1    8 B1   13 A1    9 B1    4 B2   14 A1                 
  0.395   0.423   0.443   0.443   0.454   0.457   0.584   0.608
 15 A1   10 B1   11 B1    5 B2   16 A1    3 A2   17 A1   12 B1                 
  0.663   0.880   0.909   0.972   0.987   1.047   1.090   1.098
 13 B1   18 A1   19 A1   20 A1   14 B1   21 A1   15 B1   22 A1                 
  1.121   1.164   1.168   1.169   1.170   1.269   1.269   1.323
  6 B2    4 A2    7 B2   23 A1   16 B1   17 B1    8 B2    5 A2                 
  1.323   1.323   1.338   1.341   1.469   1.544   1.673   1.698
 24 A1   18 B1    6 A2    9 B2   19 B1   25 A1   26 A1   20 B1                 
  1.729   1.729   1.778   1.924   1.973   1.997   2.008   2.071
 10 B2   21 B1   27 A1    7 A2   28 A1   11 B2   22 B1   12 B2                 
  2.111   2.143   2.233   2.376   2.376   2.380   2.466   2.520
 29 A1   30 A1    8 A2   23 B1   13 B2   24 B1    9 A2   31 A1                 
  2.534   2.631   2.635   2.874   2.882   3.030   3.307   3.393
 32 A1   25 B1   26 B1   33 A1   34 A1   35 A1   27 B1   28 B1                 
  3.930   3.930   3.959   3.959   4.401
 29 B1   14 B2   10 A2   36 A1   37 A1                                         

--------------------------------------------------------------------------------
                                   HF Summary                                   
--------------------------------------------------------------------------------
  Energy:                                                 -153.4329080366 a.u.
  Dip. moment [a.u.]:                  [  -0.000000,    0.000000,   11.487047]
  Total dipole [Debye]:                                              29.197167
  <r^2> [a.u.]:                        [  55.252695,   19.523916, 2266.854472]
  Total <r^2> [a.u.]:                                              2341.631083
--------------------------------------------------------------------------------

--------------------------------------------------------------------------------
                                 MP(2) Summary                                  
--------------------------------------------------------------------------------
  MP energy contribution:                                   -0.5249643974 a.u.
  Total energy:                                           -153.9578724340 a.u.
  Dip. moment [a.u.]:                  [  -0.000000,   -0.000000,   11.526310]
  Total dipole [Debye]:                                              29.296963
  <r^2> [a.u.]:                        [  56.209271,   20.222718, 2268.513393]
  Total <r^2> [a.u.]:                                              2344.945382

  Density matrix analysis:
  ------------------------
  NOs
    Occupation of frontier NOs:
       0.0447   1.9370
    Number of electrons: 26.000000
    Number of unpaired electrons: n_u =  0.71405, n_u,nl =  0.08552
    NO participation ratio (PR_NO): 22.895071
  
  
  Mulliken Population Analysis
  Atom      Charge (e)              h+              e-           Del q
  --------------------------------------------------------------------
   1 C       -0.199819        0.087669       -0.102555       -0.014887
   2 C       -0.199819        0.087669       -0.102555       -0.014887
   3 H        0.111122        0.017748       -0.010319        0.007429
   4 H        0.111122        0.017748       -0.010319        0.007429
   5 H        0.088696        0.018078       -0.010621        0.007457
   6 H        0.088696        0.018078       -0.010621        0.007457
   7 O       -1.024955        0.282666       -0.270291        0.012375
   8 H        0.024957        0.017596       -0.029970       -0.012374
  --------------------------------------------------------------------
  Sum:       -1.000000        0.547251       -0.547251       -0.000000
  
  Multipole moment analysis of the density matrix
    Molecular charge:                      -1.000000
    Number of electrons:                   26.000000
      Center of electronic charge [Ang]: [ -0.000000,   0.000000,  -0.234595]
    Total nuclear charge:                  25.000000
      Center of nuclear charge [Ang]:    [ -0.000000,  -0.000000,  -0.000000]
    Dipole moment [D]:                     29.296954
      Cartesian components [D]:          [  0.000000,  -0.000000,  29.296954]
    RMS size of the density [Ang]:         5.020039
      Cartesian components [Ang]:        [  0.778070,   0.466696,   4.937367]
  
  Exciton analysis of the difference density matrix
    <r_h> [Ang]:                  [  0.000000,   0.000000,  -1.860574]
    <r_e> [Ang]:                  [  0.000000,   0.000000,  -1.898541]
    |<r_e - r_h>| [Ang]:            0.037966
    Hole size [Ang]:                5.151132
      Cartesian components [Ang]: [  0.821100,   0.711553,   5.035240]
    Electron size [Ang]:            5.299751
      Cartesian components [Ang]: [  1.078742,   0.929454,   5.104880]
--------------------------------------------------------------------------------
  Starting Davidson for singlet states of irrep B2 ... 
--------------------------------------------------------------------------------
   It NVec Conv  Avg. Norm  Max. Norm  Conv. states           Remark
--------------------------------------------------------------------------------
       100    0  1.531e-01  6.091e-01  0.2526 n n n n n n n n Guess.
    1  110    0  1.602e-02  8.919e-02  0.0723 n n n n n n n n 
    2  120    0  3.115e-03  2.088e-02  0.0707 n n n n n n n n 
    3  130    0  1.384e-02  9.821e-02  0.0706 n n n n n n n n 
    4  140    0  1.970e-03  1.757e-02  0.0706 n n n n n n n n 
    5  150    4  1.125e-02  1.124e-01  0.0706 y y y n y n n n 
    6  160    7  1.009e-03  1.007e-02  0.0706 y y y y y y n n 
    7  170    7  9.832e-05  9.817e-04  0.0706 y y y y y y n n 
    8  180    9  1.200e-05  1.198e-04  0.0706 y y y y y y n y 
    9  190   10  9.226e-07  9.207e-06  0.0706 y y y y y y y y Converged.
--------------------------------------------------------------------------------
  Davidson Summary: 
 ------------------------------------------------------------
  State  0: excitation energy =   0.0706 a.u.   (converged)
  State  1: excitation energy =   0.0780 a.u.   (converged)
  State  2: excitation energy =   0.0812 a.u.   (converged)
  State  3: excitation energy =   0.1197 a.u.   (converged)
  State  4: excitation energy =   0.1439 a.u.   (converged)
  State  5: excitation energy =   0.1750 a.u.   (converged)
  State  6: excitation energy =   0.2344 a.u.   (converged)
  State  7: excitation energy =   0.2365 a.u.   (converged)
  State  8: excitation energy =   0.2396 a.u.   (converged)
  State  9: excitation energy =   0.2699 a.u.   (converged)
 ------------------------------------------------------------


--------------------------------------------------------------------------------
                   State-averaged natural transition orbitals
--------------------------------------------------------------------------------
--------------------------------------------------------------------------------

--------------------------------------------------------------------------------
                             Excited State Summary
--------------------------------------------------------------------------------
--------------------------------------------------------------------------------

  Excited state 1 (singlet, B2)                                    [converged]
  ----------------------------------------------------------------------------
  Term symbol:  1 (1) B2                                    R^2 =  5.10311e-11

  Total energy:                                           -153.8872355612 a.u.
  Excitation energy:                                               1.922127 eV

  Osc. strength:                                                      0.000000
  Trans. dip. moment [a.u.]:           [   0.000000,   -0.002459,    0.000000]
  <i|r^2|0> [a.u.]:                    [   0.000000,    0.000000,   -0.000000]

  Dip. moment [a.u.]:                  [   0.000000,    0.000000,   -7.969345]
  Total dipole [Debye]:                                              20.256058
  <r^2> [a.u.]:                        [  65.787376,   26.966812, 2200.268970]
  Total <r^2> [a.u.]:                                              2293.023158

  V1^2 = 0.8538, V2^2 = 0.1462

  Important amplitudes:
      occ i      occ j       vir a       vir b          v   
    ---------------------------------------------------------
     2 (B2) A               8 (A1) A                  0.6072
     2 (B2) A               9 (A1) A                 -0.2338
    ---------------------------------------------------------

  Density matrix analysis:
  ------------------------
  NOs
    Occupation of frontier NOs:
       0.9566   0.9969
    Number of electrons: 26.000000
    Number of unpaired electrons: n_u =  2.75811, n_u,nl =  2.12192
    NO participation ratio (PR_NO):  3.916585
  
  
  Mulliken Population Analysis
  Atom      Charge (e)              h+              e-           Del q
  --------------------------------------------------------------------
   1 C       -0.657365        0.013288       -0.470834       -0.457546
   2 C       -0.657365        0.013288       -0.470834       -0.457546
   3 H        0.080805        0.000708       -0.031025       -0.030317
   4 H        0.080805        0.000708       -0.031025       -0.030317
   5 H        0.076750        0.009356       -0.021303       -0.011946
   6 H        0.076750        0.009356       -0.021303       -0.011946
   7 O       -0.141165        1.419450       -0.535660        0.883790
   8 H        0.140787        0.140795       -0.024966        0.115829
  --------------------------------------------------------------------
  Sum:       -1.000000        1.606950       -1.606950        0.000000
  
  Multipole moment analysis of the density matrix
    Molecular charge:                      -1.000000
    Number of electrons:                   26.000000
      Center of electronic charge [Ang]: [  0.000000,  -0.000000,   0.162200]
    Total nuclear charge:                  25.000000
      Center of nuclear charge [Ang]:    [ -0.000000,  -0.000000,  -0.000000]
    Dipole moment [D]:                     20.256052
      Cartesian components [D]:          [ -0.000000,   0.000000, -20.256052]
    RMS size of the density [Ang]:         4.966921
      Cartesian components [Ang]:        [  0.841755,   0.538926,   4.865317]
  
  Exciton analysis of the difference density matrix
    <r_h> [Ang]:                  [ -0.000000,  -0.000000,  -6.140075]
    <r_e> [Ang]:                  [  0.000000,  -0.000000,   0.279950]
    |<r_e - r_h>| [Ang]:            6.420025
    Hole size [Ang]:                2.260312
      Cartesian components [Ang]: [  0.814910,   0.901626,   1.905781]
    Electron size [Ang]:            5.803718
      Cartesian components [Ang]: [  1.527471,   1.410022,   5.418655]

  Transition density matrix analysis:
  -----------------------------------
  
  CT numbers (Mulliken)
    omega =     0.8391
    <Phe> =    -0.0000
  
  Exciton analysis of the transition density matrix
    Trans. dipole moment [D]:             0.003125
      Cartesian components [D]:         [  0.000000,  -0.003125,   0.000000]
    <r_h> [Ang]:                        [ -0.000000,  -0.000000,  -6.398121]
    <r_e> [Ang]:                        [  0.000000,  -0.000000,   3.869129]
    |<r_e - r_h>| [Ang]:                 10.267250
    Hole size [Ang]:                      1.091760
      Cartesian components [Ang]:       [  0.486095,   0.841922,   0.496809]
    Electron size [Ang]:                  3.836425
      Cartesian components [Ang]:       [  1.807931,   1.683764,   2.935044]
    RMS electron-hole separation [Ang]:  11.014960
      Cartesian components [Ang]:       [  1.872119,   1.882533,  10.690209]
    Covariance(r_h, r_e) [Ang^2]:        -0.001411
    Correlation coefficient:             -0.000337
    Center-of-mass size [Ang]:            1.994196
      Cartesian components [Ang]:       [  0.936079,   0.941257,   1.488157]

  Decomposition into state-averaged NTOs
    H- 0 -> L+ 2:  0.5700 ( 65.0%)
    H- 0 -> L+ 6:  0.1907 (  7.3%)
    H- 0 -> L+ 7:  0.1705 (  5.8%)
    H- 0 -> L+ 8: -0.1702 (  5.8%)
                   omega =  83.9%
  ----------------------------------------------------------------------------


  Excited state 2 (singlet, B2)                                    [converged]
  ----------------------------------------------------------------------------
  Term symbol:  2 (1) B2                                    R^2 =  4.06535e-11

  Total energy:                                           -153.8798784763 a.u.
  Excitation energy:                                               2.122324 eV

  Osc. strength:                                                      0.000000
  Trans. dip. moment [a.u.]:           [   0.000000,    0.000224,   -0.000000]
  <i|r^2|0> [a.u.]:                    [   0.000000,    0.000000,    0.000000]

  Dip. moment [a.u.]:                  [  -0.000000,   -0.000000,   -7.212316]
  Total dipole [Debye]:                                              18.331883
  <r^2> [a.u.]:                        [  93.387633,   25.301614, 2166.609241]
  Total <r^2> [a.u.]:                                              2285.298488

  V1^2 = 0.8515, V2^2 = 0.1485

  Important amplitudes:
      occ i      occ j       vir a       vir b          v   
    ---------------------------------------------------------
     2 (B2) A               9 (A1) A                  0.6009
     2 (B2) A               8 (A1) A                  0.2380
    ---------------------------------------------------------

  Density matrix analysis:
  ------------------------
  NOs
    Occupation of frontier NOs:
       0.9565   0.9947
    Number of electrons: 26.000000
    Number of unpaired electrons: n_u =  2.76295, n_u,nl =  2.12362
    NO participation ratio (PR_NO):  3.938850
  
  
  Mulliken Population Analysis
  Atom      Charge (e)              h+              e-           Del q
  --------------------------------------------------------------------
   1 C       -0.760344        0.020300       -0.580824       -0.560524
   2 C       -0.760344        0.020300       -0.580824       -0.560524
   3 H        0.139180        0.000286        0.027772        0.028058
   4 H        0.139180        0.000286        0.027772        0.028058
   5 H        0.121165        0.001559        0.030909        0.032468
   6 H        0.121165        0.001559        0.030909        0.032468
   7 O       -0.141234        1.417994       -0.534273        0.883721
   8 H        0.141233        0.141501       -0.025225        0.116276
  --------------------------------------------------------------------
  Sum:       -1.000000        1.603785       -1.603785        0.000000
  
  Multipole moment analysis of the density matrix
    Molecular charge:                      -1.000000
    Number of electrons:                   26.000000
      Center of electronic charge [Ang]: [  0.000000,   0.000000,   0.146792]
    Total nuclear charge:                  25.000000
      Center of nuclear charge [Ang]:    [ -0.000000,  -0.000000,  -0.000000]
    Dipole moment [D]:                     18.331877
      Cartesian components [D]:          [ -0.000000,  -0.000000, -18.331877]
    RMS size of the density [Ang]:         4.959019
      Cartesian components [Ang]:        [  1.002903,   0.522022,   4.828410]
  
  Exciton analysis of the difference density matrix
    <r_h> [Ang]:                  [ -0.000000,  -0.000000,  -6.165411]
    <r_e> [Ang]:                  [  0.000000,   0.000000,   0.017497]
    |<r_e - r_h>| [Ang]:            6.182908
    Hole size [Ang]:                2.187484
      Cartesian components [Ang]: [  0.819133,   0.903252,   1.816106]
    Electron size [Ang]:            5.690557
      Cartesian components [Ang]: [  2.676285,   1.304862,   4.849461]

  Transition density matrix analysis:
  -----------------------------------
  
  CT numbers (Mulliken)
    omega =     0.8366
    <Phe> =    -0.0000
  
  Exciton analysis of the transition density matrix
    Trans. dipole moment [D]:             0.000285
      Cartesian components [D]:         [  0.000000,   0.000285,  -0.000000]
    <r_h> [Ang]:                        [ -0.000000,  -0.000000,  -6.398161]
    <r_e> [Ang]:                        [  0.000000,   0.000000,   3.448212]
    |<r_e - r_h>| [Ang]:                  9.846373
    Hole size [Ang]:                      1.091795
      Cartesian components [Ang]:       [  0.486150,   0.842004,   0.496693]
    Electron size [Ang]:                  3.939919
      Cartesian components [Ang]:       [  3.327104,   1.536230,   1.446838]
    RMS electron-hole separation [Ang]:  10.661509
      Cartesian components [Ang]:       [  3.362405,   1.751719,   9.964612]
    Covariance(r_h, r_e) [Ang^2]:        -0.000862
    Correlation coefficient:             -0.000200
    Center-of-mass size [Ang]:            2.044092
      Cartesian components [Ang]:       [  1.681231,   0.875989,   0.764473]

  Decomposition into state-averaged NTOs
    H- 0 -> L+ 5:  0.4633 ( 42.9%)
    H- 0 -> L+ 6:  0.3976 ( 31.6%)
    H- 0 -> L+ 2: -0.1332 (  3.5%)
    H- 0 -> L+ 8: -0.1243 (  3.1%)
    H- 0 -> L+ 7: -0.1114 (  2.5%)
                   omega =  83.7%
  ----------------------------------------------------------------------------


  Excited state 3 (singlet, B2)                                    [converged]
  ----------------------------------------------------------------------------
  Term symbol:  3 (1) B2                                    R^2 =  7.34084e-11

  Total energy:                                           -153.8766620490 a.u.
  Excitation energy:                                               2.209847 eV

  Osc. strength:                                                      0.000000
  Trans. dip. moment [a.u.]:           [  -0.000000,   -0.000682,    0.000000]
  <i|r^2|0> [a.u.]:                    [  -0.000000,   -0.000000,    0.000000]

  Dip. moment [a.u.]:                  [  -0.000000,   -0.000000,   -7.552891]
  Total dipole [Debye]:                                              19.197538
  <r^2> [a.u.]:                        [  71.130560,   35.242985, 2169.841793]
  Total <r^2> [a.u.]:                                              2276.215338

  V1^2 = 0.8469, V2^2 = 0.1531

  Important amplitudes:
      occ i      occ j       vir a       vir b          v   
    ---------------------------------------------------------
     4 (B1) A               1 (A2) A                  0.6353
     4 (B1) A               2 (A2) A                 -0.1379
    ---------------------------------------------------------

  Density matrix analysis:
  ------------------------
  NOs
    Occupation of frontier NOs:
       0.9566   0.9964
    Number of electrons: 26.000000
    Number of unpaired electrons: n_u =  2.75298, n_u,nl =  2.11745
    NO participation ratio (PR_NO):  3.906716
  
  
  Mulliken Population Analysis
  Atom      Charge (e)              h+              e-           Del q
  --------------------------------------------------------------------
   1 C       -0.654833        0.065050       -0.520064       -0.455014
   2 C       -0.654833        0.065050       -0.520064       -0.455014
   3 H        0.083660        0.002170       -0.029633       -0.027462
   4 H        0.083660        0.002170       -0.029633       -0.027462
   5 H        0.071173        0.002665       -0.020188       -0.017523
   6 H        0.071173        0.002665       -0.020188       -0.017523
   7 O       -0.140109        1.411415       -0.526568        0.884846
   8 H        0.140110        0.140029       -0.024876        0.115153
  --------------------------------------------------------------------
  Sum:       -1.000000        1.691214       -1.691214        0.000000
  
  Multipole moment analysis of the density matrix
    Molecular charge:                      -1.000000
    Number of electrons:                   26.000000
      Center of electronic charge [Ang]: [  0.000000,   0.000000,   0.153724]
    Total nuclear charge:                  25.000000
      Center of nuclear charge [Ang]:    [ -0.000000,  -0.000000,  -0.000000]
    Dipole moment [D]:                     19.197532
      Cartesian components [D]:          [ -0.000000,  -0.000000, -19.197532]
    RMS size of the density [Ang]:         4.948935
      Cartesian components [Ang]:        [  0.875271,   0.616099,   4.831798]
  
  Exciton analysis of the difference density matrix
    <r_h> [Ang]:                  [  0.000000,  -0.000000,  -5.611186]
    <r_e> [Ang]:                  [  0.000000,   0.000000,   0.358654]
    |<r_e - r_h>| [Ang]:            5.969840
    Hole size [Ang]:                3.120175
      Cartesian components [Ang]: [  0.916374,   0.799938,   2.873300]
    Electron size [Ang]:            5.450877
      Cartesian components [Ang]: [  1.819446,   1.768313,   4.824391]

  Transition density matrix analysis:
  -----------------------------------
  
  CT numbers (Mulliken)
    omega =     0.8271
    <Phe> =     0.0000
  
  Exciton analysis of the transition density matrix
    Trans. dipole moment [D]:             0.000867
      Cartesian components [D]:         [ -0.000000,  -0.000867,   0.000000]
    <r_h> [Ang]:                        [ -0.000000,  -0.000000,  -6.398265]
    <r_e> [Ang]:                        [  0.000000,   0.000000,   3.639462]
    |<r_e - r_h>| [Ang]:                 10.037728
    Hole size [Ang]:                      1.091221
      Cartesian components [Ang]:       [  0.841965,   0.486109,   0.495535]
    Electron size [Ang]:                  3.384995
      Cartesian components [Ang]:       [  2.249783,   2.188786,   1.267236]
    RMS electron-hole separation [Ang]:  10.649128
      Cartesian components [Ang]:       [  2.401972,   2.242104,  10.129532]
    Covariance(r_h, r_e) [Ang^2]:         0.000504
    Correlation coefficient:              0.000136
    Center-of-mass size [Ang]:            1.778339
      Cartesian components [Ang]:       [  1.201185,   1.121064,   0.680338]

  Decomposition into state-averaged NTOs
    H- 1 -> L+ 4:  0.5165 ( 53.4%)
    H- 1 -> L+ 9: -0.3830 ( 29.3%)
                   omega =  82.7%
  ----------------------------------------------------------------------------


  Excited state 4 (singlet, B2)                                    [converged]
  ----------------------------------------------------------------------------
  Term symbol:  4 (1) B2                                    R^2 =  1.42252e-10

  Total energy:                                           -153.8381283894 a.u.
  Excitation energy:                                               3.258401 eV

  Osc. strength:                                                      0.000000
  Trans. dip. moment [a.u.]:           [  -0.000000,    0.002337,    0.000000]
  <i|r^2|0> [a.u.]:                    [  -0.000000,    0.000000,    0.000000]

  Dip. moment [a.u.]:                  [  -0.000000,    0.000000,   -7.473623]
  Total dipole [Debye]:                                              18.996058
  <r^2> [a.u.]:                        [  69.810031,   29.650844, 2173.725020]
  Total <r^2> [a.u.]:                                              2273.185896

  V1^2 = 0.8509, V2^2 = 0.1491

  Important amplitudes:
      occ i      occ j       vir a       vir b          v   
    ---------------------------------------------------------
     2 (B2) A              10 (A1) A                  0.6426
     2 (B2) A               9 (A1) A                 -0.1022
    ---------------------------------------------------------

  Density matrix analysis:
  ------------------------
  NOs
    Occupation of frontier NOs:
       0.9566   0.9940
    Number of electrons: 26.000000
    Number of unpaired electrons: n_u =  2.76420, n_u,nl =  2.12336
    NO participation ratio (PR_NO):  3.944805
  
  
  Mulliken Population Analysis
  Atom      Charge (e)              h+              e-           Del q
  --------------------------------------------------------------------
   1 C       -0.747790        0.038178       -0.586149       -0.547971
   2 C       -0.747790        0.038178       -0.586149       -0.547971
   3 H        0.129252        0.000163        0.017967        0.018130
   4 H        0.129252        0.000163        0.017967        0.018130
   5 H        0.118566        0.001090        0.028779        0.029869
   6 H        0.118566        0.001090        0.028779        0.029869
   7 O       -0.140588        1.415224       -0.530856        0.884368
   8 H        0.140533        0.140533       -0.024957        0.115575
  --------------------------------------------------------------------
  Sum:       -1.000000        1.634618       -1.634618        0.000000
  
  Multipole moment analysis of the density matrix
    Molecular charge:                      -1.000000
    Number of electrons:                   26.000000
      Center of electronic charge [Ang]: [  0.000000,  -0.000000,   0.152110]
    Total nuclear charge:                  25.000000
      Center of nuclear charge [Ang]:    [ -0.000000,  -0.000000,  -0.000000]
    Dipole moment [D]:                     18.996052
      Cartesian components [D]:          [ -0.000000,   0.000000, -18.996052]
    RMS size of the density [Ang]:         4.945687
      Cartesian components [Ang]:        [  0.867108,   0.565110,   4.836175]
  
  Exciton analysis of the difference density matrix
    <r_h> [Ang]:                  [ -0.000000,  -0.000000,  -5.956214]
    <r_e> [Ang]:                  [  0.000000,  -0.000000,   0.194661]
    |<r_e - r_h>| [Ang]:            6.150875
    Hole size [Ang]:                2.596782
      Cartesian components [Ang]: [  0.819757,   0.904142,   2.292117]
    Electron size [Ang]:            5.467052
      Cartesian components [Ang]: [  1.732618,   1.559685,   4.945106]

  Transition density matrix analysis:
  -----------------------------------
  
  CT numbers (Mulliken)
    omega =     0.8358
    <Phe> =    -0.0000
  
  Exciton analysis of the transition density matrix
    Trans. dipole moment [D]:             0.002970
      Cartesian components [D]:         [ -0.000000,   0.002970,   0.000000]
    <r_h> [Ang]:                        [ -0.000000,  -0.000000,  -6.398115]
    <r_e> [Ang]:                        [  0.000000,  -0.000000,   3.591851]
    |<r_e - r_h>| [Ang]:                  9.989966
    Hole size [Ang]:                      1.091585
      Cartesian components [Ang]:       [  0.486008,   0.841765,   0.496775]
    Electron size [Ang]:                  3.313858
      Cartesian components [Ang]:       [  2.084249,   1.887104,   1.753967]
    RMS electron-hole separation [Ang]:  10.581802
      Cartesian components [Ang]:       [  2.140148,   2.066097,  10.155075]
    Covariance(r_h, r_e) [Ang^2]:        -0.000947
    Correlation coefficient:             -0.000262
    Center-of-mass size [Ang]:            1.744371
      Cartesian components [Ang]:       [  1.070089,   1.033284,   0.911078]

  Decomposition into state-averaged NTOs
    H- 0 -> L+ 5: -0.4488 ( 40.3%)
    H- 0 -> L+ 6:  0.3712 ( 27.6%)
    H- 0 -> L+ 8: -0.1991 (  7.9%)
    H- 0 -> L+ 2: -0.1527 (  4.7%)
    H- 0 -> L+ 7: -0.1252 (  3.1%)
                   omega =  83.6%
  ----------------------------------------------------------------------------


  Excited state 5 (singlet, B2)                                    [converged]
  ----------------------------------------------------------------------------
  Term symbol:  5 (1) B2                                    R^2 =  1.53124e-10

  Total energy:                                           -153.8139442999 a.u.
  Excitation energy:                                               3.916484 eV

  Osc. strength:                                                      0.000000
  Trans. dip. moment [a.u.]:           [  -0.000000,   -0.000902,   -0.000000]
  <i|r^2|0> [a.u.]:                    [  -0.000000,   -0.000000,   -0.000000]

  Dip. moment [a.u.]:                  [  -0.000000,   -0.000000,   -7.551831]
  Total dipole [Debye]:                                              19.194844
  <r^2> [a.u.]:                        [  70.727741,   34.708194, 2170.060147]
  Total <r^2> [a.u.]:                                              2275.496081

  V1^2 = 0.8405, V2^2 = 0.1595

  Important amplitudes:
      occ i      occ j       vir a       vir b          v   
    ---------------------------------------------------------
     4 (B1) A               2 (A2) A                  0.6280
     4 (B1) A               1 (A2) A                  0.1470
    ---------------------------------------------------------

  Density matrix analysis:
  ------------------------
  NOs
    Occupation of frontier NOs:
       0.9568   0.9942
    Number of electrons: 26.000000
    Number of unpaired electrons: n_u =  2.75469, n_u,nl =  2.11607
    NO participation ratio (PR_NO):  3.920372
  
  
  Mulliken Population Analysis
  Atom      Charge (e)              h+              e-           Del q
  --------------------------------------------------------------------
   1 C       -0.615153        0.104496       -0.519829       -0.415333
   2 C       -0.615153        0.104496       -0.519829       -0.415333
   3 H        0.064208        0.002484       -0.049397       -0.046913
   4 H        0.064208        0.002484       -0.049397       -0.046913
   5 H        0.050944        0.003077       -0.040830       -0.037753
   6 H        0.050944        0.003077       -0.040830       -0.037753
   7 O       -0.138322        1.400717       -0.514084        0.886633
   8 H        0.138323        0.137669       -0.024304        0.113366
  --------------------------------------------------------------------
  Sum:       -1.000000        1.758499       -1.758499       -0.000000
  
  Multipole moment analysis of the density matrix
    Molecular charge:                      -1.000000
    Number of electrons:                   26.000000
      Center of electronic charge [Ang]: [  0.000000,   0.000000,   0.153702]
    Total nuclear charge:                  25.000000
      Center of nuclear charge [Ang]:    [ -0.000000,  -0.000000,  -0.000000]
    Dipole moment [D]:                     19.194838
      Cartesian components [D]:          [ -0.000000,  -0.000000, -19.194838]
    RMS size of the density [Ang]:         4.948153
      Cartesian components [Ang]:        [  0.872789,   0.611407,   4.832042]
  
  Exciton analysis of the difference density matrix
    <r_h> [Ang]:                  [  0.000000,  -0.000000,  -5.181747]
    <r_e> [Ang]:                  [  0.000000,   0.000000,   0.559351]
    |<r_e - r_h>| [Ang]:            5.741098
    Hole size [Ang]:                3.617467
      Cartesian components [Ang]: [  0.909090,   0.772113,   3.415181]
    Electron size [Ang]:            5.344567
      Cartesian components [Ang]: [  1.771555,   1.703780,   4.745853]

  Transition density matrix analysis:
  -----------------------------------
  
  CT numbers (Mulliken)
    omega =     0.8176
    <Phe> =     0.0000
  
  Exciton analysis of the transition density matrix
    Trans. dipole moment [D]:             0.001146
      Cartesian components [D]:         [ -0.000000,  -0.001146,  -0.000000]
    <r_h> [Ang]:                        [ -0.000000,  -0.000000,  -6.398233]
    <r_e> [Ang]:                        [  0.000000,  -0.000000,   3.639444]
    |<r_e - r_h>| [Ang]:                 10.037676
    Hole size [Ang]:                      1.090605
      Cartesian components [Ang]:       [  0.841489,   0.485834,   0.495258]
    Electron size [Ang]:                  3.330772
      Cartesian components [Ang]:       [  2.210852,   2.154846,   1.250126]
    RMS electron-hole separation [Ang]:  10.631908
      Cartesian components [Ang]:       [  2.365391,   2.208924,  10.127342]
    Covariance(r_h, r_e) [Ang^2]:         0.000470
    Correlation coefficient:              0.000129
    Center-of-mass size [Ang]:            1.752455
      Cartesian components [Ang]:       [  1.182885,   1.104473,   0.672326]

  Decomposition into state-averaged NTOs
    H- 1 -> L+ 9:  0.5057 ( 51.1%)
    H- 1 -> L+ 4:  0.3913 ( 30.6%)
                   omega =  81.8%
  ----------------------------------------------------------------------------


  Excited state 6 (singlet, B2)                                    [converged]
  ----------------------------------------------------------------------------
  Term symbol:  6 (1) B2                                    R^2 =  2.62410e-10

  Total energy:                                           -153.7828232612 a.u.
  Excitation energy:                                               4.763330 eV

  Osc. strength:                                                      0.085843
  Trans. dip. moment [a.u.]:           [  -0.000000,    0.857665,    0.000000]
  <i|r^2|0> [a.u.]:                    [  -0.000000,   -0.000000,   -0.000000]

  Dip. moment [a.u.]:                  [  -0.000000,   -0.000000,   12.799529]
  Total dipole [Debye]:                                              32.533163
  <r^2> [a.u.]:                        [  59.918048,   22.574715, 2305.775328]
  Total <r^2> [a.u.]:                                              2388.268091

  V1^2 = 0.9093, V2^2 = 0.0907

  Important amplitudes:
      occ i      occ j       vir a       vir b          v   
    ---------------------------------------------------------
     2 (B2) A              14 (A1) A                  0.6327
     2 (B2) A              16 (A1) A                 -0.1907
    ---------------------------------------------------------

  Density matrix analysis:
  ------------------------
  NOs
    Occupation of frontier NOs:
       0.9663   1.0000
    Number of electrons: 26.000000
    Number of unpaired electrons: n_u =  2.68946, n_u,nl =  2.09353
    NO participation ratio (PR_NO):  3.692640
  
  
  Mulliken Population Analysis
  Atom      Charge (e)              h+              e-           Del q
  --------------------------------------------------------------------
   1 C       -0.199911        0.000485       -0.000577       -0.000092
   2 C       -0.199911        0.000485       -0.000577       -0.000092
   3 H        0.110447       -0.000041       -0.000633       -0.000675
   4 H        0.110447       -0.000041       -0.000633       -0.000675
   5 H        0.089166        0.000442        0.000028        0.000469
   6 H        0.089166        0.000442        0.000028        0.000469
   7 O       -1.773776        1.232553       -1.981374       -0.748821
   8 H        0.774373        0.164911        0.584504        0.749415
  --------------------------------------------------------------------
  Sum:       -1.000000        1.399234       -1.399234        0.000000
  
  Multipole moment analysis of the density matrix
    Molecular charge:                      -1.000000
    Number of electrons:                   26.000000
      Center of electronic charge [Ang]: [ -0.000000,   0.000000,  -0.260508]
    Total nuclear charge:                  25.000000
      Center of nuclear charge [Ang]:    [ -0.000000,  -0.000000,  -0.000000]
    Dipole moment [D]:                     32.533154
      Cartesian components [D]:          [  0.000000,  -0.000000,  32.533154]
    RMS size of the density [Ang]:         5.065034
      Cartesian components [Ang]:        [  0.803329,   0.493089,   4.976554]
  
  Exciton analysis of the difference density matrix
    <r_h> [Ang]:                  [ -0.000000,  -0.000000,  -6.442617]
    <r_e> [Ang]:                  [ -0.000000,   0.000000,  -6.924136]
    |<r_e - r_h>| [Ang]:            0.481519
    Hole size [Ang]:                1.397222
      Cartesian components [Ang]: [  0.737870,   0.890470,   0.784116]
    Electron size [Ang]:            2.045982
      Cartesian components [Ang]: [  1.134323,   1.124118,   1.278950]

  Transition density matrix analysis:
  -----------------------------------
  
  CT numbers (Mulliken)
    omega =     0.8895
    <Phe> =    -0.0187
  
  Exciton analysis of the transition density matrix
    Trans. dipole moment [D]:             1.089984
      Cartesian components [D]:         [ -0.000000,   1.089984,   0.000000]
    <r_h> [Ang]:                        [ -0.000000,  -0.000000,  -6.398836]
    <r_e> [Ang]:                        [ -0.000000,   0.000000,  -7.186432]
    |<r_e - r_h>| [Ang]:                  0.787596
    Hole size [Ang]:                      1.074503
      Cartesian components [Ang]:       [  0.478642,   0.828860,   0.488312]
    Electron size [Ang]:                  2.207403
      Cartesian components [Ang]:       [  1.251167,   1.249249,   1.321584]
    RMS electron-hole separation [Ang]:   2.576185
      Cartesian components [Ang]:       [  1.339445,   1.495751,   1.614108]
    Covariance(r_h, r_e) [Ang^2]:         0.005381
    Correlation coefficient:              0.002269
    Center-of-mass size [Ang]:            1.228611
      Cartesian components [Ang]:       [  0.669874,   0.751331,   0.704455]

  Decomposition into state-averaged NTOs
    H- 0 -> L+ 1:  0.5702 ( 65.0%)
    H- 0 -> L+ 0:  0.3450 ( 23.8%)
                   omega =  89.0%
  ----------------------------------------------------------------------------


  Excited state 7 (singlet, B2)                                    [converged]
  ----------------------------------------------------------------------------
  Term symbol:  7 (1) B2                                    R^2 =  9.20683e-06

  Total energy:                                           -153.7234367425 a.u.
  Excitation energy:                                               6.379320 eV

  Osc. strength:                                                      0.000000
  Trans. dip. moment [a.u.]:           [   0.000000,   -0.001741,    0.000000]
  <i|r^2|0> [a.u.]:                    [  -0.000000,    0.000000,    0.000000]

  Dip. moment [a.u.]:                  [   0.000000,    0.000000,   -7.561398]
  Total dipole [Debye]:                                              19.219161
  <r^2> [a.u.]:                        [  65.590122,   50.213563, 2172.993831]
  Total <r^2> [a.u.]:                                              2288.797516

  V1^2 = 0.8573, V2^2 = 0.1427

  Important amplitudes:
      occ i      occ j       vir a       vir b          v   
    ---------------------------------------------------------
     7 (A1) A               3 (B2) A                  0.6529
     7 (A1) A   2 (B2) B    3 (B2) A    5 (B2) B     -0.0558
    ---------------------------------------------------------

  Density matrix analysis:
  ------------------------
  NOs
    Occupation of frontier NOs:
       0.9740   0.9972
    Number of electrons: 26.000000
    Number of unpaired electrons: n_u =  2.80561, n_u,nl =  2.14028
    NO participation ratio (PR_NO):  3.974033
  
  
  Mulliken Population Analysis
  Atom      Charge (e)              h+              e-           Del q
  --------------------------------------------------------------------
   1 C       -0.672360        0.022554       -0.495095       -0.472541
   2 C       -0.672360        0.022554       -0.495095       -0.472541
   3 H        0.091975       -0.001075       -0.018072       -0.019147
   4 H        0.091975       -0.001075       -0.018072       -0.019147
   5 H        0.080387       -0.001108       -0.007201       -0.008310
   6 H        0.080387       -0.001108       -0.007201       -0.008310
   7 O       -0.326662        1.243029       -0.544736        0.698293
   8 H        0.326660        0.319933       -0.018231        0.301703
  --------------------------------------------------------------------
  Sum:       -1.000000        1.603703       -1.603703       -0.000000
  
  Multipole moment analysis of the density matrix
    Molecular charge:                      -1.000000
    Number of electrons:                   26.000000
      Center of electronic charge [Ang]: [ -0.000000,  -0.000000,   0.153897]
    Total nuclear charge:                  25.000000
      Center of nuclear charge [Ang]:    [ -0.000000,  -0.000000,  -0.000000]
    Dipole moment [D]:                     19.219156
      Cartesian components [D]:          [  0.000000,   0.000000, -19.219156]
    RMS size of the density [Ang]:         4.962602
      Cartesian components [Ang]:        [  0.840492,   0.735402,   4.835305]
  
  Exciton analysis of the difference density matrix
    <r_h> [Ang]:                  [  0.000000,  -0.000000,  -6.194097]
    <r_e> [Ang]:                  [ -0.000000,  -0.000000,   0.104314]
    |<r_e - r_h>| [Ang]:            6.298410
    Hole size [Ang]:                2.119373
      Cartesian components [Ang]: [  0.792826,   0.783364,   1.802639]
    Electron size [Ang]:            5.748348
      Cartesian components [Ang]: [  1.505523,   2.418775,   4.992638]

  Transition density matrix analysis:
  -----------------------------------
  
  CT numbers (Mulliken)
    omega =     0.8404
    <Phe> =     0.0001
  
  Exciton analysis of the transition density matrix
    Trans. dipole moment [D]:             0.002212
      Cartesian components [D]:         [  0.000000,  -0.002212,   0.000000]
    <r_h> [Ang]:                        [ -0.000000,   0.000000,  -6.448854]
    <r_e> [Ang]:                        [ -0.000000,  -0.000000,   3.639080]
    |<r_e - r_h>| [Ang]:                 10.087934
    Hole size [Ang]:                      1.010487
      Cartesian components [Ang]:       [  0.421132,   0.421330,   0.816219]
    Electron size [Ang]:                  3.893229
      Cartesian components [Ang]:       [  1.777910,   2.999001,   1.732702]
    RMS electron-hole separation [Ang]:  10.860224
      Cartesian components [Ang]:       [  1.827204,   3.027168,  10.268497]
    Covariance(r_h, r_e) [Ang^2]:         0.000136
    Correlation coefficient:              0.000035
    Center-of-mass size [Ang]:            2.011131
      Cartesian components [Ang]:       [  0.913504,   1.514869,   0.956729]

  Decomposition into state-averaged NTOs
    H- 2 -> L+ 3:  0.6481 ( 84.0%)
                   omega =  84.0%
  ----------------------------------------------------------------------------


  Excited state 8 (singlet, B2)                                    [converged]
  ----------------------------------------------------------------------------
  Term symbol:  8 (1) B2                                    R^2 =  2.80870e-07

  Total energy:                                           -153.7214208648 a.u.
  Excitation energy:                                               6.434174 eV

  Osc. strength:                                                      0.000532
  Trans. dip. moment [a.u.]:           [   0.000000,   -0.058074,   -0.000000]
  <i|r^2|0> [a.u.]:                    [   0.000000,    0.000000,    0.000000]

  Dip. moment [a.u.]:                  [  -0.000000,   -0.000000,   -7.501626]
  Total dipole [Debye]:                                              19.067234
  <r^2> [a.u.]:                        [  60.305380,   23.297582, 2173.122118]
  Total <r^2> [a.u.]:                                              2256.725081

  V1^2 = 0.8439, V2^2 = 0.1561

  Important amplitudes:
      occ i      occ j       vir a       vir b          v   
    ---------------------------------------------------------
     2 (B2) A              11 (A1) A                 -0.6390
     2 (B2) A              12 (A1) A                  0.0846
    ---------------------------------------------------------

  Density matrix analysis:
  ------------------------
  NOs
    Occupation of frontier NOs:
       0.9575   0.9863
    Number of electrons: 26.000000
    Number of unpaired electrons: n_u =  2.77510, n_u,nl =  2.12735
    NO participation ratio (PR_NO):  4.001939
  
  
  Mulliken Population Analysis
  Atom      Charge (e)              h+              e-           Del q
  --------------------------------------------------------------------
   1 C       -0.240197        0.069534       -0.109912       -0.040378
   2 C       -0.240197        0.069534       -0.109912       -0.040378
   3 H       -0.115744        0.008367       -0.235234       -0.226866
   4 H       -0.115744        0.008367       -0.235234       -0.226866
   5 H       -0.140779        0.009496       -0.238971       -0.229475
   6 H       -0.140779        0.009496       -0.238971       -0.229475
   7 O       -0.142690        1.400277       -0.518011        0.882266
   8 H        0.136130        0.137227       -0.026055        0.111173
  --------------------------------------------------------------------
  Sum:       -1.000000        1.712300       -1.712300        0.000000
  
  Multipole moment analysis of the density matrix
    Molecular charge:                      -1.000000
    Number of electrons:                   26.000000
      Center of electronic charge [Ang]: [ -0.000000,   0.000000,   0.152680]
    Total nuclear charge:                  25.000000
      Center of nuclear charge [Ang]:    [ -0.000000,  -0.000000,  -0.000000]
    Dipole moment [D]:                     19.067229
      Cartesian components [D]:          [  0.000000,  -0.000000, -19.067229]
    RMS size of the density [Ang]:         4.927713
      Cartesian components [Ang]:        [  0.805921,   0.500922,   4.835486]
  
  Exciton analysis of the difference density matrix
    <r_h> [Ang]:                  [  0.000000,  -0.000000,  -5.412587]
    <r_e> [Ang]:                  [ -0.000000,   0.000000,   0.467896]
    |<r_e - r_h>| [Ang]:            5.880483
    Hole size [Ang]:                3.374996
      Cartesian components [Ang]: [  0.833873,   0.887265,   3.147700]
    Electron size [Ang]:            5.102967
      Cartesian components [Ang]: [  1.168426,   1.135826,   4.835800]

  Transition density matrix analysis:
  -----------------------------------
  
  CT numbers (Mulliken)
    omega =     0.8267
    <Phe> =    -0.0001
  
  Exciton analysis of the transition density matrix
    Trans. dipole moment [D]:             0.073804
      Cartesian components [D]:         [  0.000000,  -0.073804,  -0.000000]
    <r_h> [Ang]:                        [ -0.000000,  -0.000000,  -6.397864]
    <r_e> [Ang]:                        [ -0.000000,   0.000000,   3.608787]
    |<r_e - r_h>| [Ang]:                 10.006651
    Hole size [Ang]:                      1.091409
      Cartesian components [Ang]:       [  0.485525,   0.840788,   0.498513]
    Electron size [Ang]:                  2.448334
      Cartesian components [Ang]:       [  1.250831,   1.308375,   1.648610]
    RMS electron-hole separation [Ang]:  10.360191
      Cartesian components [Ang]:       [  1.341740,   1.557730,  10.154150]
    Covariance(r_h, r_e) [Ang^2]:        -0.007486
    Correlation coefficient:             -0.002801
    Center-of-mass size [Ang]:            1.338893
      Cartesian components [Ang]:       [  0.670887,   0.776372,   0.860112]

  Decomposition into state-averaged NTOs
    H- 0 -> L+ 8:  0.4551 ( 41.4%)
    H- 0 -> L+ 7:  0.3443 ( 23.7%)
    H- 0 -> L+ 6:  0.2801 ( 15.7%)
                   omega =  82.7%
  ----------------------------------------------------------------------------


  Excited state 9 (singlet, B2)                                    [converged]
  ----------------------------------------------------------------------------
  Term symbol:  9 (1) B2                                    R^2 =  3.92142e-09

  Total energy:                                           -153.7182590797 a.u.
  Excitation energy:                                               6.520211 eV

  Osc. strength:                                                      0.074988
  Trans. dip. moment [a.u.]:           [   0.000000,   -0.685152,    0.000000]
  <i|r^2|0> [a.u.]:                    [   0.000000,    0.000000,    0.000000]

  Dip. moment [a.u.]:                  [   0.000000,   -0.000000,    9.017055]
  Total dipole [Debye]:                                              22.919073
  <r^2> [a.u.]:                        [  58.350082,   21.029806, 2222.319421]
  Total <r^2> [a.u.]:                                              2301.699309

  V1^2 = 0.9146, V2^2 = 0.0854

  Important amplitudes:
      occ i      occ j       vir a       vir b          v   
    ---------------------------------------------------------
     2 (B2) A              16 (A1) A                  0.6409
     2 (B2) A              14 (A1) A                  0.1841
    ---------------------------------------------------------

  Density matrix analysis:
  ------------------------
  NOs
    Occupation of frontier NOs:
       0.9684   1.0006
    Number of electrons: 26.000000
    Number of unpaired electrons: n_u =  2.68579, n_u,nl =  2.09313
    NO participation ratio (PR_NO):  3.677553
  
  
  Mulliken Population Analysis
  Atom      Charge (e)              h+              e-           Del q
  --------------------------------------------------------------------
   1 C       -0.204160        0.001329       -0.005669       -0.004341
   2 C       -0.204160        0.001329       -0.005669       -0.004341
   3 H        0.113232        0.000833        0.001277        0.002110
   4 H        0.113232        0.000833        0.001277        0.002110
   5 H        0.083351        0.000380       -0.005725       -0.005345
   6 H        0.083351        0.000380       -0.005725       -0.005345
   7 O       -0.840067        1.275160       -1.090272        0.184888
   8 H       -0.144780        0.102844       -0.272581       -0.169737
  --------------------------------------------------------------------
  Sum:       -1.000000        1.383087       -1.383087        0.000000
  
  Multipole moment analysis of the density matrix
    Molecular charge:                      -1.000000
    Number of electrons:                   26.000000
      Center of electronic charge [Ang]: [ -0.000000,   0.000000,  -0.183524]
    Total nuclear charge:                  25.000000
      Center of nuclear charge [Ang]:    [ -0.000000,  -0.000000,  -0.000000]
    Dipole moment [D]:                     22.919066
      Cartesian components [D]:          [  0.000000,  -0.000000,  22.919066]
    RMS size of the density [Ang]:         4.975578
      Cartesian components [Ang]:        [  0.792748,   0.475918,   4.888909]
  
  Exciton analysis of the difference density matrix
    <r_h> [Ang]:                  [ -0.000000,  -0.000000,  -6.394985]
    <r_e> [Ang]:                  [ -0.000000,   0.000000,  -5.434929]
    |<r_e - r_h>| [Ang]:            0.960055
    Hole size [Ang]:                1.474635
      Cartesian components [Ang]: [  0.736202,   0.884985,   0.921606]
    Electron size [Ang]:            2.185418
      Cartesian components [Ang]: [  0.987642,   0.972937,   1.689381]

  Transition density matrix analysis:
  -----------------------------------
  
  CT numbers (Mulliken)
    omega =     0.8955
    <Phe> =    -0.0175
  
  Exciton analysis of the transition density matrix
    Trans. dipole moment [D]:             0.870741
      Cartesian components [D]:         [  0.000000,  -0.870741,   0.000000]
    <r_h> [Ang]:                        [ -0.000000,  -0.000000,  -6.396120]
    <r_e> [Ang]:                        [ -0.000000,   0.000000,  -5.098982]
    |<r_e - r_h>| [Ang]:                  1.297138
    Hole size [Ang]:                      1.073669
      Cartesian components [Ang]:       [  0.478240,   0.828045,   0.488256]
    Electron size [Ang]:                  2.227987
      Cartesian components [Ang]:       [  1.068802,   1.068161,   1.637260]
    RMS electron-hole separation [Ang]:   2.791348
      Cartesian components [Ang]:       [  1.170614,   1.349456,   2.144821]
    Covariance(r_h, r_e) [Ang^2]:         0.003818
    Correlation coefficient:              0.001596
    Center-of-mass size [Ang]:            1.237369
      Cartesian components [Ang]:       [  0.585613,   0.676797,   0.854450]

  Decomposition into state-averaged NTOs
    H- 0 -> L+ 0: -0.5715 ( 65.3%)
    H- 0 -> L+ 1:  0.3387 ( 22.9%)
                   omega =  89.5%
  ----------------------------------------------------------------------------


  Excited state 10 (singlet, B2)                                    [converged]
  ----------------------------------------------------------------------------
  Term symbol:  10 (1) B2                                   R^2 =  5.15349e-07

  Total energy:                                           -153.6879411400 a.u.
  Excitation energy:                                               7.345204 eV

  Osc. strength:                                                      0.000569
  Trans. dip. moment [a.u.]:           [   0.000000,   -0.056246,   -0.000000]
  <i|r^2|0> [a.u.]:                    [   0.000000,   -0.000000,   -0.000000]

  Dip. moment [a.u.]:                  [   0.000000,   -0.000000,   -7.316304]
  Total dipole [Debye]:                                              18.596194
  <r^2> [a.u.]:                        [  62.598067,   22.822861, 2181.492468]
  Total <r^2> [a.u.]:                                              2266.913396

  V1^2 = 0.8451, V2^2 = 0.1549

  Important amplitudes:
      occ i      occ j       vir a       vir b          v   
    ---------------------------------------------------------
     2 (B2) A              12 (A1) A                 -0.6210
     2 (B2) A              15 (A1) A                  0.1267
    ---------------------------------------------------------

  Density matrix analysis:
  ------------------------
  NOs
    Occupation of frontier NOs:
       0.9572   0.9870
    Number of electrons: 26.000000
    Number of unpaired electrons: n_u =  2.77301, n_u,nl =  2.12601
    NO participation ratio (PR_NO):  3.994743
  
  
  Mulliken Population Analysis
  Atom      Charge (e)              h+              e-           Del q
  --------------------------------------------------------------------
   1 C       -0.394593        0.063497       -0.258271       -0.194774
   2 C       -0.394593        0.063497       -0.258271       -0.194774
   3 H       -0.053205        0.006610       -0.170937       -0.164327
   4 H       -0.053205        0.006610       -0.170937       -0.164327
   5 H       -0.047790        0.007159       -0.143645       -0.136487
   6 H       -0.047790        0.007159       -0.143645       -0.136487
   7 O       -0.146353        1.400265       -0.521663        0.878602
   8 H        0.137530        0.136825       -0.024252        0.112573
  --------------------------------------------------------------------
  Sum:       -1.000000        1.691621       -1.691621       -0.000000
  
  Multipole moment analysis of the density matrix
    Molecular charge:                      -1.000000
    Number of electrons:                   26.000000
      Center of electronic charge [Ang]: [  0.000000,   0.000000,   0.148909]
    Total nuclear charge:                  25.000000
      Center of nuclear charge [Ang]:    [ -0.000000,  -0.000000,  -0.000000]
    Dipole moment [D]:                     18.596189
      Cartesian components [D]:          [ -0.000000,  -0.000000, -18.596189]
    RMS size of the density [Ang]:         4.938950
      Cartesian components [Ang]:        [  0.821098,   0.495792,   4.844916]
  
  Exciton analysis of the difference density matrix
    <r_h> [Ang]:                  [  0.000000,  -0.000000,  -5.521121]
    <r_e> [Ang]:                  [  0.000000,   0.000000,   0.373275]
    |<r_e - r_h>| [Ang]:            5.894396
    Hole size [Ang]:                3.235217
      Cartesian components [Ang]: [  0.821334,   0.885680,   3.001268]
    Electron size [Ang]:            5.281360
      Cartesian components [Ang]: [  1.316124,   1.102204,   4.994570]

  Transition density matrix analysis:
  -----------------------------------
  
  CT numbers (Mulliken)
    omega =     0.8279
    <Phe> =    -0.0001
  
  Exciton analysis of the transition density matrix
    Trans. dipole moment [D]:             0.071482
      Cartesian components [D]:         [  0.000000,  -0.071482,  -0.000000]
    <r_h> [Ang]:                        [ -0.000000,  -0.000000,  -6.397374]
    <r_e> [Ang]:                        [  0.000000,   0.000000,   3.500296]
    |<r_e - r_h>| [Ang]:                  9.897670
    Hole size [Ang]:                      1.093358
      Cartesian components [Ang]:       [  0.485496,   0.840783,   0.502801]
    Electron size [Ang]:                  3.103636
      Cartesian components [Ang]:       [  1.489008,   1.259510,   2.414342]
    RMS electron-hole separation [Ang]:  10.431098
      Cartesian components [Ang]:       [  1.566133,   1.514335,  10.201069]
    Covariance(r_h, r_e) [Ang^2]:        -0.007970
    Correlation coefficient:             -0.002349
    Center-of-mass size [Ang]:            1.644084
      Cartesian components [Ang]:       [  0.783091,   0.757191,   1.231439]

  Decomposition into state-averaged NTOs
    H- 0 -> L+ 7: -0.4867 ( 47.4%)
    H- 0 -> L+ 8:  0.3393 ( 23.0%)
    H- 0 -> L+ 2:  0.2268 ( 10.3%)
    H- 0 -> L+ 6:  0.0774 (  1.2%)
                   omega =  82.8%
  ----------------------------------------------------------------------------


--------------------------------------------------------------------------------
  Time of ADC calculation:  CPU 236.16 s  wall 63.29 s
================================================================================
 
 --------------------------------------------------------------
             Orbital Energies (a.u.) and Symmetries
 --------------------------------------------------------------
 
 Alpha MOs, Restricted
 -- Occupied --                  
-20.199 -11.183 -11.181  -0.988  -0.904  -0.728  -0.606  -0.513
  1 A1    2 A1    1 B1    3 A1    4 A1    2 B1    5 A1    6 A1                 
 -0.461  -0.323  -0.251  -0.108  -0.108
  3 B1    1 B2    7 A1    2 B2    4 B1                                         
 -- Virtual --                   
  0.113   0.128   0.136   0.137   0.143   0.157   0.184   0.224
  5 B1    8 A1    3 B2    9 A1    1 A2    6 B1   10 A1    2 A2                 
  0.256   0.316   0.349   0.358   0.368   0.376   0.376   0.380
  7 B1   11 A1   12 A1    8 B1   13 A1    9 B1    4 B2   14 A1                 
  0.395   0.423   0.443   0.443   0.454   0.457   0.584   0.608
 15 A1   10 B1   11 B1    5 B2   16 A1    3 A2   17 A1   12 B1                 
  0.663   0.880   0.909   0.972   0.987   1.047   1.090   1.098
 13 B1   18 A1   19 A1   20 A1   14 B1   21 A1   15 B1   22 A1                 
  1.121   1.164   1.168   1.169   1.170   1.269   1.269   1.323
  6 B2    4 A2    7 B2   23 A1   16 B1   17 B1    8 B2    5 A2                 
  1.323   1.323   1.338   1.341   1.469   1.544   1.673   1.698
 24 A1   18 B1    6 A2    9 B2   19 B1   25 A1   26 A1   20 B1                 
  1.729   1.729   1.778   1.924   1.973   1.997   2.008   2.071
 10 B2   21 B1   27 A1    7 A2   28 A1   11 B2   22 B1   12 B2                 
  2.111   2.143   2.233   2.376   2.376   2.380   2.466   2.520
 29 A1   30 A1    8 A2   23 B1   13 B2   24 B1    9 A2   31 A1                 
  2.534   2.631   2.635   2.874   2.882   3.030   3.307   3.393
 32 A1   25 B1   26 B1   33 A1   34 A1   35 A1   27 B1   28 B1                 
  3.930   3.930   3.959   3.959   4.401
 29 B1   14 B2   10 A2   36 A1   37 A1                                         
 
 Beta MOs, Restricted
 -- Occupied --                  
-20.199 -11.183 -11.181  -0.988  -0.904  -0.728  -0.606  -0.513
  1 A1    2 A1    1 B1    3 A1    4 A1    2 B1    5 A1    6 A1                 
 -0.461  -0.323  -0.251  -0.108  -0.108
  3 B1    1 B2    7 A1    2 B2    4 B1                                         
 -- Virtual --                   
  0.113   0.128   0.136   0.137   0.143   0.157   0.184   0.224
  5 B1    8 A1    3 B2    9 A1    1 A2    6 B1   10 A1    2 A2                 
  0.256   0.316   0.349   0.358   0.368   0.376   0.376   0.380
  7 B1   11 A1   12 A1    8 B1   13 A1    9 B1    4 B2   14 A1                 
  0.395   0.423   0.443   0.443   0.454   0.457   0.584   0.608
 15 A1   10 B1   11 B1    5 B2   16 A1    3 A2   17 A1   12 B1                 
  0.663   0.880   0.909   0.972   0.987   1.047   1.090   1.098
 13 B1   18 A1   19 A1   20 A1   14 B1   21 A1   15 B1   22 A1                 
  1.121   1.164   1.168   1.169   1.170   1.269   1.269   1.323
  6 B2    4 A2    7 B2   23 A1   16 B1   17 B1    8 B2    5 A2                 
  1.323   1.323   1.338   1.341   1.469   1.544   1.673   1.698
 24 A1   18 B1    6 A2    9 B2   19 B1   25 A1   26 A1   20 B1                 
  1.729   1.729   1.778   1.924   1.973   1.997   2.008   2.071
 10 B2   21 B1   27 A1    7 A2   28 A1   11 B2   22 B1   12 B2                 
  2.111   2.143   2.233   2.376   2.376   2.380   2.466   2.520
 29 A1   30 A1    8 A2   23 B1   13 B2   24 B1    9 A2   31 A1                 
  2.534   2.631   2.635   2.874   2.882   3.030   3.307   3.393
 32 A1   25 B1   26 B1   33 A1   34 A1   35 A1   27 B1   28 B1                 
  3.930   3.930   3.959   3.959   4.401
 29 B1   14 B2   10 A2   36 A1   37 A1                                         
 --------------------------------------------------------------
 
          Ground-State Mulliken Net Atomic Charges

     Atom                 Charge (a.u.)
  ----------------------------------------
      1 C                    -0.184933
      2 C                    -0.184933
      3 H                     0.103693
      4 H                     0.103693
      5 H                     0.081239
      6 H                     0.081239
      7 O                    -1.037330
      8 H                     0.037331
  ----------------------------------------
  Sum of atomic charges =    -1.000000

 -----------------------------------------------------------------
                    Cartesian Multipole Moments
 -----------------------------------------------------------------
    Charge (ESU x 10^10)
                -4.8032
    Dipole Moment (Debye)
         X      -0.0000      Y       0.0000      Z      29.1972
       Tot      29.1972
    Quadrupole Moments (Debye-Ang)
        XX     -23.0541     XY      -0.0000     YY     -26.2603
        XZ      -0.0000     YZ      -0.0000     ZZ    -199.5150
    Octopole Moments (Debye-Ang^2)
       XXX       0.0000    XXY      -0.0000    XYY      -0.0000
       YYY      -0.0000    XXZ      17.5930    XYZ      -0.0000
       YYZ       6.1275    XZZ      -0.0000    YZZ       0.0000
       ZZZ    1094.8797
    Hexadecapole Moments (Debye-Ang^3)
      XXXX     -84.2475   XXXY       0.0000   XXYY     -20.9670
      XYYY      -0.0000   YYYY     -37.7457   XXXZ       0.0000
      XXYZ      -0.0000   XYYZ      -0.0000   YYYZ      -0.0000
      XXZZ    -608.0313   XYZZ      -0.0000   YYZZ    -644.7996
      XZZZ      -0.0000   YZZZ      -0.0000   ZZZZ   -9457.8819
 -----------------------------------------------------------------
 Total job time:  172.88s(wall), 287.30s(cpu) 
 Thu Mar  3 19:20:53 2022

        *************************************************************
        *                                                           *
        *  Thank you very much for using Q-Chem.  Have a nice day.  *
        *                                                           *
        *************************************************************


