/src/tsommerfeld/qchem/exe/qcprog.exe .input1.866667.9243.qcin.1 /src/jdavis/qchem.scratch/qchem9243/

                  Welcome to Q-Chem
     A Quantum Leap Into The Future Of Chemistry


 Q-Chem 5.4 (devel), Q-Chem, Inc., Pleasanton, CA (2021)

 E. Epifanovsky,  A. T. B. Gilbert,  Xintian Feng,  Joonho Lee,  Yuezhi Mao,  
 N. Mardirossian,  P. Pokhilko,  A. White,  M. Wormit,  M. P. Coons,  
 A. L. Dempwolff,  Zhengting Gan,  D. Hait,  P. R. Horn,  L. D. Jacobson,  
 I. Kaliman,  J. Kussmann,  A. W. Lange,  Ka Un Lao,  D. S. Levine,  Jie Liu,  
 S. C. McKenzie,  A. F. Morrison,  K. Nanda,  F. Plasser,  D. R. Rehn,  
 M. L. Vidal,  Zhi-Qiang You,  Ying Zhu,  B. Alam,  B. Albrecht,  
 A. Aldossary,  E. Alguire,  J. H. Andersen,  D. Barton,  K. Begam,  A. Behn,  
 Y. A. Bernard,  E. J. Berquist,  H. Burton,  A. Carreras,  K. Carter-Fenk,  
 R. Chakraborty,  A. D. Chien,  K. D. Closser,  V. Cofer-Shabica,  
 S. Dasgupta,  Jia Deng,  M. de Wergifosse,  M. Diedenhofen,  Hainam Do,  
 S. Ehlert,  Po-Tung Fang,  S. Fatehi,  Qingguo Feng,  T. Friedhoff,  
 J. Gayvert,  Qinghui Ge,  G. Gidofalvi,  M. Goldey,  J. Gomes,  
 C. Gonzalez-Espinoza,  S. Gulania,  A. Gunina,  M. W. D. Hanson-Heine,  
 P. H. P. Harbach,  A. W. Hauser,  M. F. Herbst,  M. Hernandez Vera,  
 M. Hodecker,  Z. C. Holden,  S. Houck,  Xunkun Huang,  Kerwin Hui,  
 B. C. Huynh,  M. Ivanov,  Hyunjun Ji,  Hanjie Jiang,  B. Kaduk,  S. Kaehler,  
 K. Khistyaev,  Jaehoon Kim,  P. Klunzinger,  Z. Koczor-Benda,  
 Joong Hoon Koh,  D. Kosenkov,  L. Koulias,  T. Kowalczyk,  C. M. Krauter,  
 K. Kue,  A. Kunitsa,  T. Kus,  A. Landau,  K. V. Lawler,  D. Lefrancois,  
 S. Lehtola,  Rain Li,  Yi-Pei Li,  Jiashu Liang,  M. Liebenthal,  
 Hung-Hsuan Lin,  You-Sheng Lin,  Fenglai Liu,  Kuan-Yu Liu,  
 M. Loipersberger,  A. Luenser,  A. Manjanath,  P. Manohar,  E. Mansoor,  
 S. F. Manzer,  Shan-Ping Mao,  A. V. Marenich,  T. Markovich,  S. Mason,  
 S. A. Maurer,  P. F. McLaughlin,  M. F. S. J. Menger,  J.-M. Mewes,  
 S. A. Mewes,  P. Morgante,  J. W. Mullinax,  K. J. Oosterbaan,  G. Paran,  
 Alexander C. Paul,  Suranjan K. Paul,  F. Pavosevic,  Zheng Pei,  S. Prager,  
 E. I. Proynov,  E. Ramos,  B. Rana,  A. E. Rask,  A. Rettig,  R. M. Richard,  
 F. Rob,  E. Rossomme,  T. Scheele,  M. Scheurer,  M. Schneider,  
 N. Sergueev,  S. M. Sharada,  W. Skomorowski,  D. W. Small,  C. J. Stein,  
 Yu-Chuan Su,  E. J. Sundstrom,  Zhen Tao,  J. Thirman,  T. Tsuchimochi,  
 N. M. Tubman,  S. P. Veccham,  O. Vydrov,  J. Wenzel,  J. Witte,  A. Yamada,  
 Kun Yao,  S. Yeganeh,  S. R. Yost,  A. Zech,  Igor Ying Zhang,  Xing Zhang,  
 Yu Zhang,  D. Zuev,  A. Aspuru-Guzik,  A. T. Bell,  N. A. Besley,  
 K. B. Bravaya,  B. R. Brooks,  D. Casanova,  Jeng-Da Chai,  S. Coriani,  
 C. J. Cramer,  A. E. DePrince, III,  R. A. DiStasio Jr.,  A. Dreuw,  
 B. D. Dunietz,  T. R. Furlani,  W. A. Goddard III,  S. Grimme,  
 S. Hammes-Schiffer,  T. Head-Gordon,  W. J. Hehre,  Chao-Ping Hsu,  
 T.-C. Jagau,  Yousung Jung,  A. Klamt,  Jing Kong,  D. S. Lambrecht,  
 WanZhen Liang,  N. J. Mayhall,  C. W. McCurdy,  J. B. Neaton,  
 C. Ochsenfeld,  J. A. Parkhill,  R. Peverati,  V. A. Rassolov,  Yihan Shao,  
 L. V. Slipchenko,  T. Stauch,  R. P. Steele,  J. E. Subotnik,  
 A. J. W. Thom,  A. Tkatchenko,  D. G. Truhlar,  T. Van Voorhis,  
 T. A. Wesolowski,  K. B. Whaley,  H. L. Woodcock III,  P. M. Zimmerman,  
 S. Faraji,  P. M. W. Gill,  M. Head-Gordon,  J. M. Herbert,  A. I. Krylov

 Additional authors for Version 5.4.1: 
 S. Kotaru,  Shaozhi Li,  Xiangyuan Li,  F. Matz,  A. Molle,  Haisheng Ren,  
 Yingli Su,  Hung-Yi Tsai,  C. Utku,  Fang Wang

 Contributors to earlier versions of Q-Chem not listed above: 
 R. D. Adamson,  B. Austin,  R. Baer,  J. Baker,  G. J. O. Beran,  
 K. Brandhorst,  S. T. Brown,  E. F. C. Byrd,  A. K. Chakraborty,  
 G. K. L. Chan,  Chun-Min Chang,  Yunqing Chen,  C.-L. Cheng,  
 Siu Hung Chien,  D. M. Chipman,  D. L. Crittenden,  H. Dachsel,  
 R. J. Doerksen,  A. D. Dutoi,  R. G. Edgar,  J. Fosso-Tande,  
 L. Fusti-Molnar,  D. Ghosh,  A. Ghysels,  A. Golubeva-Zadorozhnaya,  
 J. Gonthier,  M. S. Gordon,  S. R. Gwaltney,  G. Hawkins,  J. E. Herr,  
 A. Heyden,  S. Hirata,  E. G. Hohenstein,  G. Kedziora,  F. J. Keil,  
 C. Kelley,  Jihan Kim,  R. A. King,  R. Z. Khaliullin,  P. P. Korambath,  
 W. Kurlancheek,  A. Laurent,  A. M. Lee,  M. S. Lee,  S. V. Levchenko,  
 Ching Yeh Lin,  D. Liotard,  E. Livshits,  R. C. Lochan,  I. Lotan,  
 L. A. Martinez-Martinez,  P. E. Maslen,  N. Nair,  D. P. O'Neill,  
 D. Neuhauser,  E. Neuscamman,  C. M. Oana,  R. Olivares-Amaya,  R. Olson,  
 T. M. Perrine,  B. Peters,  P. A. Pieniazek,  A. Prociuk,  Y. M. Rhee,  
 J. Ritchie,  M. A. Rohrdanz,  E. Rosta,  N. J. Russ,  H. F. Schaefer III,  
 M. W. Schmidt,  N. E. Schultz,  S. Sharma,  N. Shenvi,  C. D. Sherrill,  
 A. C. Simmonett,  A. Sodt,  T. Stein,  D. Stuck,  K. S. Thanthiriwatte,  
 V. Vanovschi,  L. Vogt,  Tao Wang,  A. Warshel,  M. A. Watson,  
 C. F. Williams,  Q. Wu,  X. Xu,  Jun Yang,  W. Zhang,  Yan Zhao

 Please cite Q-Chem as follows:
 Y. Shao et al., Mol. Phys. 113, 184-215 (2015)
 DOI: 10.1080/00268976.2014.952696

 Q-Chem 5.4.1 for Intel X86 EM64T Linux

 Parts of Q-Chem use Armadillo 9.900.5 (Nocturnal Misbehaviour).
 http://arma.sourceforge.net/

 Q-Chem begins on Thu Mar  3 19:32:15 2022  

 Host: node01
0

     Scratch files written to /src/jdavis/qchem.scratch/qchem9243//
 Processing $rem in /src/tsommerfeld/qchem/config/preferences:
 Processing $rem in /home/jdavis/.qchemrc:

 Checking the input file for inconsistencies... 	...done.

--------------------------------------------------------------
User input:
--------------------------------------------------------------
$molecule
-1 1
C        -0.6645000000    0.0000000000    1.1619088658
C         0.6645000000    0.0000000000    1.1619088658
H        -1.1590800000    0.0000000000    0.1995598658
H         1.1590800000    0.0000000000    0.1995598658
H        -1.1590800000    0.0000000000    2.1242568658
H         1.1590800000    0.0000000000    2.1242568658
O         0.0000000000    0.0000000000   -8.84
H         0.0000000000    0.0000000000   -9.81
$end
$rem
   METHOD adc(2)
   BASIS gen
   PURECART 11
   EE_STATES [0,0,0,10]
   scf_convergence 8
   ADC_DAVIDSON_MAXITER 120
   ADC_DAVIDSON_MAXSUBSPACE 200
   adc_nguess_singles 100
   THRESH 14
   S2THRESH 14
   adc_davidson_conv 5
   adc_davidson_thresh 14
   THREADS 10
   MEM_TOTAL 95000
   STATE_ANALYSIS TRUE
$end
$basis
C 1
S   9   1.00
      6.665000D+03           6.920000D-04
      1.000000D+03           5.329000D-03
      2.280000D+02           2.707700D-02
      6.471000D+01           1.017180D-01
      2.106000D+01           2.747400D-01
      7.495000D+00           4.485640D-01
      2.797000D+00           2.850740D-01
      5.215000D-01           1.520400D-02
      1.596000D-01          -3.191000D-03
S   9   1.00
      6.665000D+03          -1.460000D-04
      1.000000D+03          -1.154000D-03
      2.280000D+02          -5.725000D-03
      6.471000D+01          -2.331200D-02
      2.106000D+01          -6.395500D-02
      7.495000D+00          -1.499810D-01
      2.797000D+00          -1.272620D-01
      5.215000D-01           5.445290D-01
      1.596000D-01           5.804960D-01
S   1   1.00
      1.596000D-01           1.000000D+00
S   1   1.00
      0.0469000              1.0000000
P   4   1.00
      9.439000D+00           3.810900D-02
      2.002000D+00           2.094800D-01
      5.456000D-01           5.085570D-01
      1.517000D-01           4.688420D-01
P   1   1.00
      1.517000D-01           1.000000D+00
P   1   1.00
      0.0809067      1.0000000
P   1   1.00
      0.0404533      1.0000000
D   1   1.00
      5.500000D-01           1.0000000
****
C 2
S   9   1.00
      6.665000D+03           6.920000D-04
      1.000000D+03           5.329000D-03
      2.280000D+02           2.707700D-02
      6.471000D+01           1.017180D-01
      2.106000D+01           2.747400D-01
      7.495000D+00           4.485640D-01
      2.797000D+00           2.850740D-01
      5.215000D-01           1.520400D-02
      1.596000D-01          -3.191000D-03
S   9   1.00
      6.665000D+03          -1.460000D-04
      1.000000D+03          -1.154000D-03
      2.280000D+02          -5.725000D-03
      6.471000D+01          -2.331200D-02
      2.106000D+01          -6.395500D-02
      7.495000D+00          -1.499810D-01
      2.797000D+00          -1.272620D-01
      5.215000D-01           5.445290D-01
      1.596000D-01           5.804960D-01
S   1   1.00
      1.596000D-01           1.000000D+00
S   1   1.00
      0.0469000              1.0000000
P   4   1.00
      9.439000D+00           3.810900D-02
      2.002000D+00           2.094800D-01
      5.456000D-01           5.085570D-01
      1.517000D-01           4.688420D-01
P   1   1.00
      1.517000D-01           1.000000D+00
P   1   1.00
      0.0809067      1.0000000
P   1   1.00
      0.0404533      1.0000000
D   1   1.00
      5.500000D-01           1.0000000
****
H 3
cc-pVDZ
****
H 4
cc-pVDZ
****
H 5
cc-pVDZ
****
H 6
cc-pVDZ
****
O 7
aug-cc-pVDZ
****
H 8
cc-pVDZ
****
$end
--------------------------------------------------------------
 ----------------------------------------------------------------
             Standard Nuclear Orientation (Angstroms)
    I     Atom           X                Y                Z
 ----------------------------------------------------------------
    1      C      -0.6645000000     0.0000000000     3.6394872717
    2      C       0.6645000000    -0.0000000000     3.6394872717
    3      H      -1.1590800000     0.0000000000     2.6771382717
    4      H       1.1590800000    -0.0000000000     2.6771382717
    5      H      -1.1590800000     0.0000000000     4.6018352717
    6      H       1.1590800000    -0.0000000000     4.6018352717
    7      O      -0.0000000000     0.0000000000    -6.3624215941
    8      H      -0.0000000000     0.0000000000    -7.3324215941
 ----------------------------------------------------------------
 Molecular Point Group                 C2v   NOp =  4
 Largest Abelian Subgroup              C2v   NOp =  4
 Nuclear Repulsion Energy =          45.48950572 hartrees
 There are       13 alpha and       13 beta electrons
 Requested basis set is non-standard
 There are 42 shells and 90 basis functions
 Total memory of 95000 MB is distributed as follows: 
   MEM_STATIC is set to 192 MB
   QALLOC/CCMAN JOB total memory use is  94808 MB
 Warning: actual memory use might exceed 95000 MB

 Total QAlloc Memory Limit  95000 MB
 Mega-Array Size       188 MB
 MEM_STATIC part       192 MB

                       Distance Matrix (Angstroms)
             C (  1)   C (  2)   H (  3)   H (  4)   H (  5)   H (  6)
   C (  2)  1.329000
   H (  3)  1.082000  2.061931
   H (  4)  2.061931  1.082000  2.318160
   H (  5)  1.082000  2.061931  1.924697  3.013026
   H (  6)  2.061931  1.082000  3.013026  1.924697  2.318160
   O (  7) 10.023958 10.023958  9.113567  9.113567 11.025352 11.025352
   H (  8) 10.992013 10.992013 10.076446 10.076446 11.990411 11.990411
             O (  7)
   H (  8)  0.970000
 
 A cutoff of  1.0D-14 yielded    663 shell pairs
 There are      3019 function pairs (      3263 Cartesian)
 Smallest overlap matrix eigenvalue = 2.34E-04

 Scale SEOQF with 1.000000e-01/1.000000e-01/1.000000e-02

 Standard Electronic Orientation quadrupole field applied
 Nucleus-field energy     =    -0.0000000060 hartrees
 ================ Generating on-the-fly SAD Guess ================
Attempting to make child job directory: /src/jdavis/qchem.scratch/qchem9243//Frg1/
Attempting to make child job directory: /src/jdavis/qchem.scratch/qchem9243//Frg2/
Attempting to make child job directory: /src/jdavis/qchem.scratch/qchem9243//Frg3/
Creating input file /src/jdavis/qchem.scratch/qchem9243/Frg1.input
using default PutDataFrgm: nothing
calling putenv with: QCSCRATCH=/src/jdavis/qchem.scratch/qchem9243/ 
Spawning Job For Fragment 0
Done Job For Fragment 0
calling putenv with: QCSCRATCH=/src/jdavis/qchem.scratch 
calling putenv with: QCTHREADS=1 
Creating input file /src/jdavis/qchem.scratch/qchem9243/Frg2.input
using default PutDataFrgm: nothing
calling putenv with: QCSCRATCH=/src/jdavis/qchem.scratch/qchem9243/ 
Spawning Job For Fragment 1
Done Job For Fragment 1
calling putenv with: QCSCRATCH=/src/jdavis/qchem.scratch 
calling putenv with: QCTHREADS=1 
Creating input file /src/jdavis/qchem.scratch/qchem9243/Frg3.input
using default PutDataFrgm: nothing
calling putenv with: QCSCRATCH=/src/jdavis/qchem.scratch/qchem9243/ 
Spawning Job For Fragment 2
Done Job For Fragment 2
calling putenv with: QCSCRATCH=/src/jdavis/qchem.scratch 
calling putenv with: QCTHREADS=1 
 Time for running child jobs:  CPU 1.81 s  wall 80.89 s
 ============= Method Specific SAD Guess Constructed =============
 Guess from on-the-fly superposition of atomic densities
 Warning: Energy on first SCF cycle will be non-variational
 A restricted Hartree-Fock SCF calculation will be
 performed using Pulay DIIS extrapolation
 SCF converges when DIIS error is below 1.0E-08
 using 10 threads for integral computing
 -------------------------------------------------------
 OpenMP Integral computing Module                
 Release: version 1.0, May 2013, Q-Chem Inc. Pittsburgh 
 -------------------------------------------------------
 ---------------------------------------
  Cycle       Energy         DIIS Error
 ---------------------------------------
    1    -153.5105741495      5.93E-02
    2    -153.2823379955      1.22E-02
    3    -153.3439800519      1.06E-02
    4    -153.4322162162      6.44E-04
    5    -153.4329556276      1.83E-04
    6    -153.4330031417      3.82E-05
    7    -153.4330057650      9.24E-06
    8    -153.4330060440      2.63E-06
    9    -153.4330060657      4.38E-07
   10    -153.4330060662      5.80E-08
   11    -153.4330060663      1.19E-08
   12    -153.4330060663      2.97E-09 Convergence criterion met
 ---------------------------------------
 SCF time:  CPU 12.25 s  wall 1.23 s
 SCF   energy in the final basis set = -153.43300607
 Total energy in the final basis set = -153.43300607
================================================================================
|                                                                              |
|                                 A D C  M A N                                 |
|                                                                              |
 ------------------------------------------------------------------------------ 
|                                                                              |
| Components:                                                                  |
|                                                                              |
| - libvmm - 1.3-trunk                                                         |
|   Authors:                                                                   |
|   Evgeny Epifanovsky, Ilya Kaliman                                           |
|                                                                              |
| - libtensor - 2.5-trunk                                                      |
|   Authors:                                                                   |
|   Evgeny Epifanovsky, Michael Wormit, Dmitry Zuev, Sam Manzer,               |
|   Ilya Kaliman                                                               |
|                                                                              |
| - libwfa - 1.1-trunk                                                         |
|   Authors:                                                                   |
|   Felix Plasser, Stefanie Mewes (Baeppler), Benjamin Thomitzni,              |
|   Michael Wormit, Feng Chen, Anna I. Krylov, Pavel Pokhilko                  |
|                                                                              |
| - libadc - 1.1-trunk                                                         |
|   Authors:                                                                   |
|   Michael Wormit, Adrian L. Dempwolff, Philipp H. P. Harbach,                |
|   Caroline Krauter, Dirk Rehn, Matthias Schneider, Jan Wenzel                |
|                                                                              |
| - adcman - 2.6-trunk                                                         |
|   Authors:                                                                   |
|   Michael Wormit, Adrian L. Dempwolff, Philipp H. P. Harbach,                |
|   Caroline Krauter, Daniel Lefrancois, Jan-Michael Mewes, Dirk Rehn,         |
|   Matthias Schneider, Jan Wenzel, Andreas Dreuw                              |
|                                                                              |
| Authors of earlier versions of ADCMAN:                                       |
| Andreas Dreuw, Jan Hendrik Starcke, Dirk Rehn, Michael Wormit                |
|                                                                              |
================================================================================

 
 Alpha MOs, Restricted
 -- Occupied --                  
-20.199 -11.183 -11.181  -0.988  -0.904  -0.728  -0.606  -0.513
  1 A1    2 A1    1 B1    3 A1    4 A1    2 B1    5 A1    6 A1                 
 -0.461  -0.323  -0.251  -0.108  -0.108
  3 B1    1 B2    7 A1    4 B1    2 B2                                         
 -- Virtual --                   
  0.122   0.135   0.144   0.147   0.150   0.171   0.192   0.237
  5 B1    8 A1    9 A1    3 B2    1 A2    6 B1   10 A1    2 A2                 
  0.266   0.316   0.371   0.373   0.380   0.398   0.406   0.412
  7 B1   11 A1   12 A1    8 B1   13 A1   14 A1   15 A1    4 B2                 
  0.419   0.426   0.443   0.443   0.454   0.495   0.584   0.604
  9 B1   10 B1   11 B1    5 B2   16 A1    3 A2   17 A1   12 B1                 
  0.670   0.888   0.905   0.989   1.011   1.078   1.105   1.113
 13 B1   18 A1   19 A1   14 B1   20 A1   15 B1   21 A1   22 A1                 
  1.168   1.169   1.176   1.192   1.220   1.269   1.269   1.323
  6 B2   23 A1    7 B2   16 B1    4 A2   17 B1    8 B2    5 A2                 
  1.323   1.338   1.341   1.344   1.506   1.544   1.676   1.729
 24 A1    6 A2   18 B1    9 B2   19 B1   25 A1   26 A1   20 B1                 
  1.729   1.736   1.786   1.929   1.973   1.998   2.016   2.071
 10 B2   21 B1   27 A1    7 A2   28 A1   11 B2   22 B1   12 B2                 
  2.127   2.151   2.236   2.376   2.376   2.385   2.466   2.527
 29 A1   30 A1    8 A2   23 B1   13 B2   24 B1    9 A2   31 A1                 
  2.534   2.624   2.634   2.893   2.898   3.030   3.319   3.397
 32 A1   25 B1   26 B1   33 A1   34 A1   35 A1   27 B1   28 B1                 
  3.930   3.930   3.959   3.959   4.401
 29 B1   14 B2   10 A2   36 A1   37 A1                                         
 
 Beta MOs, Restricted
 -- Occupied --                  
-20.199 -11.183 -11.181  -0.988  -0.904  -0.728  -0.606  -0.513
  1 A1    2 A1    1 B1    3 A1    4 A1    2 B1    5 A1    6 A1                 
 -0.461  -0.323  -0.251  -0.108  -0.108
  3 B1    1 B2    7 A1    4 B1    2 B2                                         
 -- Virtual --                   
  0.122   0.135   0.144   0.147   0.150   0.171   0.192   0.237
  5 B1    8 A1    9 A1    3 B2    1 A2    6 B1   10 A1    2 A2                 
  0.266   0.316   0.371   0.373   0.380   0.398   0.406   0.412
  7 B1   11 A1   12 A1    8 B1   13 A1   14 A1   15 A1    4 B2                 
  0.419   0.426   0.443   0.443   0.454   0.495   0.584   0.604
  9 B1   10 B1   11 B1    5 B2   16 A1    3 A2   17 A1   12 B1                 
  0.670   0.888   0.905   0.989   1.011   1.078   1.105   1.113
 13 B1   18 A1   19 A1   14 B1   20 A1   15 B1   21 A1   22 A1                 
  1.168   1.169   1.176   1.192   1.220   1.269   1.269   1.323
  6 B2   23 A1    7 B2   16 B1    4 A2   17 B1    8 B2    5 A2                 
  1.323   1.338   1.341   1.344   1.506   1.544   1.676   1.729
 24 A1    6 A2   18 B1    9 B2   19 B1   25 A1   26 A1   20 B1                 
  1.729   1.736   1.786   1.929   1.973   1.998   2.016   2.071
 10 B2   21 B1   27 A1    7 A2   28 A1   11 B2   22 B1   12 B2                 
  2.127   2.151   2.236   2.376   2.376   2.385   2.466   2.527
 29 A1   30 A1    8 A2   23 B1   13 B2   24 B1    9 A2   31 A1                 
  2.534   2.624   2.634   2.893   2.898   3.030   3.319   3.397
 32 A1   25 B1   26 B1   33 A1   34 A1   35 A1   27 B1   28 B1                 
  3.930   3.930   3.959   3.959   4.401
 29 B1   14 B2   10 A2   36 A1   37 A1                                         

--------------------------------------------------------------------------------
                                   HF Summary                                   
--------------------------------------------------------------------------------
  Energy:                                                 -153.4330060663 a.u.
  Dip. moment [a.u.]:                  [  -0.000000,   -0.000000,   11.487039]
  Total dipole [Debye]:                                              29.197147
  <r^2> [a.u.]:                        [  55.247288,   19.532169, 2266.852050]
  Total <r^2> [a.u.]:                                              2341.631506
--------------------------------------------------------------------------------

--------------------------------------------------------------------------------
                                 MP(2) Summary                                  
--------------------------------------------------------------------------------
  MP energy contribution:                                   -0.5253830538 a.u.
  Total energy:                                           -153.9583891200 a.u.
  Dip. moment [a.u.]:                  [  -0.000000,   -0.000000,   11.526305]
  Total dipole [Debye]:                                              29.296951
  <r^2> [a.u.]:                        [  56.203062,   20.230500, 2268.510333]
  Total <r^2> [a.u.]:                                              2344.943894

  Density matrix analysis:
  ------------------------
  NOs
    Occupation of frontier NOs:
       0.0447   1.9370
    Number of electrons: 26.000000
    Number of unpaired electrons: n_u =  0.71424, n_u,nl =  0.08555
    NO participation ratio (PR_NO): 22.898816
  
  
  Mulliken Population Analysis
  Atom      Charge (e)              h+              e-           Del q
  --------------------------------------------------------------------
   1 C       -0.219630        0.087419       -0.102587       -0.015168
   2 C       -0.219630        0.087419       -0.102587       -0.015168
   3 H        0.121068        0.017915       -0.010344        0.007571
   4 H        0.121068        0.017915       -0.010344        0.007571
   5 H        0.098561        0.018245       -0.010648        0.007597
   6 H        0.098561        0.018245       -0.010648        0.007597
   7 O       -1.024957        0.282664       -0.270291        0.012374
   8 H        0.024958        0.017597       -0.029970       -0.012373
  --------------------------------------------------------------------
  Sum:       -1.000000        0.547417       -0.547417        0.000000
  
  Multipole moment analysis of the density matrix
    Molecular charge:                      -1.000000
    Number of electrons:                   26.000000
      Center of electronic charge [Ang]: [  0.000000,   0.000000,  -0.234595]
    Total nuclear charge:                  25.000000
      Center of nuclear charge [Ang]:    [ -0.000000,  -0.000000,  -0.000000]
    Dipole moment [D]:                     29.296943
      Cartesian components [D]:          [ -0.000000,  -0.000000,  29.296943]
    RMS size of the density [Ang]:         5.020038
      Cartesian components [Ang]:        [  0.778027,   0.466786,   4.937364]
  
  Exciton analysis of the difference density matrix
    <r_h> [Ang]:                  [  0.000000,  -0.000000,  -1.858872]
    <r_e> [Ang]:                  [  0.000000,  -0.000000,  -1.896829]
    |<r_e - r_h>| [Ang]:            0.037958
    Hole size [Ang]:                5.151039
      Cartesian components [Ang]: [  0.820142,   0.711418,   5.035321]
    Electron size [Ang]:            5.299536
      Cartesian components [Ang]: [  1.077754,   0.929163,   5.104918]
--------------------------------------------------------------------------------
  Starting Davidson for singlet states of irrep B2 ... 
--------------------------------------------------------------------------------
   It NVec Conv  Avg. Norm  Max. Norm  Conv. states           Remark
--------------------------------------------------------------------------------
       100    0  1.537e-01  6.131e-01  0.2623 n n n n n n n n Guess.
    1  110    0  1.606e-02  8.662e-02  0.0808 n n n n n n n n 
    2  120    0  2.933e-03  1.813e-02  0.0790 n n n n n n n n 
    3  130    0  1.405e-02  9.984e-02  0.0790 n n n n n n n n 
    4  140    1  1.991e-03  1.796e-02  0.0790 n n y n n n n n 
    5  150    3  1.200e-02  1.200e-01  0.0790 n y y n y n n n 
    6  160    7  8.480e-04  8.479e-03  0.0790 y y y y y y n n 
    7  170    8  1.008e-04  1.008e-03  0.0790 y y y y y y n y 
    8  180    9  6.653e-06  6.653e-05  0.0790 y y y y y y y y 
    9  190   10  6.288e-07  6.288e-06  0.0790 y y y y y y y y Converged.
--------------------------------------------------------------------------------
  Davidson Summary: 
 ------------------------------------------------------------
  State  0: excitation energy =   0.0790 a.u.   (converged)
  State  1: excitation energy =   0.0814 a.u.   (converged)
  State  2: excitation energy =   0.0850 a.u.   (converged)
  State  3: excitation energy =   0.1287 a.u.   (converged)
  State  4: excitation energy =   0.1564 a.u.   (converged)
  State  5: excitation energy =   0.1751 a.u.   (converged)
  State  6: excitation energy =   0.2364 a.u.   (converged)
  State  7: excitation energy =   0.2398 a.u.   (converged)
  State  8: excitation energy =   0.2445 a.u.   (converged)
  State  9: excitation energy =   0.2837 a.u.   (converged)
 ------------------------------------------------------------


--------------------------------------------------------------------------------
                   State-averaged natural transition orbitals
--------------------------------------------------------------------------------
--------------------------------------------------------------------------------

--------------------------------------------------------------------------------
                             Excited State Summary
--------------------------------------------------------------------------------
--------------------------------------------------------------------------------

  Excited state 1 (singlet, B2)                                    [converged]
  ----------------------------------------------------------------------------
  Term symbol:  1 (1) B2                                    R^2 =  7.68894e-11

  Total energy:                                           -153.8794230360 a.u.
  Excitation energy:                                               2.148776 eV

  Osc. strength:                                                      0.000000
  Trans. dip. moment [a.u.]:           [  -0.000000,    0.002944,   -0.000000]
  <i|r^2|0> [a.u.]:                    [   0.000000,   -0.000000,    0.000000]

  Dip. moment [a.u.]:                  [   0.000000,   -0.000000,   -9.078760]
  Total dipole [Debye]:                                              23.075910
  <r^2> [a.u.]:                        [  68.330391,   25.964214, 2209.070307]
  Total <r^2> [a.u.]:                                              2303.364911

  V1^2 = 0.8519, V2^2 = 0.1481

  Important amplitudes:
      occ i      occ j       vir a       vir b          v   
    ---------------------------------------------------------
     2 (B2) A               8 (A1) A                  0.6156
     2 (B2) A               9 (A1) A                  0.2143
    ---------------------------------------------------------

  Density matrix analysis:
  ------------------------
  NOs
    Occupation of frontier NOs:
       0.9564   0.9962
    Number of electrons: 26.000000
    Number of unpaired electrons: n_u =  2.76056, n_u,nl =  2.12278
    NO participation ratio (PR_NO):  3.926748
  
  
  Mulliken Population Analysis
  Atom      Charge (e)              h+              e-           Del q
  --------------------------------------------------------------------
   1 C       -0.698214        0.020706       -0.499290       -0.478584
   2 C       -0.698214        0.020706       -0.499290       -0.478584
   3 H        0.089824       -0.000090       -0.031155       -0.031245
   4 H        0.089824       -0.000090       -0.031155       -0.031245
   5 H        0.108482        0.016812       -0.006891        0.009921
   6 H        0.108482        0.016812       -0.006891        0.009921
   7 O       -0.141472        1.419044       -0.535560        0.883485
   8 H        0.141289        0.141497       -0.025166        0.116331
  --------------------------------------------------------------------
  Sum:       -1.000000        1.635396       -1.635396        0.000000
  
  Multipole moment analysis of the density matrix
    Molecular charge:                      -1.000000
    Number of electrons:                   26.000000
      Center of electronic charge [Ang]: [  0.000000,   0.000000,   0.184780]
    Total nuclear charge:                  25.000000
      Center of nuclear charge [Ang]:    [ -0.000000,  -0.000000,  -0.000000]
    Dipole moment [D]:                     23.075903
      Cartesian components [D]:          [ -0.000000,  -0.000000, -23.075903]
    RMS size of the density [Ang]:         4.977334
      Cartesian components [Ang]:        [  0.857870,   0.528813,   4.874245]
  
  Exciton analysis of the difference density matrix
    <r_h> [Ang]:                  [  0.000000,  -0.000000,  -5.966228]
    <r_e> [Ang]:                  [  0.000000,   0.000000,   0.701105]
    |<r_e - r_h>| [Ang]:            6.667333
    Hole size [Ang]:                2.607471
      Cartesian components [Ang]: [  0.818499,   0.895776,   2.307932]
    Electron size [Ang]:            5.897768
      Cartesian components [Ang]: [  1.657257,   1.335738,   5.500270]

  Transition density matrix analysis:
  -----------------------------------
  
  CT numbers (Mulliken)
    omega =     0.8371
    <Phe> =    -0.0000
  
  Exciton analysis of the transition density matrix
    Trans. dipole moment [D]:             0.003742
      Cartesian components [D]:         [ -0.000000,   0.003742,  -0.000000]
    <r_h> [Ang]:                        [ -0.000000,  -0.000000,  -6.398117]
    <r_e> [Ang]:                        [  0.000000,   0.000000,   4.489491]
    |<r_e - r_h>| [Ang]:                 10.887608
    Hole size [Ang]:                      1.092123
      Cartesian components [Ang]:       [  0.486179,   0.842060,   0.497290]
    Electron size [Ang]:                  3.560518
      Cartesian components [Ang]:       [  1.995503,   1.595417,   2.479899]
    RMS electron-hole separation [Ang]:  11.507116
      Cartesian components [Ang]:       [  2.053859,   1.804012,  11.177697]
    Covariance(r_h, r_e) [Ang^2]:        -0.001841
    Correlation coefficient:             -0.000474
    Center-of-mass size [Ang]:            1.861876
      Cartesian components [Ang]:       [  1.026945,   0.901995,   1.264268]

  Decomposition into state-averaged NTOs
    H- 0 -> L+ 0: -0.4707 ( 44.3%)
    H- 0 -> L+ 5: -0.4215 ( 35.5%)
    H- 0 -> L+ 7: -0.1289 (  3.3%)
                   omega =  83.7%
  ----------------------------------------------------------------------------


  Excited state 2 (singlet, B2)                                    [converged]
  ----------------------------------------------------------------------------
  Term symbol:  2 (1) B2                                    R^2 =  7.25228e-11

  Total energy:                                           -153.8769754302 a.u.
  Excitation energy:                                               2.215379 eV

  Osc. strength:                                                      0.000000
  Trans. dip. moment [a.u.]:           [  -0.000000,    0.001578,    0.000000]
  <i|r^2|0> [a.u.]:                    [  -0.000000,   -0.000000,   -0.000000]

  Dip. moment [a.u.]:                  [  -0.000000,    0.000000,   -6.088269]
  Total dipole [Debye]:                                              15.474838
  <r^2> [a.u.]:                        [  83.629772,   25.483719, 2154.530099]
  Total <r^2> [a.u.]:                                              2263.643590

  V1^2 = 0.8523, V2^2 = 0.1477

  Important amplitudes:
      occ i      occ j       vir a       vir b          v   
    ---------------------------------------------------------
     2 (B2) A               9 (A1) A                  0.6090
     2 (B2) A               8 (A1) A                 -0.2138
    ---------------------------------------------------------

  Density matrix analysis:
  ------------------------
  NOs
    Occupation of frontier NOs:
       0.9567   0.9945
    Number of electrons: 26.000000
    Number of unpaired electrons: n_u =  2.76221, n_u,nl =  2.12315
    NO participation ratio (PR_NO):  3.936893
  
  
  Mulliken Population Analysis
  Atom      Charge (e)              h+              e-           Del q
  --------------------------------------------------------------------
   1 C       -0.768629        0.021006       -0.570005       -0.548999
   2 C       -0.768629        0.021006       -0.570005       -0.548999
   3 H        0.154764        0.004447        0.029248        0.033695
   4 H        0.154764        0.004447        0.029248        0.033695
   5 H        0.113892       -0.000501        0.015831        0.015331
   6 H        0.113892       -0.000501        0.015831        0.015331
   7 O       -0.140422        1.416440       -0.531905        0.884535
   8 H        0.140369        0.140338       -0.024927        0.115412
  --------------------------------------------------------------------
  Sum:       -1.000000        1.606683       -1.606683       -0.000000
  
  Multipole moment analysis of the density matrix
    Molecular charge:                      -1.000000
    Number of electrons:                   26.000000
      Center of electronic charge [Ang]: [  0.000000,  -0.000000,   0.123914]
    Total nuclear charge:                  25.000000
      Center of nuclear charge [Ang]:    [ -0.000000,  -0.000000,  -0.000000]
    Dipole moment [D]:                     15.474833
      Cartesian components [D]:          [ -0.000000,   0.000000, -15.474833]
    RMS size of the density [Ang]:         4.936074
      Cartesian components [Ang]:        [  0.949063,   0.523897,   4.815562]
  
  Exciton analysis of the difference density matrix
    <r_h> [Ang]:                  [ -0.000000,   0.000000,  -6.130489]
    <r_e> [Ang]:                  [  0.000000,  -0.000000,  -0.328952]
    |<r_e - r_h>| [Ang]:            5.801537
    Hole size [Ang]:                2.256287
      Cartesian components [Ang]: [  0.815641,   0.902357,   1.900346]
    Electron size [Ang]:            5.328762
      Cartesian components [Ang]: [  2.333552,   1.315230,   4.606561]

  Transition density matrix analysis:
  -----------------------------------
  
  CT numbers (Mulliken)
    omega =     0.8373
    <Phe> =    -0.0000
  
  Exciton analysis of the transition density matrix
    Trans. dipole moment [D]:             0.002006
      Cartesian components [D]:         [ -0.000000,   0.002006,   0.000000]
    <r_h> [Ang]:                        [ -0.000000,  -0.000000,  -6.398100]
    <r_e> [Ang]:                        [  0.000000,  -0.000000,   2.819928]
    |<r_e - r_h>| [Ang]:                  9.218028
    Hole size [Ang]:                      1.091552
      Cartesian components [Ang]:       [  0.486008,   0.841754,   0.496723]
    Electron size [Ang]:                  3.619161
      Cartesian components [Ang]:       [  2.882241,   1.550795,   1.544684]
    RMS electron-hole separation [Ang]:   9.963118
      Cartesian components [Ang]:       [  2.922900,   1.764339,   9.359887]
    Covariance(r_h, r_e) [Ang^2]:        -0.000934
    Correlation coefficient:             -0.000237
    Center-of-mass size [Ang]:            1.889970
      Cartesian components [Ang]:       [  1.461479,   0.882346,   0.810882]

  Decomposition into state-averaged NTOs
    H- 0 -> L+ 5: -0.4143 ( 34.3%)
    H- 0 -> L+ 6:  0.3730 ( 27.8%)
    H- 0 -> L+ 0:  0.3272 ( 21.4%)
                   omega =  83.7%
  ----------------------------------------------------------------------------


  Excited state 3 (singlet, B2)                                    [converged]
  ----------------------------------------------------------------------------
  Term symbol:  3 (1) B2                                    R^2 =  4.19598e-11

  Total energy:                                           -153.8734148034 a.u.
  Excitation energy:                                               2.312269 eV

  Osc. strength:                                                      0.000000
  Trans. dip. moment [a.u.]:           [  -0.000000,    0.000366,   -0.000000]
  <i|r^2|0> [a.u.]:                    [   0.000000,    0.000000,   -0.000000]

  Dip. moment [a.u.]:                  [   0.000000,   -0.000000,   -7.552518]
  Total dipole [Debye]:                                              19.196589
  <r^2> [a.u.]:                        [  68.160323,   32.203508, 2168.950346]
  Total <r^2> [a.u.]:                                              2269.314178

  V1^2 = 0.8451, V2^2 = 0.1549

  Important amplitudes:
      occ i      occ j       vir a       vir b          v   
    ---------------------------------------------------------
     4 (B1) A               1 (A2) A                  0.6342
     4 (B1) A               2 (A2) A                 -0.1392
    ---------------------------------------------------------

  Density matrix analysis:
  ------------------------
  NOs
    Occupation of frontier NOs:
       0.9566   0.9963
    Number of electrons: 26.000000
    Number of unpaired electrons: n_u =  2.75170, n_u,nl =  2.11636
    NO participation ratio (PR_NO):  3.904095
  
  
  Mulliken Population Analysis
  Atom      Charge (e)              h+              e-           Del q
  --------------------------------------------------------------------
   1 C       -0.666424        0.078755       -0.525549       -0.446794
   2 C       -0.666424        0.078755       -0.525549       -0.446794
   3 H        0.089575        0.002733       -0.034226       -0.031494
   4 H        0.089575        0.002733       -0.034226       -0.031494
   5 H        0.076849        0.003248       -0.024960       -0.021712
   6 H        0.076849        0.003248       -0.024960       -0.021712
   7 O       -0.139566        1.408496       -0.523105        0.885391
   8 H        0.139566        0.139312       -0.024703        0.114609
  --------------------------------------------------------------------
  Sum:       -1.000000        1.717279       -1.717279        0.000000
  
  Multipole moment analysis of the density matrix
    Molecular charge:                      -1.000000
    Number of electrons:                   26.000000
      Center of electronic charge [Ang]: [ -0.000000,   0.000000,   0.153716]
    Total nuclear charge:                  25.000000
      Center of nuclear charge [Ang]:    [ -0.000000,  -0.000000,  -0.000000]
    Dipole moment [D]:                     19.196583
      Cartesian components [D]:          [  0.000000,  -0.000000, -19.196583]
    RMS size of the density [Ang]:         4.941420
      Cartesian components [Ang]:        [  0.856802,   0.588933,   4.830805]
  
  Exciton analysis of the difference density matrix
    <r_h> [Ang]:                  [  0.000000,  -0.000000,  -5.449152]
    <r_e> [Ang]:                  [ -0.000000,   0.000000,   0.429961]
    |<r_e - r_h>| [Ang]:            5.879113
    Hole size [Ang]:                3.326399
      Cartesian components [Ang]: [  0.917147,   0.796183,   3.096751]
    Electron size [Ang]:            5.314203
      Cartesian components [Ang]: [  1.670620,   1.608194,   4.781578]

  Transition density matrix analysis:
  -----------------------------------
  
  CT numbers (Mulliken)
    omega =     0.8240
    <Phe> =     0.0000
  
  Exciton analysis of the transition density matrix
    Trans. dipole moment [D]:             0.000465
      Cartesian components [D]:         [ -0.000000,   0.000465,  -0.000000]
    <r_h> [Ang]:                        [ -0.000000,   0.000000,  -6.398260]
    <r_e> [Ang]:                        [ -0.000000,   0.000000,   3.639456]
    |<r_e - r_h>| [Ang]:                 10.037716
    Hole size [Ang]:                      1.091066
      Cartesian components [Ang]:       [  0.841854,   0.486045,   0.495447]
    Electron size [Ang]:                  3.069535
      Cartesian components [Ang]:       [  2.048181,   1.977856,   1.146773]
    RMS electron-hole separation [Ang]:  10.553072
      Cartesian components [Ang]:       [  2.214255,   2.036688,  10.115152]
    Covariance(r_h, r_e) [Ang^2]:         0.000444
    Correlation coefficient:              0.000133
    Center-of-mass size [Ang]:            1.628908
      Cartesian components [Ang]:       [  1.107317,   1.018358,   0.624610]

  Decomposition into state-averaged NTOs
    H- 1 -> L+ 4: -0.4896 ( 47.9%)
    H- 1 -> L+ 8:  0.4151 ( 34.5%)
                   omega =  82.4%
  ----------------------------------------------------------------------------


  Excited state 4 (singlet, B2)                                    [converged]
  ----------------------------------------------------------------------------
  Term symbol:  4 (1) B2                                    R^2 =  1.99982e-10

  Total energy:                                           -153.8297034262 a.u.
  Excitation energy:                                               3.501716 eV

  Osc. strength:                                                      0.000001
  Trans. dip. moment [a.u.]:           [  -0.000000,    0.002660,    0.000000]
  <i|r^2|0> [a.u.]:                    [   0.000000,    0.000000,    0.000000]

  Dip. moment [a.u.]:                  [   0.000000,   -0.000000,   -7.489878]
  Total dipole [Debye]:                                              19.037375
  <r^2> [a.u.]:                        [  70.963861,   28.665434, 2173.203148]
  Total <r^2> [a.u.]:                                              2272.832443

  V1^2 = 0.8511, V2^2 = 0.1489

  Important amplitudes:
      occ i      occ j       vir a       vir b          v   
    ---------------------------------------------------------
     2 (B2) A              10 (A1) A                  0.6435
     2 (B2) A               9 (A1) A                 -0.0975
    ---------------------------------------------------------

  Density matrix analysis:
  ------------------------
  NOs
    Occupation of frontier NOs:
       0.9566   0.9941
    Number of electrons: 26.000000
    Number of unpaired electrons: n_u =  2.76431, n_u,nl =  2.12334
    NO participation ratio (PR_NO):  3.944672
  
  
  Mulliken Population Analysis
  Atom      Charge (e)              h+              e-           Del q
  --------------------------------------------------------------------
   1 C       -0.755596        0.037077       -0.573044       -0.535967
   2 C       -0.755596        0.037077       -0.573044       -0.535967
   3 H        0.133321        0.000353        0.011899        0.012252
   4 H        0.133321        0.000353        0.011899        0.012252
   5 H        0.122297        0.001210        0.022526        0.023736
   6 H        0.122297        0.001210        0.022526        0.023736
   7 O       -0.140660        1.415581       -0.531284        0.884297
   8 H        0.140618        0.140649       -0.024989        0.115660
  --------------------------------------------------------------------
  Sum:       -1.000000        1.633510       -1.633510        0.000000
  
  Multipole moment analysis of the density matrix
    Molecular charge:                      -1.000000
    Number of electrons:                   26.000000
      Center of electronic charge [Ang]: [ -0.000000,   0.000000,   0.152441]
    Total nuclear charge:                  25.000000
      Center of nuclear charge [Ang]:    [ -0.000000,  -0.000000,  -0.000000]
    Dipole moment [D]:                     19.037369
      Cartesian components [D]:          [  0.000000,  -0.000000, -19.037369]
    RMS size of the density [Ang]:         4.945292
      Cartesian components [Ang]:        [  0.874245,   0.555640,   4.835584]
  
  Exciton analysis of the difference density matrix
    <r_h> [Ang]:                  [  0.000000,  -0.000000,  -5.965827]
    <r_e> [Ang]:                  [ -0.000000,   0.000000,   0.194485]
    |<r_e - r_h>| [Ang]:            6.160312
    Hole size [Ang]:                2.579335
      Cartesian components [Ang]: [  0.819226,   0.903615,   2.272734]
    Electron size [Ang]:            5.462999
      Cartesian components [Ang]: [  1.789284,   1.504161,   4.937643]

  Transition density matrix analysis:
  -----------------------------------
  
  CT numbers (Mulliken)
    omega =     0.8361
    <Phe> =    -0.0000
  
  Exciton analysis of the transition density matrix
    Trans. dipole moment [D]:             0.003381
      Cartesian components [D]:         [ -0.000000,   0.003381,   0.000000]
    <r_h> [Ang]:                        [ -0.000000,  -0.000000,  -6.398144]
    <r_e> [Ang]:                        [ -0.000000,   0.000000,   3.601160]
    |<r_e - r_h>| [Ang]:                  9.999303
    Hole size [Ang]:                      1.091489
      Cartesian components [Ang]:       [  0.486016,   0.841786,   0.496521]
    Electron size [Ang]:                  3.290095
      Cartesian components [Ang]:       [  2.161314,   1.811660,   1.694501]
    RMS electron-hole separation [Ang]:  10.583178
      Cartesian components [Ang]:       [  2.215269,   1.997477,  10.154129]
    Covariance(r_h, r_e) [Ang^2]:        -0.000760
    Correlation coefficient:             -0.000212
    Center-of-mass size [Ang]:            1.733101
      Cartesian components [Ang]:       [  1.107651,   0.998939,   0.882535]

  Decomposition into state-averaged NTOs
    H- 0 -> L+ 6: -0.5231 ( 54.7%)
    H- 0 -> L+ 0:  0.2820 ( 15.9%)
    H- 0 -> L+ 5: -0.2484 ( 12.3%)
                   omega =  83.6%
  ----------------------------------------------------------------------------


  Excited state 5 (singlet, B2)                                    [converged]
  ----------------------------------------------------------------------------
  Term symbol:  5 (1) B2                                    R^2 =  6.28235e-11

  Total energy:                                           -153.8020235956 a.u.
  Excitation energy:                                               4.254922 eV

  Osc. strength:                                                      0.000000
  Trans. dip. moment [a.u.]:           [   0.000000,   -0.000539,   -0.000000]
  <i|r^2|0> [a.u.]:                    [   0.000000,    0.000000,   -0.000000]

  Dip. moment [a.u.]:                  [   0.000000,    0.000000,   -7.551810]
  Total dipole [Debye]:                                              19.194790
  <r^2> [a.u.]:                        [  70.586388,   34.646994, 2169.974706]
  Total <r^2> [a.u.]:                                              2275.208089

  V1^2 = 0.8411, V2^2 = 0.1589

  Important amplitudes:
      occ i      occ j       vir a       vir b          v   
    ---------------------------------------------------------
     4 (B1) A               2 (A2) A                 -0.6284
     4 (B1) A               1 (A2) A                 -0.1490
    ---------------------------------------------------------

  Density matrix analysis:
  ------------------------
  NOs
    Occupation of frontier NOs:
       0.9568   0.9933
    Number of electrons: 26.000000
    Number of unpaired electrons: n_u =  2.75774, n_u,nl =  2.11729
    NO participation ratio (PR_NO):  3.932142
  
  
  Mulliken Population Analysis
  Atom      Charge (e)              h+              e-           Del q
  --------------------------------------------------------------------
   1 C       -0.638630        0.097710       -0.516710       -0.419000
   2 C       -0.638630        0.097710       -0.516710       -0.419000
   3 H        0.075906        0.001886       -0.047048       -0.045162
   4 H        0.075906        0.001886       -0.047048       -0.045162
   5 H        0.062724        0.002491       -0.038328       -0.035837
   6 H        0.062724        0.002491       -0.038328       -0.035837
   7 O       -0.138469        1.401595       -0.515107        0.886488
   8 H        0.138469        0.137861       -0.024349        0.113511
  --------------------------------------------------------------------
  Sum:       -1.000000        1.743629       -1.743629       -0.000000
  
  Multipole moment analysis of the density matrix
    Molecular charge:                      -1.000000
    Number of electrons:                   26.000000
      Center of electronic charge [Ang]: [ -0.000000,  -0.000000,   0.153702]
    Total nuclear charge:                  25.000000
      Center of nuclear charge [Ang]:    [ -0.000000,  -0.000000,  -0.000000]
    Dipole moment [D]:                     19.194784
      Cartesian components [D]:          [  0.000000,   0.000000, -19.194784]
    RMS size of the density [Ang]:         4.947839
      Cartesian components [Ang]:        [  0.871917,   0.610868,   4.831947]
  
  Exciton analysis of the difference density matrix
    <r_h> [Ang]:                  [  0.000000,  -0.000000,  -5.263245]
    <r_e> [Ang]:                  [ -0.000000,  -0.000000,   0.526808]
    |<r_e - r_h>| [Ang]:            5.790053
    Hole size [Ang]:                3.529934
      Cartesian components [Ang]: [  0.907524,   0.772335,   3.322700]
    Electron size [Ang]:            5.355840
      Cartesian components [Ang]: [  1.770191,   1.706401,   4.758113]

  Transition density matrix analysis:
  -----------------------------------
  
  CT numbers (Mulliken)
    omega =     0.8191
    <Phe> =     0.0000
  
  Exciton analysis of the transition density matrix
    Trans. dipole moment [D]:             0.000686
      Cartesian components [D]:         [  0.000000,  -0.000686,  -0.000000]
    <r_h> [Ang]:                        [ -0.000000,   0.000000,  -6.398237]
    <r_e> [Ang]:                        [ -0.000000,  -0.000000,   3.639447]
    |<r_e - r_h>| [Ang]:                 10.037684
    Hole size [Ang]:                      1.090586
      Cartesian components [Ang]:       [  0.841483,   0.485830,   0.495231]
    Electron size [Ang]:                  3.323526
      Cartesian components [Ang]:       [  2.204741,   2.151502,   1.247390]
    RMS electron-hole separation [Ang]:  10.629645
      Cartesian components [Ang]:       [  2.359676,   2.205661,  10.127010]
    Covariance(r_h, r_e) [Ang^2]:         0.000473
    Correlation coefficient:              0.000130
    Center-of-mass size [Ang]:            1.749010
      Cartesian components [Ang]:       [  1.180029,   1.102842,   0.671050]

  Decomposition into state-averaged NTOs
    H- 1 -> L+ 8:  0.4790 ( 45.9%)
    H- 1 -> L+ 4:  0.4244 ( 36.0%)
                   omega =  81.9%
  ----------------------------------------------------------------------------


  Excited state 6 (singlet, B2)                                    [converged]
  ----------------------------------------------------------------------------
  Term symbol:  6 (1) B2                                    R^2 =  1.85001e-10

  Total energy:                                           -153.7833354762 a.u.
  Excitation energy:                                               4.763452 eV

  Osc. strength:                                                      0.085885
  Trans. dip. moment [a.u.]:           [   0.000000,   -0.857863,   -0.000000]
  <i|r^2|0> [a.u.]:                    [   0.000000,    0.000000,   -0.000000]

  Dip. moment [a.u.]:                  [  -0.000000,   -0.000000,   12.805435]
  Total dipole [Debye]:                                              32.548175
  <r^2> [a.u.]:                        [  59.911842,   22.582507, 2305.820229]
  Total <r^2> [a.u.]:                                              2388.314579

  V1^2 = 0.9093, V2^2 = 0.0907

  Important amplitudes:
      occ i      occ j       vir a       vir b          v   
    ---------------------------------------------------------
     2 (B2) A              13 (A1) A                  0.6211
     2 (B2) A              16 (A1) A                 -0.1911
    ---------------------------------------------------------

  Density matrix analysis:
  ------------------------
  NOs
    Occupation of frontier NOs:
       0.9663   1.0000
    Number of electrons: 26.000000
    Number of unpaired electrons: n_u =  2.68961, n_u,nl =  2.09355
    NO participation ratio (PR_NO):  3.693050
  
  
  Mulliken Population Analysis
  Atom      Charge (e)              h+              e-           Del q
  --------------------------------------------------------------------
   1 C       -0.219547        0.000484       -0.000401        0.000083
   2 C       -0.219547        0.000484       -0.000401        0.000083
   3 H        0.120375       -0.000045       -0.000648       -0.000693
   4 H        0.120375       -0.000045       -0.000648       -0.000693
   5 H        0.099024        0.000449        0.000013        0.000463
   6 H        0.099024        0.000449        0.000013        0.000463
   7 O       -1.774195        1.232517       -1.981755       -0.749238
   8 H        0.774491        0.164905        0.584628        0.749533
  --------------------------------------------------------------------
  Sum:       -1.000000        1.399199       -1.399199        0.000000
  
  Multipole moment analysis of the density matrix
    Molecular charge:                      -1.000000
    Number of electrons:                   26.000000
      Center of electronic charge [Ang]: [  0.000000,   0.000000,  -0.260629]
    Total nuclear charge:                  25.000000
      Center of nuclear charge [Ang]:    [ -0.000000,  -0.000000,  -0.000000]
    Dipole moment [D]:                     32.548165
      Cartesian components [D]:          [ -0.000000,  -0.000000,  32.548165]
    RMS size of the density [Ang]:         5.065077
      Cartesian components [Ang]:        [  0.803287,   0.493174,   4.976596]
  
  Exciton analysis of the difference density matrix
    <r_h> [Ang]:                  [  0.000000,  -0.000000,  -6.442555]
    <r_e> [Ang]:                  [  0.000000,   0.000000,  -6.926322]
    |<r_e - r_h>| [Ang]:            0.483767
    Hole size [Ang]:                1.397538
      Cartesian components [Ang]: [  0.737860,   0.890469,   0.784690]
    Electron size [Ang]:            2.040999
      Cartesian components [Ang]: [  1.134325,   1.124124,   1.270956]

  Transition density matrix analysis:
  -----------------------------------
  
  CT numbers (Mulliken)
    omega =     0.8895
    <Phe> =    -0.0187
  
  Exciton analysis of the transition density matrix
    Trans. dipole moment [D]:             1.090235
      Cartesian components [D]:         [  0.000000,  -1.090235,  -0.000000]
    <r_h> [Ang]:                        [ -0.000000,  -0.000000,  -6.398837]
    <r_e> [Ang]:                        [  0.000000,   0.000000,  -7.189371]
    |<r_e - r_h>| [Ang]:                  0.790535
    Hole size [Ang]:                      1.074496
      Cartesian components [Ang]:       [  0.478640,   0.828856,   0.488306]
    Electron size [Ang]:                  2.200764
      Cartesian components [Ang]:       [  1.251171,   1.249248,   1.310462]
    RMS electron-hole separation [Ang]:   2.571397
      Cartesian components [Ang]:       [  1.339447,   1.495747,   1.606458]
    Covariance(r_h, r_e) [Ang^2]:         0.005381
    Correlation coefficient:              0.002276
    Center-of-mass size [Ang]:            1.225629
      Cartesian components [Ang]:       [  0.669875,   0.751330,   0.699240]

  Decomposition into state-averaged NTOs
    H- 0 -> L+ 2:  0.5694 ( 64.8%)
    H- 0 -> L+ 1:  0.3465 ( 24.0%)
                   omega =  89.0%
  ----------------------------------------------------------------------------


  Excited state 7 (singlet, B2)                                    [converged]
  ----------------------------------------------------------------------------
  Term symbol:  7 (1) B2                                    R^2 =  2.48942e-08

  Total energy:                                           -153.7219732166 a.u.
  Excitation energy:                                               6.433204 eV

  Osc. strength:                                                      0.000449
  Trans. dip. moment [a.u.]:           [   0.000000,    0.053361,    0.000000]
  <i|r^2|0> [a.u.]:                    [  -0.000000,    0.000000,   -0.000000]

  Dip. moment [a.u.]:                  [  -0.000000,   -0.000000,   -7.499553]
  Total dipole [Debye]:                                              19.061965
  <r^2> [a.u.]:                        [  60.059318,   23.405265, 2172.665392]
  Total <r^2> [a.u.]:                                              2256.129974

  V1^2 = 0.8437, V2^2 = 0.1563

  Important amplitudes:
      occ i      occ j       vir a       vir b          v   
    ---------------------------------------------------------
     2 (B2) A              11 (A1) A                 -0.6436
     2 (B2) A   2 (B2) B   11 (A1) A    5 (B2) B     -0.0634
    ---------------------------------------------------------

  Density matrix analysis:
  ------------------------
  NOs
    Occupation of frontier NOs:
       0.9571   0.9866
    Number of electrons: 26.000000
    Number of unpaired electrons: n_u =  2.77479, n_u,nl =  2.12726
    NO participation ratio (PR_NO):  4.001222
  
  
  Mulliken Population Analysis
  Atom      Charge (e)              h+              e-           Del q
  --------------------------------------------------------------------
   1 C       -0.256357        0.069909       -0.106637       -0.036727
   2 C       -0.256357        0.069909       -0.106637       -0.036727
   3 H       -0.109477        0.008256       -0.238801       -0.230545
   4 H       -0.109477        0.008256       -0.238801       -0.230545
   5 H       -0.131392        0.009229       -0.239183       -0.229953
   6 H       -0.131392        0.009229       -0.239183       -0.229953
   7 O       -0.141920        1.400562       -0.517526        0.883037
   8 H        0.136373        0.137197       -0.025782        0.111416
  --------------------------------------------------------------------
  Sum:       -1.000000        1.712549       -1.712549        0.000000
  
  Multipole moment analysis of the density matrix
    Molecular charge:                      -1.000000
    Number of electrons:                   26.000000
      Center of electronic charge [Ang]: [  0.000000,   0.000000,   0.152638]
    Total nuclear charge:                  25.000000
      Center of nuclear charge [Ang]:    [ -0.000000,  -0.000000,  -0.000000]
    Dipole moment [D]:                     19.061959
      Cartesian components [D]:          [ -0.000000,  -0.000000, -19.061959]
    RMS size of the density [Ang]:         4.927064
      Cartesian components [Ang]:        [  0.804275,   0.502078,   4.834979]
  
  Exciton analysis of the difference density matrix
    <r_h> [Ang]:                  [ -0.000000,  -0.000000,  -5.412930]
    <r_e> [Ang]:                  [  0.000000,  -0.000000,   0.466056]
    |<r_e - r_h>| [Ang]:            5.878986
    Hole size [Ang]:                3.374266
      Cartesian components [Ang]: [  0.833574,   0.887733,   3.146864]
    Electron size [Ang]:            5.093702
      Cartesian components [Ang]: [  1.151262,   1.143325,   4.828375]

  Transition density matrix analysis:
  -----------------------------------
  
  CT numbers (Mulliken)
    omega =     0.8265
    <Phe> =    -0.0001
  
  Exciton analysis of the transition density matrix
    Trans. dipole moment [D]:             0.067815
      Cartesian components [D]:         [  0.000000,   0.067815,   0.000000]
    <r_h> [Ang]:                        [ -0.000000,  -0.000000,  -6.397838]
    <r_e> [Ang]:                        [  0.000000,  -0.000000,   3.607114]
    |<r_e - r_h>| [Ang]:                 10.004952
    Hole size [Ang]:                      1.091483
      Cartesian components [Ang]:       [  0.485553,   0.840904,   0.498451]
    Electron size [Ang]:                  2.414000
      Cartesian components [Ang]:       [  1.223308,   1.318895,   1.609791]
    RMS electron-hole separation [Ang]:  10.350006
      Cartesian components [Ang]:       [  1.316131,   1.563363,  10.146246]
    Covariance(r_h, r_e) [Ang^2]:        -0.002413
    Correlation coefficient:             -0.000916
    Center-of-mass size [Ang]:            1.324189
      Cartesian components [Ang]:       [  0.658082,   0.782481,   0.841503]

  Decomposition into state-averaged NTOs
    H- 0 -> L+ 7: -0.6256 ( 78.3%)
    H- 0 -> L+ 5:  0.0919 (  1.7%)
    H- 0 -> L+ 0:  0.0800 (  1.3%)
                   omega =  82.6%
  ----------------------------------------------------------------------------


  Excited state 8 (singlet, B2)                                    [converged]
  ----------------------------------------------------------------------------
  Term symbol:  8 (1) B2                                    R^2 =  2.33850e-09

  Total energy:                                           -153.7186149830 a.u.
  Excitation energy:                                               6.524586 eV

  Osc. strength:                                                      0.075449
  Trans. dip. moment [a.u.]:           [  -0.000000,   -0.687023,    0.000000]
  <i|r^2|0> [a.u.]:                    [   0.000000,    0.000000,    0.000000]

  Dip. moment [a.u.]:                  [   0.000000,   -0.000000,    9.162762]
  Total dipole [Debye]:                                              23.289422
  <r^2> [a.u.]:                        [  58.323823,   21.025275, 2222.468583]
  Total <r^2> [a.u.]:                                              2301.817681

  V1^2 = 0.9152, V2^2 = 0.0848

  Important amplitudes:
      occ i      occ j       vir a       vir b          v   
    ---------------------------------------------------------
     2 (B2) A              16 (A1) A                 -0.6439
     2 (B2) A              13 (A1) A                 -0.1833
    ---------------------------------------------------------

  Density matrix analysis:
  ------------------------
  NOs
    Occupation of frontier NOs:
       0.9685   1.0008
    Number of electrons: 26.000000
    Number of unpaired electrons: n_u =  2.68469, n_u,nl =  2.09286
    NO participation ratio (PR_NO):  3.675174
  
  
  Mulliken Population Analysis
  Atom      Charge (e)              h+              e-           Del q
  --------------------------------------------------------------------
   1 C       -0.220908        0.000949       -0.002227       -0.001278
   2 C       -0.220908        0.000949       -0.002227       -0.001278
   3 H        0.122476        0.001306        0.000102        0.001408
   4 H        0.122476        0.001306        0.000102        0.001408
   5 H        0.094931        0.000188       -0.003818       -0.003630
   6 H        0.094931        0.000188       -0.003818       -0.003630
   7 O       -0.847410        1.274320       -1.096773        0.177547
   8 H       -0.145587        0.102739       -0.273283       -0.170545
  --------------------------------------------------------------------
  Sum:       -1.000000        1.381944       -1.381944        0.000000
  
  Multipole moment analysis of the density matrix
    Molecular charge:                      -1.000000
    Number of electrons:                   26.000000
      Center of electronic charge [Ang]: [ -0.000000,   0.000000,  -0.186489]
    Total nuclear charge:                  25.000000
      Center of nuclear charge [Ang]:    [ -0.000000,  -0.000000,  -0.000000]
    Dipole moment [D]:                     23.289415
      Cartesian components [D]:          [  0.000000,  -0.000000,  23.289415]
    RMS size of the density [Ang]:         4.975596
      Cartesian components [Ang]:        [  0.792570,   0.475867,   4.888961]
  
  Exciton analysis of the difference density matrix
    <r_h> [Ang]:                  [ -0.000000,  -0.000000,  -6.397080]
    <r_e> [Ang]:                  [ -0.000000,   0.000000,  -5.492026]
    |<r_e - r_h>| [Ang]:            0.905054
    Hole size [Ang]:                1.461661
      Cartesian components [Ang]: [  0.735552,   0.884487,   0.901720]
    Electron size [Ang]:            2.039094
      Cartesian components [Ang]: [  0.985279,   0.971270,   1.497920]

  Transition density matrix analysis:
  -----------------------------------
  
  CT numbers (Mulliken)
    omega =     0.8960
    <Phe> =    -0.0176
  
  Exciton analysis of the transition density matrix
    Trans. dipole moment [D]:             0.873119
      Cartesian components [D]:         [ -0.000000,  -0.873119,   0.000000]
    <r_h> [Ang]:                        [ -0.000000,  -0.000000,  -6.396106]
    <r_e> [Ang]:                        [ -0.000000,   0.000000,  -5.170669]
    |<r_e - r_h>| [Ang]:                  1.225438
    Hole size [Ang]:                      1.073522
      Cartesian components [Ang]:       [  0.478184,   0.827945,   0.488157]
    Electron size [Ang]:                  2.060292
      Cartesian components [Ang]:       [  1.066799,   1.066849,   1.403060]
    RMS electron-hole separation [Ang]:   2.625060
      Cartesian components [Ang]:       [  1.168760,   1.348345,   1.925334]
    Covariance(r_h, r_e) [Ang^2]:         0.004005
    Correlation coefficient:              0.001811
    Center-of-mass size [Ang]:            1.162461
      Cartesian components [Ang]:       [  0.584688,   0.676256,   0.743058]

  Decomposition into state-averaged NTOs
    H- 0 -> L+ 1:  0.5725 ( 65.5%)
    H- 0 -> L+ 2: -0.3427 ( 23.5%)
                   omega =  89.6%
  ----------------------------------------------------------------------------


  Excited state 9 (singlet, B2)                                    [converged]
  ----------------------------------------------------------------------------
  Term symbol:  9 (1) B2                                    R^2 =  6.28813e-06

  Total energy:                                           -153.7138490591 a.u.
  Excitation energy:                                               6.654273 eV

  Osc. strength:                                                      0.000000
  Trans. dip. moment [a.u.]:           [   0.000000,    0.000199,   -0.000000]
  <i|r^2|0> [a.u.]:                    [   0.000000,    0.000000,    0.000000]

  Dip. moment [a.u.]:                  [  -0.000000,   -0.000000,   -7.561546]
  Total dipole [Debye]:                                              19.219537
  <r^2> [a.u.]:                        [  64.614168,   47.260904, 2172.025749]
  Total <r^2> [a.u.]:                                              2283.900821

  V1^2 = 0.8570, V2^2 = 0.1430

  Important amplitudes:
      occ i      occ j       vir a       vir b          v   
    ---------------------------------------------------------
     7 (A1) A               3 (B2) A                 -0.6528
     7 (A1) A   2 (B2) B    3 (B2) A    5 (B2) B     -0.0557
    ---------------------------------------------------------

  Density matrix analysis:
  ------------------------
  NOs
    Occupation of frontier NOs:
       0.9736   0.9970
    Number of electrons: 26.000000
    Number of unpaired electrons: n_u =  2.80557, n_u,nl =  2.14017
    NO participation ratio (PR_NO):  3.975746
  
  
  Mulliken Population Analysis
  Atom      Charge (e)              h+              e-           Del q
  --------------------------------------------------------------------
   1 C       -0.687739        0.025828       -0.493938       -0.468109
   2 C       -0.687739        0.025828       -0.493938       -0.468109
   3 H        0.099703       -0.001251       -0.020114       -0.021365
   4 H        0.099703       -0.001251       -0.020114       -0.021365
   5 H        0.088035       -0.001357       -0.009169       -0.010525
   6 H        0.088035       -0.001357       -0.009169       -0.010525
   7 O       -0.326688        1.242199       -0.543930        0.698269
   8 H        0.326688        0.319935       -0.018204        0.301731
  --------------------------------------------------------------------
  Sum:       -1.000000        1.608574       -1.608574       -0.000000
  
  Multipole moment analysis of the density matrix
    Molecular charge:                      -1.000000
    Number of electrons:                   26.000000
      Center of electronic charge [Ang]: [  0.000000,   0.000000,   0.153900]
    Total nuclear charge:                  25.000000
      Center of nuclear charge [Ang]:    [ -0.000000,  -0.000000,  -0.000000]
    Dipole moment [D]:                     19.219531
      Cartesian components [D]:          [ -0.000000,  -0.000000, -19.219531]
    RMS size of the density [Ang]:         4.957285
      Cartesian components [Ang]:        [  0.834216,   0.713453,   4.834226]
  
  Exciton analysis of the difference density matrix
    <r_h> [Ang]:                  [  0.000000,  -0.000000,  -6.159195]
    <r_e> [Ang]:                  [  0.000000,   0.000000,   0.120189]
    |<r_e - r_h>| [Ang]:            6.279385
    Hole size [Ang]:                2.195992
      Cartesian components [Ang]: [  0.793467,   0.782179,   1.892350]
    Electron size [Ang]:            5.667181
      Cartesian components [Ang]: [  1.447009,   2.305947,   4.970485]

  Transition density matrix analysis:
  -----------------------------------
  
  CT numbers (Mulliken)
    omega =     0.8399
    <Phe> =     0.0001
  
  Exciton analysis of the transition density matrix
    Trans. dipole moment [D]:             0.000253
      Cartesian components [D]:         [  0.000000,   0.000253,  -0.000000]
    <r_h> [Ang]:                        [ -0.000000,   0.000000,  -6.448821]
    <r_e> [Ang]:                        [  0.000000,   0.000000,   3.639047]
    |<r_e - r_h>| [Ang]:                 10.087868
    Hole size [Ang]:                      1.010840
      Cartesian components [Ang]:       [  0.421094,   0.421116,   0.816785]
    Electron size [Ang]:                  3.710731
      Cartesian components [Ang]:       [  1.697215,   2.857199,   1.650879]
    RMS electron-hole separation [Ang]:  10.796660
      Cartesian components [Ang]:       [  1.748770,   2.888462,  10.255069]
    Covariance(r_h, r_e) [Ang^2]:        -0.005722
    Correlation coefficient:             -0.001526
    Center-of-mass size [Ang]:            1.922230
      Cartesian components [Ang]:       [  0.874288,   1.443835,   0.919745]

  Decomposition into state-averaged NTOs
    H- 3 -> L+ 3:  0.6480 ( 84.0%)
                   omega =  84.0%
  ----------------------------------------------------------------------------


  Excited state 10 (singlet, B2)                                    [converged]
  ----------------------------------------------------------------------------
  Term symbol:  10 (1) B2                                   R^2 =  4.16075e-09

  Total energy:                                           -153.6747061425 a.u.
  Excitation energy:                                               7.719406 eV

  Osc. strength:                                                      0.129221
  Trans. dip. moment [a.u.]:           [  -0.000000,    0.826602,    0.000000]
  <i|r^2|0> [a.u.]:                    [  -0.000000,    0.000000,    0.000000]

  Dip. moment [a.u.]:                  [  -0.000000,    0.000000,    9.497138]
  Total dipole [Debye]:                                              24.139321
  <r^2> [a.u.]:                        [  64.544857,   25.452457, 2305.260878]
  Total <r^2> [a.u.]:                                              2395.258192

  V1^2 = 0.9528, V2^2 = 0.0472

  Important amplitudes:
      occ i      occ j       vir a       vir b          v   
    ---------------------------------------------------------
     1 (B2) A               8 (A1) A                 -0.5766
     1 (B2) A              10 (A1) A                  0.3270
    ---------------------------------------------------------

  Density matrix analysis:
  ------------------------
  NOs
    Occupation of frontier NOs:
       0.9824   0.9913
    Number of electrons: 26.000000
    Number of unpaired electrons: n_u =  2.59348, n_u,nl =  2.06334
    NO participation ratio (PR_NO):  3.424130
  
  
  Mulliken Population Analysis
  Atom      Charge (e)              h+              e-           Del q
  --------------------------------------------------------------------
   1 C       -0.377254        0.525945       -0.683569       -0.157624
   2 C       -0.377254        0.525945       -0.683569       -0.157624
   3 H        0.198528        0.060439        0.017020        0.077459
   4 H        0.198528        0.060439        0.017020        0.077459
   5 H        0.178726        0.097171       -0.017006        0.080165
   6 H        0.178726        0.097171       -0.017006        0.080165
   7 O       -1.025927        0.000825       -0.001795       -0.000970
   8 H        0.025928        0.001188       -0.000218        0.000970
  --------------------------------------------------------------------
  Sum:       -1.000000        1.369122       -1.369122       -0.000000
  
  Multipole moment analysis of the density matrix
    Molecular charge:                      -1.000000
    Number of electrons:                   26.000000
      Center of electronic charge [Ang]: [  0.000000,  -0.000000,  -0.193295]
    Total nuclear charge:                  25.000000
      Center of nuclear charge [Ang]:    [ -0.000000,  -0.000000,  -0.000000]
    Dipole moment [D]:                     24.139314
      Cartesian components [D]:          [ -0.000000,   0.000000,  24.139314]
    RMS size of the density [Ang]:         5.075466
      Cartesian components [Ang]:        [  0.833768,   0.523575,   4.979061]
  
  Exciton analysis of the difference density matrix
    <r_h> [Ang]:                  [  0.000000,  -0.000000,   3.673577]
    <r_e> [Ang]:                  [  0.000000,  -0.000000,   4.457867]
    |<r_e - r_h>| [Ang]:            0.784290
    Hole size [Ang]:                1.586515
      Cartesian components [Ang]: [  1.006951,   0.869568,   0.864253]
    Electron size [Ang]:            2.535838
      Cartesian components [Ang]: [  1.649275,   1.350630,   1.373376]

  Transition density matrix analysis:
  -----------------------------------
  
  CT numbers (Mulliken)
    omega =     0.9213
    <Phe> =    -0.0117
  
  Exciton analysis of the transition density matrix
    Trans. dipole moment [D]:             1.050506
      Cartesian components [D]:         [ -0.000000,   1.050506,   0.000000]
    <r_h> [Ang]:                        [  0.000000,   0.000000,   3.640991]
    <r_e> [Ang]:                        [  0.000000,  -0.000000,   4.787566]
    |<r_e - r_h>| [Ang]:                  1.146575
    Hole size [Ang]:                      1.254359
      Cartesian components [Ang]:       [  0.755976,   0.861536,   0.509580]
    Electron size [Ang]:                  2.756252
      Cartesian components [Ang]:       [  1.840931,   1.541637,   1.353239]
    RMS electron-hole separation [Ang]:   3.228245
      Cartesian components [Ang]:       [  1.983030,   1.756645,   1.844818]
    Covariance(r_h, r_e) [Ang^2]:         0.031707
    Correlation coefficient:              0.009171
    Center-of-mass size [Ang]:            1.519355
      Cartesian components [Ang]:       [  0.998580,   0.887690,   0.723384]

  Decomposition into state-averaged NTOs
    H- 2 -> L+ 0: -0.6775 ( 91.8%)
                   omega =  92.1%
  ----------------------------------------------------------------------------


--------------------------------------------------------------------------------
  Time of ADC calculation:  CPU 223.18 s  wall 61.49 s
================================================================================
 
 --------------------------------------------------------------
             Orbital Energies (a.u.) and Symmetries
 --------------------------------------------------------------
 
 Alpha MOs, Restricted
 -- Occupied --                  
-20.199 -11.183 -11.181  -0.988  -0.904  -0.728  -0.606  -0.513
  1 A1    2 A1    1 B1    3 A1    4 A1    2 B1    5 A1    6 A1                 
 -0.461  -0.323  -0.251  -0.108  -0.108
  3 B1    1 B2    7 A1    4 B1    2 B2                                         
 -- Virtual --                   
  0.122   0.135   0.144   0.147   0.150   0.171   0.192   0.237
  5 B1    8 A1    9 A1    3 B2    1 A2    6 B1   10 A1    2 A2                 
  0.266   0.316   0.371   0.373   0.380   0.398   0.406   0.412
  7 B1   11 A1   12 A1    8 B1   13 A1   14 A1   15 A1    4 B2                 
  0.419   0.426   0.443   0.443   0.454   0.495   0.584   0.604
  9 B1   10 B1   11 B1    5 B2   16 A1    3 A2   17 A1   12 B1                 
  0.670   0.888   0.905   0.989   1.011   1.078   1.105   1.113
 13 B1   18 A1   19 A1   14 B1   20 A1   15 B1   21 A1   22 A1                 
  1.168   1.169   1.176   1.192   1.220   1.269   1.269   1.323
  6 B2   23 A1    7 B2   16 B1    4 A2   17 B1    8 B2    5 A2                 
  1.323   1.338   1.341   1.344   1.506   1.544   1.676   1.729
 24 A1    6 A2   18 B1    9 B2   19 B1   25 A1   26 A1   20 B1                 
  1.729   1.736   1.786   1.929   1.973   1.998   2.016   2.071
 10 B2   21 B1   27 A1    7 A2   28 A1   11 B2   22 B1   12 B2                 
  2.127   2.151   2.236   2.376   2.376   2.385   2.466   2.527
 29 A1   30 A1    8 A2   23 B1   13 B2   24 B1    9 A2   31 A1                 
  2.534   2.624   2.634   2.893   2.898   3.030   3.319   3.397
 32 A1   25 B1   26 B1   33 A1   34 A1   35 A1   27 B1   28 B1                 
  3.930   3.930   3.959   3.959   4.401
 29 B1   14 B2   10 A2   36 A1   37 A1                                         
 
 Beta MOs, Restricted
 -- Occupied --                  
-20.199 -11.183 -11.181  -0.988  -0.904  -0.728  -0.606  -0.513
  1 A1    2 A1    1 B1    3 A1    4 A1    2 B1    5 A1    6 A1                 
 -0.461  -0.323  -0.251  -0.108  -0.108
  3 B1    1 B2    7 A1    4 B1    2 B2                                         
 -- Virtual --                   
  0.122   0.135   0.144   0.147   0.150   0.171   0.192   0.237
  5 B1    8 A1    9 A1    3 B2    1 A2    6 B1   10 A1    2 A2                 
  0.266   0.316   0.371   0.373   0.380   0.398   0.406   0.412
  7 B1   11 A1   12 A1    8 B1   13 A1   14 A1   15 A1    4 B2                 
  0.419   0.426   0.443   0.443   0.454   0.495   0.584   0.604
  9 B1   10 B1   11 B1    5 B2   16 A1    3 A2   17 A1   12 B1                 
  0.670   0.888   0.905   0.989   1.011   1.078   1.105   1.113
 13 B1   18 A1   19 A1   14 B1   20 A1   15 B1   21 A1   22 A1                 
  1.168   1.169   1.176   1.192   1.220   1.269   1.269   1.323
  6 B2   23 A1    7 B2   16 B1    4 A2   17 B1    8 B2    5 A2                 
  1.323   1.338   1.341   1.344   1.506   1.544   1.676   1.729
 24 A1    6 A2   18 B1    9 B2   19 B1   25 A1   26 A1   20 B1                 
  1.729   1.736   1.786   1.929   1.973   1.998   2.016   2.071
 10 B2   21 B1   27 A1    7 A2   28 A1   11 B2   22 B1   12 B2                 
  2.127   2.151   2.236   2.376   2.376   2.385   2.466   2.527
 29 A1   30 A1    8 A2   23 B1   13 B2   24 B1    9 A2   31 A1                 
  2.534   2.624   2.634   2.893   2.898   3.030   3.319   3.397
 32 A1   25 B1   26 B1   33 A1   34 A1   35 A1   27 B1   28 B1                 
  3.930   3.930   3.959   3.959   4.401
 29 B1   14 B2   10 A2   36 A1   37 A1                                         
 --------------------------------------------------------------
 
          Ground-State Mulliken Net Atomic Charges

     Atom                 Charge (a.u.)
  ----------------------------------------
      1 C                    -0.204462
      2 C                    -0.204462
      3 H                     0.113498
      4 H                     0.113498
      5 H                     0.090964
      6 H                     0.090964
      7 O                    -1.037331
      8 H                     0.037331
  ----------------------------------------
  Sum of atomic charges =    -1.000000

 -----------------------------------------------------------------
                    Cartesian Multipole Moments
 -----------------------------------------------------------------
    Charge (ESU x 10^10)
                -4.8032
    Dipole Moment (Debye)
         X      -0.0000      Y      -0.0000      Z      29.1971
       Tot      29.1971
    Quadrupole Moments (Debye-Ang)
        XX     -23.0469     XY      -0.0000     YY     -26.2714
        XZ      -0.0000     YZ      -0.0000     ZZ    -199.5118
    Octopole Moments (Debye-Ang^2)
       XXX      -0.0000    XXY      -0.0000    XYY      -0.0000
       YYY      -0.0000    XXZ      17.6197    XYZ      -0.0000
       YYZ       6.0870    XZZ      -0.0000    YZZ      -0.0000
       ZZZ    1094.9177
    Hexadecapole Moments (Debye-Ang^3)
      XXXX     -84.1754   XXXY       0.0000   XXYY     -20.9909
      XYYY      -0.0000   YYYY     -37.8220   XXXZ      -0.0000
      XXYZ      -0.0000   XYYZ      -0.0000   YYYZ       0.0000
      XXZZ    -607.8985   XYZZ      -0.0000   YYZZ    -644.9704
      XZZZ      -0.0000   YZZZ       0.0000   ZZZZ   -9457.5795
 -----------------------------------------------------------------
 Total job time:  170.91s(wall), 272.70s(cpu) 
 Thu Mar  3 19:35:06 2022

        *************************************************************
        *                                                           *
        *  Thank you very much for using Q-Chem.  Have a nice day.  *
        *                                                           *
        *************************************************************


