/src/tsommerfeld/qchem/exe/qcprog.exe .input1.612121.8771.qcin.1 /src/jdavis/qchem.scratch/qchem8771/

                  Welcome to Q-Chem
     A Quantum Leap Into The Future Of Chemistry


 Q-Chem 5.4 (devel), Q-Chem, Inc., Pleasanton, CA (2021)

 E. Epifanovsky,  A. T. B. Gilbert,  Xintian Feng,  Joonho Lee,  Yuezhi Mao,  
 N. Mardirossian,  P. Pokhilko,  A. White,  M. Wormit,  M. P. Coons,  
 A. L. Dempwolff,  Zhengting Gan,  D. Hait,  P. R. Horn,  L. D. Jacobson,  
 I. Kaliman,  J. Kussmann,  A. W. Lange,  Ka Un Lao,  D. S. Levine,  Jie Liu,  
 S. C. McKenzie,  A. F. Morrison,  K. Nanda,  F. Plasser,  D. R. Rehn,  
 M. L. Vidal,  Zhi-Qiang You,  Ying Zhu,  B. Alam,  B. Albrecht,  
 A. Aldossary,  E. Alguire,  J. H. Andersen,  D. Barton,  K. Begam,  A. Behn,  
 Y. A. Bernard,  E. J. Berquist,  H. Burton,  A. Carreras,  K. Carter-Fenk,  
 R. Chakraborty,  A. D. Chien,  K. D. Closser,  V. Cofer-Shabica,  
 S. Dasgupta,  Jia Deng,  M. de Wergifosse,  M. Diedenhofen,  Hainam Do,  
 S. Ehlert,  Po-Tung Fang,  S. Fatehi,  Qingguo Feng,  T. Friedhoff,  
 J. Gayvert,  Qinghui Ge,  G. Gidofalvi,  M. Goldey,  J. Gomes,  
 C. Gonzalez-Espinoza,  S. Gulania,  A. Gunina,  M. W. D. Hanson-Heine,  
 P. H. P. Harbach,  A. W. Hauser,  M. F. Herbst,  M. Hernandez Vera,  
 M. Hodecker,  Z. C. Holden,  S. Houck,  Xunkun Huang,  Kerwin Hui,  
 B. C. Huynh,  M. Ivanov,  Hyunjun Ji,  Hanjie Jiang,  B. Kaduk,  S. Kaehler,  
 K. Khistyaev,  Jaehoon Kim,  P. Klunzinger,  Z. Koczor-Benda,  
 Joong Hoon Koh,  D. Kosenkov,  L. Koulias,  T. Kowalczyk,  C. M. Krauter,  
 K. Kue,  A. Kunitsa,  T. Kus,  A. Landau,  K. V. Lawler,  D. Lefrancois,  
 S. Lehtola,  Rain Li,  Yi-Pei Li,  Jiashu Liang,  M. Liebenthal,  
 Hung-Hsuan Lin,  You-Sheng Lin,  Fenglai Liu,  Kuan-Yu Liu,  
 M. Loipersberger,  A. Luenser,  A. Manjanath,  P. Manohar,  E. Mansoor,  
 S. F. Manzer,  Shan-Ping Mao,  A. V. Marenich,  T. Markovich,  S. Mason,  
 S. A. Maurer,  P. F. McLaughlin,  M. F. S. J. Menger,  J.-M. Mewes,  
 S. A. Mewes,  P. Morgante,  J. W. Mullinax,  K. J. Oosterbaan,  G. Paran,  
 Alexander C. Paul,  Suranjan K. Paul,  F. Pavosevic,  Zheng Pei,  S. Prager,  
 E. I. Proynov,  E. Ramos,  B. Rana,  A. E. Rask,  A. Rettig,  R. M. Richard,  
 F. Rob,  E. Rossomme,  T. Scheele,  M. Scheurer,  M. Schneider,  
 N. Sergueev,  S. M. Sharada,  W. Skomorowski,  D. W. Small,  C. J. Stein,  
 Yu-Chuan Su,  E. J. Sundstrom,  Zhen Tao,  J. Thirman,  T. Tsuchimochi,  
 N. M. Tubman,  S. P. Veccham,  O. Vydrov,  J. Wenzel,  J. Witte,  A. Yamada,  
 Kun Yao,  S. Yeganeh,  S. R. Yost,  A. Zech,  Igor Ying Zhang,  Xing Zhang,  
 Yu Zhang,  D. Zuev,  A. Aspuru-Guzik,  A. T. Bell,  N. A. Besley,  
 K. B. Bravaya,  B. R. Brooks,  D. Casanova,  Jeng-Da Chai,  S. Coriani,  
 C. J. Cramer,  A. E. DePrince, III,  R. A. DiStasio Jr.,  A. Dreuw,  
 B. D. Dunietz,  T. R. Furlani,  W. A. Goddard III,  S. Grimme,  
 S. Hammes-Schiffer,  T. Head-Gordon,  W. J. Hehre,  Chao-Ping Hsu,  
 T.-C. Jagau,  Yousung Jung,  A. Klamt,  Jing Kong,  D. S. Lambrecht,  
 WanZhen Liang,  N. J. Mayhall,  C. W. McCurdy,  J. B. Neaton,  
 C. Ochsenfeld,  J. A. Parkhill,  R. Peverati,  V. A. Rassolov,  Yihan Shao,  
 L. V. Slipchenko,  T. Stauch,  R. P. Steele,  J. E. Subotnik,  
 A. J. W. Thom,  A. Tkatchenko,  D. G. Truhlar,  T. Van Voorhis,  
 T. A. Wesolowski,  K. B. Whaley,  H. L. Woodcock III,  P. M. Zimmerman,  
 S. Faraji,  P. M. W. Gill,  M. Head-Gordon,  J. M. Herbert,  A. I. Krylov

 Additional authors for Version 5.4.1: 
 S. Kotaru,  Shaozhi Li,  Xiangyuan Li,  F. Matz,  A. Molle,  Haisheng Ren,  
 Yingli Su,  Hung-Yi Tsai,  C. Utku,  Fang Wang

 Contributors to earlier versions of Q-Chem not listed above: 
 R. D. Adamson,  B. Austin,  R. Baer,  J. Baker,  G. J. O. Beran,  
 K. Brandhorst,  S. T. Brown,  E. F. C. Byrd,  A. K. Chakraborty,  
 G. K. L. Chan,  Chun-Min Chang,  Yunqing Chen,  C.-L. Cheng,  
 Siu Hung Chien,  D. M. Chipman,  D. L. Crittenden,  H. Dachsel,  
 R. J. Doerksen,  A. D. Dutoi,  R. G. Edgar,  J. Fosso-Tande,  
 L. Fusti-Molnar,  D. Ghosh,  A. Ghysels,  A. Golubeva-Zadorozhnaya,  
 J. Gonthier,  M. S. Gordon,  S. R. Gwaltney,  G. Hawkins,  J. E. Herr,  
 A. Heyden,  S. Hirata,  E. G. Hohenstein,  G. Kedziora,  F. J. Keil,  
 C. Kelley,  Jihan Kim,  R. A. King,  R. Z. Khaliullin,  P. P. Korambath,  
 W. Kurlancheek,  A. Laurent,  A. M. Lee,  M. S. Lee,  S. V. Levchenko,  
 Ching Yeh Lin,  D. Liotard,  E. Livshits,  R. C. Lochan,  I. Lotan,  
 L. A. Martinez-Martinez,  P. E. Maslen,  N. Nair,  D. P. O'Neill,  
 D. Neuhauser,  E. Neuscamman,  C. M. Oana,  R. Olivares-Amaya,  R. Olson,  
 T. M. Perrine,  B. Peters,  P. A. Pieniazek,  A. Prociuk,  Y. M. Rhee,  
 J. Ritchie,  M. A. Rohrdanz,  E. Rosta,  N. J. Russ,  H. F. Schaefer III,  
 M. W. Schmidt,  N. E. Schultz,  S. Sharma,  N. Shenvi,  C. D. Sherrill,  
 A. C. Simmonett,  A. Sodt,  T. Stein,  D. Stuck,  K. S. Thanthiriwatte,  
 V. Vanovschi,  L. Vogt,  Tao Wang,  A. Warshel,  M. A. Watson,  
 C. F. Williams,  Q. Wu,  X. Xu,  Jun Yang,  W. Zhang,  Yan Zhao

 Please cite Q-Chem as follows:
 Y. Shao et al., Mol. Phys. 113, 184-215 (2015)
 DOI: 10.1080/00268976.2014.952696

 Q-Chem 5.4.1 for Intel X86 EM64T Linux

 Parts of Q-Chem use Armadillo 9.900.5 (Nocturnal Misbehaviour).
 http://arma.sourceforge.net/

 Q-Chem begins on Thu Mar  3 19:15:08 2022  

 Host: node01
0

     Scratch files written to /src/jdavis/qchem.scratch/qchem8771//
 Processing $rem in /src/tsommerfeld/qchem/config/preferences:
 Processing $rem in /home/jdavis/.qchemrc:

 Checking the input file for inconsistencies... 	...done.

--------------------------------------------------------------
User input:
--------------------------------------------------------------
$molecule
-1 1
C        -0.6645000000    0.0000000000    1.1619088658
C         0.6645000000    0.0000000000    1.1619088658
H        -1.1590800000    0.0000000000    0.1995598658
H         1.1590800000    0.0000000000    0.1995598658
H        -1.1590800000    0.0000000000    2.1242568658
H         1.1590800000    0.0000000000    2.1242568658
O         0.0000000000    0.0000000000   -8.84
H         0.0000000000    0.0000000000   -9.81
$end
$rem
   METHOD adc(2)
   BASIS gen
   PURECART 11
   EE_STATES [0,0,0,10]
   scf_convergence 8
   ADC_DAVIDSON_MAXITER 120
   ADC_DAVIDSON_MAXSUBSPACE 200
   adc_nguess_singles 100
   THRESH 14
   S2THRESH 14
   adc_davidson_conv 5
   adc_davidson_thresh 14
   THREADS 10
   MEM_TOTAL 95000
   STATE_ANALYSIS TRUE
$end
$basis
C 1
S   9   1.00
      6.665000D+03           6.920000D-04
      1.000000D+03           5.329000D-03
      2.280000D+02           2.707700D-02
      6.471000D+01           1.017180D-01
      2.106000D+01           2.747400D-01
      7.495000D+00           4.485640D-01
      2.797000D+00           2.850740D-01
      5.215000D-01           1.520400D-02
      1.596000D-01          -3.191000D-03
S   9   1.00
      6.665000D+03          -1.460000D-04
      1.000000D+03          -1.154000D-03
      2.280000D+02          -5.725000D-03
      6.471000D+01          -2.331200D-02
      2.106000D+01          -6.395500D-02
      7.495000D+00          -1.499810D-01
      2.797000D+00          -1.272620D-01
      5.215000D-01           5.445290D-01
      1.596000D-01           5.804960D-01
S   1   1.00
      1.596000D-01           1.000000D+00
S   1   1.00
      0.0469000              1.0000000
P   4   1.00
      9.439000D+00           3.810900D-02
      2.002000D+00           2.094800D-01
      5.456000D-01           5.085570D-01
      1.517000D-01           4.688420D-01
P   1   1.00
      1.517000D-01           1.000000D+00
P   1   1.00
      0.0698739      1.0000000
P   1   1.00
      0.034937      1.0000000
D   1   1.00
      5.500000D-01           1.0000000
****
C 2
S   9   1.00
      6.665000D+03           6.920000D-04
      1.000000D+03           5.329000D-03
      2.280000D+02           2.707700D-02
      6.471000D+01           1.017180D-01
      2.106000D+01           2.747400D-01
      7.495000D+00           4.485640D-01
      2.797000D+00           2.850740D-01
      5.215000D-01           1.520400D-02
      1.596000D-01          -3.191000D-03
S   9   1.00
      6.665000D+03          -1.460000D-04
      1.000000D+03          -1.154000D-03
      2.280000D+02          -5.725000D-03
      6.471000D+01          -2.331200D-02
      2.106000D+01          -6.395500D-02
      7.495000D+00          -1.499810D-01
      2.797000D+00          -1.272620D-01
      5.215000D-01           5.445290D-01
      1.596000D-01           5.804960D-01
S   1   1.00
      1.596000D-01           1.000000D+00
S   1   1.00
      0.0469000              1.0000000
P   4   1.00
      9.439000D+00           3.810900D-02
      2.002000D+00           2.094800D-01
      5.456000D-01           5.085570D-01
      1.517000D-01           4.688420D-01
P   1   1.00
      1.517000D-01           1.000000D+00
P   1   1.00
      0.0698739      1.0000000
P   1   1.00
      0.034937      1.0000000
D   1   1.00
      5.500000D-01           1.0000000
****
H 3
cc-pVDZ
****
H 4
cc-pVDZ
****
H 5
cc-pVDZ
****
H 6
cc-pVDZ
****
O 7
aug-cc-pVDZ
****
H 8
cc-pVDZ
****
$end
--------------------------------------------------------------
 ----------------------------------------------------------------
             Standard Nuclear Orientation (Angstroms)
    I     Atom           X                Y                Z
 ----------------------------------------------------------------
    1      C      -0.6645000000     0.0000000000     3.6394872717
    2      C       0.6645000000    -0.0000000000     3.6394872717
    3      H      -1.1590800000     0.0000000000     2.6771382717
    4      H       1.1590800000    -0.0000000000     2.6771382717
    5      H      -1.1590800000     0.0000000000     4.6018352717
    6      H       1.1590800000    -0.0000000000     4.6018352717
    7      O      -0.0000000000     0.0000000000    -6.3624215941
    8      H      -0.0000000000     0.0000000000    -7.3324215941
 ----------------------------------------------------------------
 Molecular Point Group                 C2v   NOp =  4
 Largest Abelian Subgroup              C2v   NOp =  4
 Nuclear Repulsion Energy =          45.48950572 hartrees
 There are       13 alpha and       13 beta electrons
 Requested basis set is non-standard
 There are 42 shells and 90 basis functions
 Total memory of 95000 MB is distributed as follows: 
   MEM_STATIC is set to 192 MB
   QALLOC/CCMAN JOB total memory use is  94808 MB
 Warning: actual memory use might exceed 95000 MB

 Total QAlloc Memory Limit  95000 MB
 Mega-Array Size       188 MB
 MEM_STATIC part       192 MB

                       Distance Matrix (Angstroms)
             C (  1)   C (  2)   H (  3)   H (  4)   H (  5)   H (  6)
   C (  2)  1.329000
   H (  3)  1.082000  2.061931
   H (  4)  2.061931  1.082000  2.318160
   H (  5)  1.082000  2.061931  1.924697  3.013026
   H (  6)  2.061931  1.082000  3.013026  1.924697  2.318160
   O (  7) 10.023958 10.023958  9.113567  9.113567 11.025352 11.025352
   H (  8) 10.992013 10.992013 10.076446 10.076446 11.990411 11.990411
             O (  7)
   H (  8)  0.970000
 
 A cutoff of  1.0D-14 yielded    667 shell pairs
 There are      3043 function pairs (      3287 Cartesian)
 Smallest overlap matrix eigenvalue = 2.57E-04

 Scale SEOQF with 1.000000e-01/1.000000e-01/1.000000e-02

 Standard Electronic Orientation quadrupole field applied
 Nucleus-field energy     =    -0.0000000060 hartrees
 ================ Generating on-the-fly SAD Guess ================
Attempting to make child job directory: /src/jdavis/qchem.scratch/qchem8771//Frg1/
Attempting to make child job directory: /src/jdavis/qchem.scratch/qchem8771//Frg2/
Attempting to make child job directory: /src/jdavis/qchem.scratch/qchem8771//Frg3/
Creating input file /src/jdavis/qchem.scratch/qchem8771/Frg1.input
using default PutDataFrgm: nothing
calling putenv with: QCSCRATCH=/src/jdavis/qchem.scratch/qchem8771/ 
Spawning Job For Fragment 0
Done Job For Fragment 0
calling putenv with: QCSCRATCH=/src/jdavis/qchem.scratch 
calling putenv with: QCTHREADS=1 
Creating input file /src/jdavis/qchem.scratch/qchem8771/Frg2.input
using default PutDataFrgm: nothing
calling putenv with: QCSCRATCH=/src/jdavis/qchem.scratch/qchem8771/ 
Spawning Job For Fragment 1
Done Job For Fragment 1
calling putenv with: QCSCRATCH=/src/jdavis/qchem.scratch 
calling putenv with: QCTHREADS=1 
Creating input file /src/jdavis/qchem.scratch/qchem8771/Frg3.input
using default PutDataFrgm: nothing
calling putenv with: QCSCRATCH=/src/jdavis/qchem.scratch/qchem8771/ 
Spawning Job For Fragment 2
Done Job For Fragment 2
calling putenv with: QCSCRATCH=/src/jdavis/qchem.scratch 
calling putenv with: QCTHREADS=1 
 Time for running child jobs:  CPU 1.77 s  wall 80.82 s
 ============= Method Specific SAD Guess Constructed =============
 Guess from on-the-fly superposition of atomic densities
 Warning: Energy on first SCF cycle will be non-variational
 A restricted Hartree-Fock SCF calculation will be
 performed using Pulay DIIS extrapolation
 SCF converges when DIIS error is below 1.0E-08
 using 10 threads for integral computing
 -------------------------------------------------------
 OpenMP Integral computing Module                
 Release: version 1.0, May 2013, Q-Chem Inc. Pittsburgh 
 -------------------------------------------------------
 ---------------------------------------
  Cycle       Energy         DIIS Error
 ---------------------------------------
    1    -153.5098517855      5.93E-02
    2    -153.2822130151      1.22E-02
    3    -153.3438671888      1.06E-02
    4    -153.4321020682      6.44E-04
    5    -153.4328418521      1.83E-04
    6    -153.4328893388      3.81E-05
    7    -153.4328919630      9.25E-06
    8    -153.4328922421      2.63E-06
    9    -153.4328922638      4.37E-07
   10    -153.4328922644      5.78E-08
   11    -153.4328922644      1.19E-08
   12    -153.4328922644      2.97E-09 Convergence criterion met
 ---------------------------------------
 SCF time:  CPU 12.15 s  wall 1.22 s
 SCF   energy in the final basis set = -153.43289226
 Total energy in the final basis set = -153.43289226
================================================================================
|                                                                              |
|                                 A D C  M A N                                 |
|                                                                              |
 ------------------------------------------------------------------------------ 
|                                                                              |
| Components:                                                                  |
|                                                                              |
| - libvmm - 1.3-trunk                                                         |
|   Authors:                                                                   |
|   Evgeny Epifanovsky, Ilya Kaliman                                           |
|                                                                              |
| - libtensor - 2.5-trunk                                                      |
|   Authors:                                                                   |
|   Evgeny Epifanovsky, Michael Wormit, Dmitry Zuev, Sam Manzer,               |
|   Ilya Kaliman                                                               |
|                                                                              |
| - libwfa - 1.1-trunk                                                         |
|   Authors:                                                                   |
|   Felix Plasser, Stefanie Mewes (Baeppler), Benjamin Thomitzni,              |
|   Michael Wormit, Feng Chen, Anna I. Krylov, Pavel Pokhilko                  |
|                                                                              |
| - libadc - 1.1-trunk                                                         |
|   Authors:                                                                   |
|   Michael Wormit, Adrian L. Dempwolff, Philipp H. P. Harbach,                |
|   Caroline Krauter, Dirk Rehn, Matthias Schneider, Jan Wenzel                |
|                                                                              |
| - adcman - 2.6-trunk                                                         |
|   Authors:                                                                   |
|   Michael Wormit, Adrian L. Dempwolff, Philipp H. P. Harbach,                |
|   Caroline Krauter, Daniel Lefrancois, Jan-Michael Mewes, Dirk Rehn,         |
|   Matthias Schneider, Jan Wenzel, Andreas Dreuw                              |
|                                                                              |
| Authors of earlier versions of ADCMAN:                                       |
| Andreas Dreuw, Jan Hendrik Starcke, Dirk Rehn, Michael Wormit                |
|                                                                              |
================================================================================

 
 Alpha MOs, Restricted
 -- Occupied --                  
-20.199 -11.183 -11.181  -0.988  -0.904  -0.728  -0.606  -0.513
  1 A1    2 A1    1 B1    3 A1    4 A1    2 B1    5 A1    6 A1                 
 -0.461  -0.323  -0.251  -0.108  -0.108
  3 B1    1 B2    7 A1    2 B2    4 B1                                         
 -- Virtual --                   
  0.112   0.127   0.134   0.136   0.141   0.155   0.182   0.222
  5 B1    8 A1    3 B2    9 A1    1 A2    6 B1   10 A1    2 A2                 
  0.254   0.316   0.342   0.354   0.361   0.367   0.369   0.380
  7 B1   11 A1   12 A1    8 B1   13 A1    9 B1    4 B2   14 A1                 
  0.395   0.422   0.443   0.443   0.450   0.455   0.584   0.608
 15 A1   10 B1    5 B2   11 B1    3 A2   16 A1   17 A1   12 B1                 
  0.661   0.877   0.911   0.964   0.987   1.035   1.095   1.097
 13 B1   18 A1   19 A1   20 A1   14 B1   21 A1   15 B1   22 A1                 
  1.110   1.153   1.164   1.168   1.169   1.269   1.269   1.322
  6 B2    4 A2   16 B1    7 B2   23 A1   17 B1    8 B2   18 B1                 
  1.323   1.323   1.338   1.341   1.461   1.544   1.672   1.693
  5 A2   24 A1    6 A2    9 B2   19 B1   25 A1   26 A1   20 B1                 
  1.729   1.729   1.777   1.923   1.973   1.997   2.006   2.071
 10 B2   21 B1   27 A1    7 A2   28 A1   11 B2   22 B1   12 B2                 
  2.108   2.141   2.233   2.376   2.376   2.379   2.466   2.519
 29 A1   30 A1    8 A2   23 B1   13 B2   24 B1    9 A2   31 A1                 
  2.534   2.631   2.636   2.871   2.880   3.030   3.305   3.393
 32 A1   25 B1   26 B1   33 A1   34 A1   35 A1   27 B1   28 B1                 
  3.930   3.930   3.959   3.959   4.401
 29 B1   14 B2   10 A2   36 A1   37 A1                                         
 
 Beta MOs, Restricted
 -- Occupied --                  
-20.199 -11.183 -11.181  -0.988  -0.904  -0.728  -0.606  -0.513
  1 A1    2 A1    1 B1    3 A1    4 A1    2 B1    5 A1    6 A1                 
 -0.461  -0.323  -0.251  -0.108  -0.108
  3 B1    1 B2    7 A1    2 B2    4 B1                                         
 -- Virtual --                   
  0.112   0.127   0.134   0.136   0.141   0.155   0.182   0.222
  5 B1    8 A1    3 B2    9 A1    1 A2    6 B1   10 A1    2 A2                 
  0.254   0.316   0.342   0.354   0.361   0.367   0.369   0.380
  7 B1   11 A1   12 A1    8 B1   13 A1    9 B1    4 B2   14 A1                 
  0.395   0.422   0.443   0.443   0.450   0.455   0.584   0.608
 15 A1   10 B1    5 B2   11 B1    3 A2   16 A1   17 A1   12 B1                 
  0.661   0.877   0.911   0.964   0.987   1.035   1.095   1.097
 13 B1   18 A1   19 A1   20 A1   14 B1   21 A1   15 B1   22 A1                 
  1.110   1.153   1.164   1.168   1.169   1.269   1.269   1.322
  6 B2    4 A2   16 B1    7 B2   23 A1   17 B1    8 B2   18 B1                 
  1.323   1.323   1.338   1.341   1.461   1.544   1.672   1.693
  5 A2   24 A1    6 A2    9 B2   19 B1   25 A1   26 A1   20 B1                 
  1.729   1.729   1.777   1.923   1.973   1.997   2.006   2.071
 10 B2   21 B1   27 A1    7 A2   28 A1   11 B2   22 B1   12 B2                 
  2.108   2.141   2.233   2.376   2.376   2.379   2.466   2.519
 29 A1   30 A1    8 A2   23 B1   13 B2   24 B1    9 A2   31 A1                 
  2.534   2.631   2.636   2.871   2.880   3.030   3.305   3.393
 32 A1   25 B1   26 B1   33 A1   34 A1   35 A1   27 B1   28 B1                 
  3.930   3.930   3.959   3.959   4.401
 29 B1   14 B2   10 A2   36 A1   37 A1                                         

--------------------------------------------------------------------------------
                                   HF Summary                                   
--------------------------------------------------------------------------------
  Energy:                                                 -153.4328922644 a.u.
  Dip. moment [a.u.]:                  [   0.000000,   -0.000000,   11.487054]
  Total dipole [Debye]:                                              29.197184
  <r^2> [a.u.]:                        [  55.253507,   19.522360, 2266.854716]
  Total <r^2> [a.u.]:                                              2341.630584
--------------------------------------------------------------------------------

--------------------------------------------------------------------------------
                                 MP(2) Summary                                  
--------------------------------------------------------------------------------
  MP energy contribution:                                   -0.5248837386 a.u.
  Total energy:                                           -153.9577760030 a.u.
  Dip. moment [a.u.]:                  [   0.000000,    0.000000,   11.526317]
  Total dipole [Debye]:                                              29.296980
  <r^2> [a.u.]:                        [  56.210154,   20.221259, 2268.513669]
  Total <r^2> [a.u.]:                                              2344.945081

  Density matrix analysis:
  ------------------------
  NOs
    Occupation of frontier NOs:
       0.0447   1.9371
    Number of electrons: 26.000000
    Number of unpaired electrons: n_u =  0.71401, n_u,nl =  0.08551
    NO participation ratio (PR_NO): 22.894411
  
  
  Mulliken Population Analysis
  Atom      Charge (e)              h+              e-           Del q
  --------------------------------------------------------------------
   1 C       -0.196183        0.087700       -0.102557       -0.014858
   2 C       -0.196183        0.087700       -0.102557       -0.014858
   3 H        0.109283        0.017723       -0.010309        0.007414
   4 H        0.109283        0.017723       -0.010309        0.007414
   5 H        0.086899        0.018054       -0.010610        0.007443
   6 H        0.086899        0.018054       -0.010610        0.007443
   7 O       -1.024955        0.282667       -0.270291        0.012375
   8 H        0.024957        0.017596       -0.029970       -0.012374
  --------------------------------------------------------------------
  Sum:       -1.000000        0.547216       -0.547216       -0.000000
  
  Multipole moment analysis of the density matrix
    Molecular charge:                      -1.000000
    Number of electrons:                   26.000000
      Center of electronic charge [Ang]: [ -0.000000,  -0.000000,  -0.234595]
    Total nuclear charge:                  25.000000
      Center of nuclear charge [Ang]:    [ -0.000000,  -0.000000,  -0.000000]
    Dipole moment [D]:                     29.296971
      Cartesian components [D]:          [  0.000000,   0.000000,  29.296971]
    RMS size of the density [Ang]:         5.020039
      Cartesian components [Ang]:        [  0.778076,   0.466679,   4.937368]
  
  Exciton analysis of the difference density matrix
    <r_h> [Ang]:                  [  0.000000,  -0.000000,  -1.860938]
    <r_e> [Ang]:                  [ -0.000000,  -0.000000,  -1.898907]
    |<r_e - r_h>| [Ang]:            0.037969
    Hole size [Ang]:                5.151154
      Cartesian components [Ang]: [  0.821306,   0.711591,   5.035224]
    Electron size [Ang]:            5.299789
      Cartesian components [Ang]: [  1.078931,   0.929522,   5.104867]
--------------------------------------------------------------------------------
  Starting Davidson for singlet states of irrep B2 ... 
--------------------------------------------------------------------------------
   It NVec Conv  Avg. Norm  Max. Norm  Conv. states           Remark
--------------------------------------------------------------------------------
       100    0  1.530e-01  6.081e-01  0.2506 n n n n n n n n Guess.
    1  110    0  1.601e-02  8.978e-02  0.0706 n n n n n n n n 
    2  120    0  3.170e-03  2.154e-02  0.0690 n n n n n n n n 
    3  130    0  1.375e-02  9.774e-02  0.0689 n n n n n n n n 
    4  140    0  2.663e-03  1.813e-02  0.0689 n n n n n n n n 
    5  150    5  3.683e-03  3.668e-02  0.0689 y y y n y y n n 
    6  160    7  3.857e-04  3.849e-03  0.0689 y y y y y y n n 
    7  170    7  3.212e-05  3.205e-04  0.0689 y y y y y y n n 
    8  180    9  2.636e-06  2.632e-05  0.0689 y y y y y y n y 
    9  190   10  2.722e-07  2.719e-06  0.0689 y y y y y y y y Converged.
--------------------------------------------------------------------------------
  Davidson Summary: 
 ------------------------------------------------------------
  State  0: excitation energy =   0.0689 a.u.   (converged)
  State  1: excitation energy =   0.0773 a.u.   (converged)
  State  2: excitation energy =   0.0803 a.u.   (converged)
  State  3: excitation energy =   0.1179 a.u.   (converged)
  State  4: excitation energy =   0.1415 a.u.   (converged)
  State  5: excitation energy =   0.1750 a.u.   (converged)
  State  6: excitation energy =   0.2324 a.u.   (converged)
  State  7: excitation energy =   0.2364 a.u.   (converged)
  State  8: excitation energy =   0.2395 a.u.   (converged)
  State  9: excitation energy =   0.2653 a.u.   (converged)
 ------------------------------------------------------------


--------------------------------------------------------------------------------
                   State-averaged natural transition orbitals
--------------------------------------------------------------------------------
--------------------------------------------------------------------------------

--------------------------------------------------------------------------------
                             Excited State Summary
--------------------------------------------------------------------------------
--------------------------------------------------------------------------------

  Excited state 1 (singlet, B2)                                    [converged]
  ----------------------------------------------------------------------------
  Term symbol:  1 (1) B2                                    R^2 =  6.33086e-11

  Total energy:                                           -153.8888801549 a.u.
  Excitation energy:                                               1.874751 eV

  Osc. strength:                                                      0.000000
  Trans. dip. moment [a.u.]:           [   0.000000,    0.002152,   -0.000000]
  <i|r^2|0> [a.u.]:                    [  -0.000000,   -0.000000,    0.000000]

  Dip. moment [a.u.]:                  [   0.000000,    0.000000,   -7.900045]
  Total dipole [Debye]:                                              20.079916
  <r^2> [a.u.]:                        [  65.942362,   27.190544, 2200.092637]
  Total <r^2> [a.u.]:                                              2293.225542

  V1^2 = 0.8540, V2^2 = 0.1460

  Important amplitudes:
      occ i      occ j       vir a       vir b          v   
    ---------------------------------------------------------
     2 (B2) A               8 (A1) A                 -0.6156
     2 (B2) A               9 (A1) A                  0.2104
    ---------------------------------------------------------

  Density matrix analysis:
  ------------------------
  NOs
    Occupation of frontier NOs:
       0.9566   0.9970
    Number of electrons: 26.000000
    Number of unpaired electrons: n_u =  2.75785, n_u,nl =  2.12184
    NO participation ratio (PR_NO):  3.915419
  
  
  Mulliken Population Analysis
  Atom      Charge (e)              h+              e-           Del q
  --------------------------------------------------------------------
   1 C       -0.653170        0.012574       -0.469561       -0.456986
   2 C       -0.653170        0.012574       -0.469561       -0.456986
   3 H        0.079374        0.000746       -0.030656       -0.029909
   4 H        0.079374        0.000746       -0.030656       -0.029909
   5 H        0.074006        0.008909       -0.021802       -0.012893
   6 H        0.074006        0.008909       -0.021802       -0.012893
   7 O       -0.141185        1.419552       -0.535782        0.883770
   8 H        0.140766        0.140765       -0.024956        0.115809
  --------------------------------------------------------------------
  Sum:       -1.000000        1.604776       -1.604776        0.000000
  
  Multipole moment analysis of the density matrix
    Molecular charge:                      -1.000000
    Number of electrons:                   26.000000
      Center of electronic charge [Ang]: [  0.000000,  -0.000000,   0.160789]
    Total nuclear charge:                  25.000000
      Center of nuclear charge [Ang]:    [ -0.000000,  -0.000000,  -0.000000]
    Dipole moment [D]:                     20.079910
      Cartesian components [D]:          [ -0.000000,   0.000000, -20.079910]
    RMS size of the density [Ang]:         4.967186
      Cartesian components [Ang]:        [  0.842746,   0.541157,   4.865169]
  
  Exciton analysis of the difference density matrix
    <r_h> [Ang]:                  [ -0.000000,   0.000000,  -6.154170]
    <r_e> [Ang]:                  [  0.000000,  -0.000000,   0.251701]
    |<r_e - r_h>| [Ang]:            6.405872
    Hole size [Ang]:                2.229370
      Cartesian components [Ang]: [  0.814629,   0.901971,   1.868935]
    Electron size [Ang]:            5.809961
      Cartesian components [Ang]: [  1.536835,   1.424665,   5.418866]

  Transition density matrix analysis:
  -----------------------------------
  
  CT numbers (Mulliken)
    omega =     0.8393
    <Phe> =    -0.0000
  
  Exciton analysis of the transition density matrix
    Trans. dipole moment [D]:             0.002736
      Cartesian components [D]:         [  0.000000,   0.002736,  -0.000000]
    <r_h> [Ang]:                        [ -0.000000,   0.000000,  -6.398125]
    <r_e> [Ang]:                        [  0.000000,  -0.000000,   3.830572]
    |<r_e - r_h>| [Ang]:                 10.228697
    Hole size [Ang]:                      1.091725
      Cartesian components [Ang]:       [  0.486092,   0.841917,   0.496745]
    Electron size [Ang]:                  3.880719
      Cartesian components [Ang]:       [  1.820285,   1.702682,   2.974461]
    RMS electron-hole separation [Ang]:  10.994579
      Cartesian components [Ang]:       [  1.884051,   1.899469,  10.664105]
    Covariance(r_h, r_e) [Ang^2]:        -0.001343
    Correlation coefficient:             -0.000317
    Center-of-mass size [Ang]:            2.015513
      Cartesian components [Ang]:       [  0.942045,   0.949726,   1.507601]

  Decomposition into state-averaged NTOs
    H- 0 -> L+ 2:  0.5728 ( 65.6%)
    H- 0 -> L+ 7: -0.1914 (  7.3%)
    H- 0 -> L+ 6: -0.1762 (  6.2%)
    H- 0 -> L+ 8:  0.1531 (  4.7%)
                   omega =  83.9%
  ----------------------------------------------------------------------------


  Excited state 2 (singlet, B2)                                    [converged]
  ----------------------------------------------------------------------------
  Term symbol:  2 (1) B2                                    R^2 =  3.97749e-11

  Total energy:                                           -153.8804658990 a.u.
  Excitation energy:                                               2.103715 eV

  Osc. strength:                                                      0.000000
  Trans. dip. moment [a.u.]:           [  -0.000000,   -0.000116,   -0.000000]
  <i|r^2|0> [a.u.]:                    [  -0.000000,   -0.000000,   -0.000000]

  Dip. moment [a.u.]:                  [  -0.000000,   -0.000000,   -7.284704]
  Total dipole [Debye]:                                              18.515874
  <r^2> [a.u.]:                        [  94.916598,   25.320471, 2167.597590]
  Total <r^2> [a.u.]:                                              2287.834658

  V1^2 = 0.8516, V2^2 = 0.1484

  Important amplitudes:
      occ i      occ j       vir a       vir b          v   
    ---------------------------------------------------------
     2 (B2) A               9 (A1) A                 -0.6097
     2 (B2) A               8 (A1) A                 -0.2152
    ---------------------------------------------------------

  Density matrix analysis:
  ------------------------
  NOs
    Occupation of frontier NOs:
       0.9565   0.9949
    Number of electrons: 26.000000
    Number of unpaired electrons: n_u =  2.76271, n_u,nl =  2.12358
    NO participation ratio (PR_NO):  3.937512
  
  
  Mulliken Population Analysis
  Atom      Charge (e)              h+              e-           Del q
  --------------------------------------------------------------------
   1 C       -0.755250        0.019645       -0.578712       -0.559067
   2 C       -0.755250        0.019645       -0.578712       -0.559067
   3 H        0.135953        0.000227        0.026442        0.026669
   4 H        0.135953        0.000227        0.026442        0.026669
   5 H        0.119297        0.002026        0.030373        0.032398
   6 H        0.119297        0.002026        0.030373        0.032398
   7 O       -0.141330        1.418315       -0.534690        0.883625
   8 H        0.141330        0.141631       -0.025258        0.116373
  --------------------------------------------------------------------
  Sum:       -1.000000        1.603742       -1.603742        0.000000
  
  Multipole moment analysis of the density matrix
    Molecular charge:                      -1.000000
    Number of electrons:                   26.000000
      Center of electronic charge [Ang]: [  0.000000,   0.000000,   0.148265]
    Total nuclear charge:                  25.000000
      Center of nuclear charge [Ang]:    [ -0.000000,  -0.000000,  -0.000000]
    Dipole moment [D]:                     18.515868
      Cartesian components [D]:          [ -0.000000,  -0.000000, -18.515868]
    RMS size of the density [Ang]:         4.961728
      Cartesian components [Ang]:        [  1.011080,   0.522216,   4.829467]
  
  Exciton analysis of the difference density matrix
    <r_h> [Ang]:                  [  0.000000,   0.000000,  -6.168494]
    <r_e> [Ang]:                  [  0.000000,   0.000000,   0.038467]
    |<r_e - r_h>| [Ang]:            6.206961
    Hole size [Ang]:                2.181248
      Cartesian components [Ang]: [  0.819584,   0.903001,   1.808511]
    Electron size [Ang]:            5.730153
      Cartesian components [Ang]: [  2.725845,   1.306056,   4.868126]

  Transition density matrix analysis:
  -----------------------------------
  
  CT numbers (Mulliken)
    omega =     0.8367
    <Phe> =    -0.0000
  
  Exciton analysis of the transition density matrix
    Trans. dipole moment [D]:             0.000147
      Cartesian components [D]:         [ -0.000000,  -0.000147,  -0.000000]
    <r_h> [Ang]:                        [ -0.000000,   0.000000,  -6.398171]
    <r_e> [Ang]:                        [  0.000000,   0.000000,   3.488722]
    |<r_e - r_h>| [Ang]:                  9.886892
    Hole size [Ang]:                      1.091804
      Cartesian components [Ang]:       [  0.486166,   0.842033,   0.496647]
    Electron size [Ang]:                  3.997047
      Cartesian components [Ang]:       [  3.391229,   1.538538,   1.452187]
    RMS electron-hole separation [Ang]:  10.720107
      Cartesian components [Ang]:       [  3.425872,   1.753769,  10.005418]
    Covariance(r_h, r_e) [Ang^2]:        -0.000818
    Correlation coefficient:             -0.000187
    Center-of-mass size [Ang]:            2.071641
      Cartesian components [Ang]:       [  1.712964,   0.877002,   0.767017]

  Decomposition into state-averaged NTOs
    H- 0 -> L+ 5:  0.4714 ( 44.4%)
    H- 0 -> L+ 6: -0.3966 ( 31.5%)
    H- 0 -> L+ 8:  0.1307 (  3.4%)
    H- 0 -> L+ 2: -0.1153 (  2.7%)
    H- 0 -> L+ 7:  0.0921 (  1.7%)
                   omega =  83.7%
  ----------------------------------------------------------------------------


  Excited state 3 (singlet, B2)                                    [converged]
  ----------------------------------------------------------------------------
  Term symbol:  3 (1) B2                                    R^2 =  7.62519e-11

  Total energy:                                           -153.8774428635 a.u.
  Excitation energy:                                               2.185976 eV

  Osc. strength:                                                      0.000000
  Trans. dip. moment [a.u.]:           [   0.000000,    0.000777,    0.000000]
  <i|r^2|0> [a.u.]:                    [   0.000000,    0.000000,    0.000000]

  Dip. moment [a.u.]:                  [  -0.000000,    0.000000,   -7.552973]
  Total dipole [Debye]:                                              19.197747
  <r^2> [a.u.]:                        [  71.875011,   36.004121, 2170.067863]
  Total <r^2> [a.u.]:                                              2277.946995

  V1^2 = 0.8472, V2^2 = 0.1528

  Important amplitudes:
      occ i      occ j       vir a       vir b          v   
    ---------------------------------------------------------
     4 (B1) A               1 (A2) A                 -0.6357
     4 (B1) A               2 (A2) A                 -0.1367
    ---------------------------------------------------------

  Density matrix analysis:
  ------------------------
  NOs
    Occupation of frontier NOs:
       0.9565   0.9965
    Number of electrons: 26.000000
    Number of unpaired electrons: n_u =  2.75324, n_u,nl =  2.11769
    NO participation ratio (PR_NO):  3.907136
  
  
  Mulliken Population Analysis
  Atom      Charge (e)              h+              e-           Del q
  --------------------------------------------------------------------
   1 C       -0.653108        0.062002       -0.518926       -0.456924
   2 C       -0.653108        0.062002       -0.518926       -0.456924
   3 H        0.082763        0.002047       -0.028568       -0.026521
   4 H        0.082763        0.002047       -0.028568       -0.026521
   5 H        0.070344        0.002537       -0.019092       -0.016555
   6 H        0.070344        0.002537       -0.019092       -0.016555
   7 O       -0.140230        1.412055       -0.527330        0.884725
   8 H        0.140231        0.140189       -0.024914        0.115274
  --------------------------------------------------------------------
  Sum:       -1.000000        1.685416       -1.685416        0.000000
  
  Multipole moment analysis of the density matrix
    Molecular charge:                      -1.000000
    Number of electrons:                   26.000000
      Center of electronic charge [Ang]: [  0.000000,  -0.000000,   0.153725]
    Total nuclear charge:                  25.000000
      Center of nuclear charge [Ang]:    [ -0.000000,  -0.000000,  -0.000000]
    Dipole moment [D]:                     19.197741
      Cartesian components [D]:          [ -0.000000,   0.000000, -19.197741]
    RMS size of the density [Ang]:         4.950819
      Cartesian components [Ang]:        [  0.879839,   0.622717,   4.832050]
  
  Exciton analysis of the difference density matrix
    <r_h> [Ang]:                  [ -0.000000,   0.000000,  -5.647863]
    <r_e> [Ang]:                  [  0.000000,  -0.000000,   0.342544]
    |<r_e - r_h>| [Ang]:            5.990406
    Hole size [Ang]:                3.070350
      Cartesian components [Ang]: [  0.916138,   0.800720,   2.818969]
    Electron size [Ang]:            5.484201
      Cartesian components [Ang]: [  1.855261,   1.806501,   4.834359]

  Transition density matrix analysis:
  -----------------------------------
  
  CT numbers (Mulliken)
    omega =     0.8277
    <Phe> =     0.0000
  
  Exciton analysis of the transition density matrix
    Trans. dipole moment [D]:             0.000988
      Cartesian components [D]:         [  0.000000,   0.000988,   0.000000]
    <r_h> [Ang]:                        [ -0.000000,   0.000000,  -6.398266]
    <r_e> [Ang]:                        [  0.000000,  -0.000000,   3.639463]
    |<r_e - r_h>| [Ang]:                 10.037730
    Hole size [Ang]:                      1.091256
      Cartesian components [Ang]:       [  0.841989,   0.486124,   0.495558]
    Electron size [Ang]:                  3.459085
      Cartesian components [Ang]:       [  2.297262,   2.238198,   1.295502]
    RMS electron-hole separation [Ang]:  10.672914
      Cartesian components [Ang]:       [  2.446502,   2.290369,  10.133110]
    Covariance(r_h, r_e) [Ang^2]:         0.000519
    Correlation coefficient:              0.000137
    Center-of-mass size [Ang]:            1.813639
      Cartesian components [Ang]:       [  1.223452,   1.145197,   0.693524]

  Decomposition into state-averaged NTOs
    H- 1 -> L+ 4:  0.5228 ( 54.7%)
    H- 1 -> L+ 9:  0.3749 ( 28.1%)
                   omega =  82.8%
  ----------------------------------------------------------------------------


  Excited state 4 (singlet, B2)                                    [converged]
  ----------------------------------------------------------------------------
  Term symbol:  4 (1) B2                                    R^2 =  1.26675e-10

  Total energy:                                           -153.8398422574 a.u.
  Excitation energy:                                               3.209140 eV

  Osc. strength:                                                      0.000000
  Trans. dip. moment [a.u.]:           [  -0.000000,    0.002243,   -0.000000]
  <i|r^2|0> [a.u.]:                    [  -0.000000,   -0.000000,   -0.000000]

  Dip. moment [a.u.]:                  [  -0.000000,    0.000000,   -7.470166]
  Total dipole [Debye]:                                              18.987272
  <r^2> [a.u.]:                        [  69.522444,   29.834144, 2173.812221]
  Total <r^2> [a.u.]:                                              2273.168809

  V1^2 = 0.8508, V2^2 = 0.1492

  Important amplitudes:
      occ i      occ j       vir a       vir b          v   
    ---------------------------------------------------------
     2 (B2) A              10 (A1) A                  0.6425
     2 (B2) A               9 (A1) A                 -0.1013
    ---------------------------------------------------------

  Density matrix analysis:
  ------------------------
  NOs
    Occupation of frontier NOs:
       0.9567   0.9940
    Number of electrons: 26.000000
    Number of unpaired electrons: n_u =  2.76423, n_u,nl =  2.12339
    NO participation ratio (PR_NO):  3.945101
  
  
  Mulliken Population Analysis
  Atom      Charge (e)              h+              e-           Del q
  --------------------------------------------------------------------
   1 C       -0.746830        0.038372       -0.589019       -0.550646
   2 C       -0.746830        0.038372       -0.589019       -0.550646
   3 H        0.128719        0.000120        0.019315        0.019435
   4 H        0.128719        0.000120        0.019315        0.019435
   5 H        0.118140        0.001064        0.030177        0.031241
   6 H        0.118140        0.001064        0.030177        0.031241
   7 O       -0.140567        1.415116       -0.530729        0.884387
   8 H        0.140509        0.140501       -0.024949        0.115552
  --------------------------------------------------------------------
  Sum:       -1.000000        1.634730       -1.634730        0.000000
  
  Multipole moment analysis of the density matrix
    Molecular charge:                      -1.000000
    Number of electrons:                   26.000000
      Center of electronic charge [Ang]: [ -0.000000,  -0.000000,   0.152040]
    Total nuclear charge:                  25.000000
      Center of nuclear charge [Ang]:    [ -0.000000,  -0.000000,  -0.000000]
    Dipole moment [D]:                     18.987266
      Cartesian components [D]:          [  0.000000,   0.000000, -18.987266]
    RMS size of the density [Ang]:         4.945670
      Cartesian components [Ang]:        [  0.865320,   0.566854,   4.836275]
  
  Exciton analysis of the difference density matrix
    <r_h> [Ang]:                  [ -0.000000,   0.000000,  -5.954661]
    <r_e> [Ang]:                  [ -0.000000,  -0.000000,   0.194676]
    |<r_e - r_h>| [Ang]:            6.149336
    Hole size [Ang]:                2.599590
      Cartesian components [Ang]: [  0.819815,   0.904269,   2.295227]
    Electron size [Ang]:            5.466508
      Cartesian components [Ang]: [  1.718280,   1.569836,   4.946296]

  Transition density matrix analysis:
  -----------------------------------
  
  CT numbers (Mulliken)
    omega =     0.8357
    <Phe> =    -0.0000
  
  Exciton analysis of the transition density matrix
    Trans. dipole moment [D]:             0.002851
      Cartesian components [D]:         [ -0.000000,   0.002851,  -0.000000]
    <r_h> [Ang]:                        [ -0.000000,   0.000000,  -6.398108]
    <r_e> [Ang]:                        [ -0.000000,  -0.000000,   3.589883]
    |<r_e - r_h>| [Ang]:                  9.987992
    Hole size [Ang]:                      1.091606
      Cartesian components [Ang]:       [  0.486006,   0.841759,   0.496833]
    Electron size [Ang]:                  3.315016
      Cartesian components [Ang]:       [  2.064702,   1.900812,   1.764440]
    RMS electron-hole separation [Ang]:  10.580307
      Cartesian components [Ang]:       [  2.121116,   2.078614,  10.154956]
    Covariance(r_h, r_e) [Ang^2]:        -0.000992
    Correlation coefficient:             -0.000274
    Center-of-mass size [Ang]:            1.744917
      Cartesian components [Ang]:       [  1.060573,   1.039550,   0.916111]

  Decomposition into state-averaged NTOs
    H- 0 -> L+ 5:  0.4395 ( 38.6%)
    H- 0 -> L+ 6:  0.3796 ( 28.8%)
    H- 0 -> L+ 8: -0.2156 (  9.3%)
    H- 0 -> L+ 2:  0.1526 (  4.7%)
    H- 0 -> L+ 7: -0.1040 (  2.2%)
                   omega =  83.6%
  ----------------------------------------------------------------------------


  Excited state 5 (singlet, B2)                                    [converged]
  ----------------------------------------------------------------------------
  Term symbol:  5 (1) B2                                    R^2 =  9.73521e-11

  Total energy:                                           -153.8163055533 a.u.
  Excitation energy:                                               3.849607 eV

  Osc. strength:                                                      0.000000
  Trans. dip. moment [a.u.]:           [   0.000000,    0.000992,   -0.000000]
  <i|r^2|0> [a.u.]:                    [   0.000000,    0.000000,   -0.000000]

  Dip. moment [a.u.]:                  [   0.000000,   -0.000000,   -7.551827]
  Total dipole [Debye]:                                              19.194833
  <r^2> [a.u.]:                        [  70.709655,   34.673322, 2170.062710]
  Total <r^2> [a.u.]:                                              2275.445686

  V1^2 = 0.8403, V2^2 = 0.1597

  Important amplitudes:
      occ i      occ j       vir a       vir b          v   
    ---------------------------------------------------------
     4 (B1) A               2 (A2) A                  0.6281
     4 (B1) A               1 (A2) A                 -0.1457
    ---------------------------------------------------------

  Density matrix analysis:
  ------------------------
  NOs
    Occupation of frontier NOs:
       0.9568   0.9944
    Number of electrons: 26.000000
    Number of unpaired electrons: n_u =  2.75403, n_u,nl =  2.11581
    NO participation ratio (PR_NO):  3.917851
  
  
  Mulliken Population Analysis
  Atom      Charge (e)              h+              e-           Del q
  --------------------------------------------------------------------
   1 C       -0.610696        0.106028       -0.520541       -0.414513
   2 C       -0.610696        0.106028       -0.520541       -0.414513
   3 H        0.061981        0.002614       -0.049916       -0.047302
   4 H        0.061981        0.002614       -0.049916       -0.047302
   5 H        0.048715        0.003205       -0.041389       -0.038184
   6 H        0.048715        0.003205       -0.041389       -0.038184
   7 O       -0.138286        1.400509       -0.513841        0.886668
   8 H        0.138288        0.137623       -0.024292        0.113331
  --------------------------------------------------------------------
  Sum:       -1.000000        1.761826       -1.761826        0.000000
  
  Multipole moment analysis of the density matrix
    Molecular charge:                      -1.000000
    Number of electrons:                   26.000000
      Center of electronic charge [Ang]: [  0.000000,   0.000000,   0.153702]
    Total nuclear charge:                  25.000000
      Center of nuclear charge [Ang]:    [ -0.000000,  -0.000000,  -0.000000]
    Dipole moment [D]:                     19.194827
      Cartesian components [D]:          [ -0.000000,  -0.000000, -19.194827]
    RMS size of the density [Ang]:         4.948098
      Cartesian components [Ang]:        [  0.872678,   0.611100,   4.832045]
  
  Exciton analysis of the difference density matrix
    <r_h> [Ang]:                  [ -0.000000,   0.000000,  -5.163617]
    <r_e> [Ang]:                  [  0.000000,   0.000000,   0.566640]
    |<r_e - r_h>| [Ang]:            5.730258
    Hole size [Ang]:                3.636432
      Cartesian components [Ang]: [  0.909475,   0.772121,   3.435160]
    Electron size [Ang]:            5.340329
      Cartesian components [Ang]: [  1.769669,   1.700945,   4.742803]

  Transition density matrix analysis:
  -----------------------------------
  
  CT numbers (Mulliken)
    omega =     0.8172
    <Phe> =     0.0000
  
  Exciton analysis of the transition density matrix
    Trans. dipole moment [D]:             0.001261
      Cartesian components [D]:         [  0.000000,   0.001261,  -0.000000]
    <r_h> [Ang]:                        [ -0.000000,   0.000000,  -6.398231]
    <r_e> [Ang]:                        [  0.000000,   0.000000,   3.639443]
    |<r_e - r_h>| [Ang]:                 10.037674
    Hole size [Ang]:                      1.090609
      Cartesian components [Ang]:       [  0.841489,   0.485834,   0.495266]
    Electron size [Ang]:                  3.327429
      Cartesian components [Ang]:       [  2.209015,   2.152310,   1.248838]
    RMS electron-hole separation [Ang]:  10.630860
      Cartesian components [Ang]:       [  2.363675,   2.206451,  10.127181]
    Covariance(r_h, r_e) [Ang^2]:         0.000468
    Correlation coefficient:              0.000129
    Center-of-mass size [Ang]:            1.750867
      Cartesian components [Ang]:       [  1.182026,   1.103236,   0.671729]

  Decomposition into state-averaged NTOs
    H- 1 -> L+ 9: -0.5119 ( 52.4%)
    H- 1 -> L+ 4:  0.3829 ( 29.3%)
                   omega =  81.7%
  ----------------------------------------------------------------------------


  Excited state 6 (singlet, B2)                                    [converged]
  ----------------------------------------------------------------------------
  Term symbol:  6 (1) B2                                    R^2 =  2.13516e-10

  Total energy:                                           -153.7827291509 a.u.
  Excitation energy:                                               4.763267 eV

  Osc. strength:                                                      0.085824
  Trans. dip. moment [a.u.]:           [   0.000000,   -0.857577,   -0.000000]
  <i|r^2|0> [a.u.]:                    [   0.000000,    0.000000,   -0.000000]

  Dip. moment [a.u.]:                  [  -0.000000,    0.000000,   12.797313]
  Total dipole [Debye]:                                              32.527532
  <r^2> [a.u.]:                        [  59.918933,   22.573305, 2305.757030]
  Total <r^2> [a.u.]:                                              2388.249269

  V1^2 = 0.9093, V2^2 = 0.0907

  Important amplitudes:
      occ i      occ j       vir a       vir b          v   
    ---------------------------------------------------------
     2 (B2) A              14 (A1) A                 -0.6332
     2 (B2) A              16 (A1) A                  0.1906
    ---------------------------------------------------------

  Density matrix analysis:
  ------------------------
  NOs
    Occupation of frontier NOs:
       0.9663   1.0000
    Number of electrons: 26.000000
    Number of unpaired electrons: n_u =  2.68943, n_u,nl =  2.09353
    NO participation ratio (PR_NO):  3.692574
  
  
  Mulliken Population Analysis
  Atom      Charge (e)              h+              e-           Del q
  --------------------------------------------------------------------
   1 C       -0.196343        0.000486       -0.000646       -0.000160
   2 C       -0.196343        0.000486       -0.000646       -0.000160
   3 H        0.108617       -0.000041       -0.000626       -0.000666
   4 H        0.108617       -0.000041       -0.000626       -0.000666
   5 H        0.087372        0.000439        0.000035        0.000474
   6 H        0.087372        0.000439        0.000035        0.000474
   7 O       -1.773632        1.232567       -1.981245       -0.748677
   8 H        0.774340        0.164914        0.584468        0.749383
  --------------------------------------------------------------------
  Sum:       -1.000000        1.399249       -1.399249        0.000000
  
  Multipole moment analysis of the density matrix
    Molecular charge:                      -1.000000
    Number of electrons:                   26.000000
      Center of electronic charge [Ang]: [ -0.000000,  -0.000000,  -0.260463]
    Total nuclear charge:                  25.000000
      Center of nuclear charge [Ang]:    [ -0.000000,  -0.000000,  -0.000000]
    Dipole moment [D]:                     32.527523
      Cartesian components [D]:          [  0.000000,   0.000000,  32.527523]
    RMS size of the density [Ang]:         5.065016
      Cartesian components [Ang]:        [  0.803335,   0.493074,   4.976537]
  
  Exciton analysis of the difference density matrix
    <r_h> [Ang]:                  [ -0.000000,   0.000000,  -6.442633]
    <r_e> [Ang]:                  [  0.000000,   0.000000,  -6.923307]
    |<r_e - r_h>| [Ang]:            0.480674
    Hole size [Ang]:                1.397128
      Cartesian components [Ang]: [  0.737875,   0.890471,   0.783945]
    Electron size [Ang]:            2.047847
      Cartesian components [Ang]: [  1.134323,   1.124121,   1.281928]

  Transition density matrix analysis:
  -----------------------------------
  
  CT numbers (Mulliken)
    omega =     0.8895
    <Phe> =    -0.0187
  
  Exciton analysis of the transition density matrix
    Trans. dipole moment [D]:             1.089871
      Cartesian components [D]:         [  0.000000,  -1.089871,  -0.000000]
    <r_h> [Ang]:                        [ -0.000000,   0.000000,  -6.398836]
    <r_e> [Ang]:                        [  0.000000,   0.000000,  -7.185323]
    |<r_e - r_h>| [Ang]:                  0.786487
    Hole size [Ang]:                      1.074505
      Cartesian components [Ang]:       [  0.478643,   0.828862,   0.488314]
    Electron size [Ang]:                  2.209871
      Cartesian components [Ang]:       [  1.251168,   1.249256,   1.325696]
    RMS electron-hole separation [Ang]:   2.577963
      Cartesian components [Ang]:       [  1.339445,   1.495759,   1.616938]
    Covariance(r_h, r_e) [Ang^2]:         0.005380
    Correlation coefficient:              0.002266
    Center-of-mass size [Ang]:            1.229721
      Cartesian components [Ang]:       [  0.669874,   0.751334,   0.706385]

  Decomposition into state-averaged NTOs
    H- 0 -> L+ 1:  0.5701 ( 65.0%)
    H- 0 -> L+ 0:  0.3449 ( 23.8%)
                   omega =  89.0%
  ----------------------------------------------------------------------------


  Excited state 7 (singlet, B2)                                    [converged]
  ----------------------------------------------------------------------------
  Term symbol:  7 (1) B2                                    R^2 =  2.71870e-06

  Total energy:                                           -153.7253830220 a.u.
  Excitation energy:                                               6.323735 eV

  Osc. strength:                                                      0.000000
  Trans. dip. moment [a.u.]:           [  -0.000000,    0.001261,    0.000000]
  <i|r^2|0> [a.u.]:                    [  -0.000000,   -0.000000,   -0.000000]

  Dip. moment [a.u.]:                  [   0.000000,    0.000000,   -7.561421]
  Total dipole [Debye]:                                              19.219220
  <r^2> [a.u.]:                        [  65.818060,   50.906885, 2173.218636]
  Total <r^2> [a.u.]:                                              2289.943581

  V1^2 = 0.8574, V2^2 = 0.1426

  Important amplitudes:
      occ i      occ j       vir a       vir b          v   
    ---------------------------------------------------------
     7 (A1) A               3 (B2) A                 -0.6530
     7 (A1) A   2 (B2) B    3 (B2) A    5 (B2) B     -0.0558
    ---------------------------------------------------------

  Density matrix analysis:
  ------------------------
  NOs
    Occupation of frontier NOs:
       0.9737   0.9975
    Number of electrons: 26.000000
    Number of unpaired electrons: n_u =  2.80499, n_u,nl =  2.14007
    NO participation ratio (PR_NO):  3.971976
  
  
  Mulliken Population Analysis
  Atom      Charge (e)              h+              e-           Del q
  --------------------------------------------------------------------
   1 C       -0.669801        0.022010       -0.495628       -0.473618
   2 C       -0.669801        0.022010       -0.495628       -0.473618
   3 H        0.090681       -0.001082       -0.017521       -0.018603
   4 H        0.090681       -0.001082       -0.017521       -0.018603
   5 H        0.079121       -0.001075       -0.006703       -0.007778
   6 H        0.079121       -0.001075       -0.006703       -0.007778
   7 O       -0.326719        1.243257       -0.545021        0.698236
   8 H        0.326718        0.320000       -0.018239        0.301761
  --------------------------------------------------------------------
  Sum:       -1.000000        1.602964       -1.602964        0.000000
  
  Multipole moment analysis of the density matrix
    Molecular charge:                      -1.000000
    Number of electrons:                   26.000000
      Center of electronic charge [Ang]: [ -0.000000,  -0.000000,   0.153897]
    Total nuclear charge:                  25.000000
      Center of nuclear charge [Ang]:    [ -0.000000,  -0.000000,  -0.000000]
    Dipole moment [D]:                     19.219214
      Cartesian components [D]:          [  0.000000,   0.000000, -19.219214]
    RMS size of the density [Ang]:         4.963845
      Cartesian components [Ang]:        [  0.841951,   0.740462,   4.835555]
  
  Exciton analysis of the difference density matrix
    <r_h> [Ang]:                  [ -0.000000,   0.000000,  -6.200458]
    <r_e> [Ang]:                  [ -0.000000,  -0.000000,   0.100867]
    |<r_e - r_h>| [Ang]:            6.301326
    Hole size [Ang]:                2.105058
      Cartesian components [Ang]: [  0.792679,   0.783540,   1.785775]
    Electron size [Ang]:            5.767004
      Cartesian components [Ang]: [  1.518811,   2.444287,   4.997700]

  Transition density matrix analysis:
  -----------------------------------
  
  CT numbers (Mulliken)
    omega =     0.8405
    <Phe> =     0.0001
  
  Exciton analysis of the transition density matrix
    Trans. dipole moment [D]:             0.001602
      Cartesian components [D]:         [ -0.000000,   0.001602,   0.000000]
    <r_h> [Ang]:                        [ -0.000000,  -0.000000,  -6.448880]
    <r_e> [Ang]:                        [ -0.000000,  -0.000000,   3.639116]
    |<r_e - r_h>| [Ang]:                 10.087995
    Hole size [Ang]:                      1.010391
      Cartesian components [Ang]:       [  0.421117,   0.421172,   0.816190]
    Electron size [Ang]:                  3.934647
      Cartesian components [Ang]:       [  1.796205,   3.031281,   1.751122]
    RMS electron-hole separation [Ang]:  10.875359
      Cartesian components [Ang]:       [  1.845007,   3.059789,  10.271663]
    Covariance(r_h, r_e) [Ang^2]:        -0.001720
    Correlation coefficient:             -0.000433
    Center-of-mass size [Ang]:            2.030942
      Cartesian components [Ang]:       [  0.922406,   1.530506,   0.965113]

  Decomposition into state-averaged NTOs
    H- 2 -> L+ 3:  0.6482 ( 84.0%)
                   omega =  84.1%
  ----------------------------------------------------------------------------


  Excited state 8 (singlet, B2)                                    [converged]
  ----------------------------------------------------------------------------
  Term symbol:  8 (1) B2                                    R^2 =  5.17163e-08

  Total energy:                                           -153.7213704183 a.u.
  Excitation energy:                                               6.432923 eV

  Osc. strength:                                                      0.000531
  Trans. dip. moment [a.u.]:           [  -0.000000,    0.058059,    0.000000]
  <i|r^2|0> [a.u.]:                    [   0.000000,    0.000000,    0.000000]

  Dip. moment [a.u.]:                  [  -0.000000,    0.000000,   -7.510096]
  Total dipole [Debye]:                                              19.088763
  <r^2> [a.u.]:                        [  60.400260,   23.260727, 2173.275246]
  Total <r^2> [a.u.]:                                              2256.936233

  V1^2 = 0.8439, V2^2 = 0.1561

  Important amplitudes:
      occ i      occ j       vir a       vir b          v   
    ---------------------------------------------------------
     2 (B2) A              11 (A1) A                  0.6361
     2 (B2) A              12 (A1) A                 -0.1038
    ---------------------------------------------------------

  Density matrix analysis:
  ------------------------
  NOs
    Occupation of frontier NOs:
       0.9572   0.9866
    Number of electrons: 26.000000
    Number of unpaired electrons: n_u =  2.77455, n_u,nl =  2.12718
    NO participation ratio (PR_NO):  4.000306
  
  
  Mulliken Population Analysis
  Atom      Charge (e)              h+              e-           Del q
  --------------------------------------------------------------------
   1 C       -0.238070        0.069483       -0.111370       -0.041887
   2 C       -0.238070        0.069483       -0.111370       -0.041887
   3 H       -0.116164        0.008386       -0.233834       -0.225448
   4 H       -0.116164        0.008386       -0.233834       -0.225448
   5 H       -0.142494        0.009578       -0.238971       -0.229393
   6 H       -0.142494        0.009578       -0.238971       -0.229393
   7 O       -0.142636        1.400462       -0.518143        0.882319
   8 H        0.136092        0.137194       -0.026059        0.111135
  --------------------------------------------------------------------
  Sum:       -1.000000        1.712551       -1.712551        0.000000
  
  Multipole moment analysis of the density matrix
    Molecular charge:                      -1.000000
    Number of electrons:                   26.000000
      Center of electronic charge [Ang]: [  0.000000,  -0.000000,   0.152853]
    Total nuclear charge:                  25.000000
      Center of nuclear charge [Ang]:    [ -0.000000,  -0.000000,  -0.000000]
    Dipole moment [D]:                     19.088757
      Cartesian components [D]:          [ -0.000000,   0.000000, -19.088757]
    RMS size of the density [Ang]:         4.927939
      Cartesian components [Ang]:        [  0.806555,   0.500525,   4.835651]
  
  Exciton analysis of the difference density matrix
    <r_h> [Ang]:                  [ -0.000000,   0.000000,  -5.412069]
    <r_e> [Ang]:                  [  0.000000,  -0.000000,   0.470170]
    |<r_e - r_h>| [Ang]:            5.882240
    Hole size [Ang]:                3.375762
      Cartesian components [Ang]: [  0.833957,   0.887324,   3.148483]
    Electron size [Ang]:            5.106310
      Cartesian components [Ang]: [  1.175003,   1.133289,   4.838329]

  Transition density matrix analysis:
  -----------------------------------
  
  CT numbers (Mulliken)
    omega =     0.8267
    <Phe> =    -0.0001
  
  Exciton analysis of the transition density matrix
    Trans. dipole moment [D]:             0.073786
      Cartesian components [D]:         [ -0.000000,   0.073786,   0.000000]
    <r_h> [Ang]:                        [ -0.000000,   0.000000,  -6.397852]
    <r_e> [Ang]:                        [  0.000000,  -0.000000,   3.613848]
    |<r_e - r_h>| [Ang]:                 10.011700
    Hole size [Ang]:                      1.091421
      Cartesian components [Ang]:       [  0.485542,   0.840873,   0.498378]
    Electron size [Ang]:                  2.454038
      Cartesian components [Ang]:       [  1.261503,   1.304653,   1.651905]
    RMS electron-hole separation [Ang]:  10.366217
      Cartesian components [Ang]:       [  1.351700,   1.553332,  10.159652]
    Covariance(r_h, r_e) [Ang^2]:        -0.005410
    Correlation coefficient:             -0.002020
    Center-of-mass size [Ang]:            1.341890
      Cartesian components [Ang]:       [  0.675867,   0.775489,   0.861678]

  Decomposition into state-averaged NTOs
    H- 0 -> L+ 8: -0.4822 ( 46.5%)
    H- 0 -> L+ 7: -0.3066 ( 18.8%)
    H- 0 -> L+ 6: -0.2784 ( 15.5%)
                   omega =  82.7%
  ----------------------------------------------------------------------------


  Excited state 9 (singlet, B2)                                    [converged]
  ----------------------------------------------------------------------------
  Term symbol:  9 (1) B2                                    R^2 =  3.43466e-09

  Total energy:                                           -153.7182600999 a.u.
  Excitation energy:                                               6.517559 eV

  Osc. strength:                                                      0.074653
  Trans. dip. moment [a.u.]:           [  -0.000000,    0.683756,   -0.000000]
  <i|r^2|0> [a.u.]:                    [  -0.000000,   -0.000000,   -0.000000]

  Dip. moment [a.u.]:                  [   0.000000,   -0.000000,    8.919504]
  Total dipole [Debye]:                                              22.671123
  <r^2> [a.u.]:                        [  58.367026,   21.039593, 2222.180326]
  Total <r^2> [a.u.]:                                              2301.586945

  V1^2 = 0.9143, V2^2 = 0.0857

  Important amplitudes:
      occ i      occ j       vir a       vir b          v   
    ---------------------------------------------------------
     2 (B2) A              16 (A1) A                 -0.6388
     2 (B2) A              14 (A1) A                 -0.1821
    ---------------------------------------------------------

  Density matrix analysis:
  ------------------------
  NOs
    Occupation of frontier NOs:
       0.9683   1.0004
    Number of electrons: 26.000000
    Number of unpaired electrons: n_u =  2.68660, n_u,nl =  2.09332
    NO participation ratio (PR_NO):  3.679377
  
  
  Mulliken Population Analysis
  Atom      Charge (e)              h+              e-           Del q
  --------------------------------------------------------------------
   1 C       -0.203071        0.001705       -0.008592       -0.006888
   2 C       -0.203071        0.001705       -0.008592       -0.006888
   3 H        0.111760        0.000608        0.001868        0.002476
   4 H        0.111760        0.000608        0.001868        0.002476
   5 H        0.080918        0.000465       -0.006446       -0.005981
   6 H        0.080918        0.000465       -0.006446       -0.005981
   7 O       -0.835174        1.275750       -1.085969        0.189781
   8 H       -0.144040        0.102926       -0.271923       -0.168997
  --------------------------------------------------------------------
  Sum:       -1.000000        1.384232       -1.384232        0.000000
  
  Multipole moment analysis of the density matrix
    Molecular charge:                      -1.000000
    Number of electrons:                   26.000000
      Center of electronic charge [Ang]: [ -0.000000,   0.000000,  -0.181538]
    Total nuclear charge:                  25.000000
      Center of nuclear charge [Ang]:    [ -0.000000,  -0.000000,  -0.000000]
    Dipole moment [D]:                     22.671116
      Cartesian components [D]:          [  0.000000,  -0.000000,  22.671116]
    RMS size of the density [Ang]:         4.975529
      Cartesian components [Ang]:        [  0.792863,   0.476029,   4.888830]
  
  Exciton analysis of the difference density matrix
    <r_h> [Ang]:                  [ -0.000000,   0.000000,  -6.391347]
    <r_e> [Ang]:                  [ -0.000000,   0.000000,  -5.394790]
    |<r_e - r_h>| [Ang]:            0.996557
    Hole size [Ang]:                1.490077
      Cartesian components [Ang]: [  0.736768,   0.885233,   0.945444]
    Electron size [Ang]:            2.279163
      Cartesian components [Ang]: [  0.989525,   0.974261,   1.807274]

  Transition density matrix analysis:
  -----------------------------------
  
  CT numbers (Mulliken)
    omega =     0.8951
    <Phe> =    -0.0174
  
  Exciton analysis of the transition density matrix
    Trans. dipole moment [D]:             0.868967
      Cartesian components [D]:         [ -0.000000,   0.868967,  -0.000000]
    <r_h> [Ang]:                        [ -0.000000,   0.000000,  -6.396129]
    <r_e> [Ang]:                        [ -0.000000,   0.000000,  -5.051046]
    |<r_e - r_h>| [Ang]:                  1.345083
    Hole size [Ang]:                      1.073772
      Cartesian components [Ang]:       [  0.478280,   0.828114,   0.488325]
    Electron size [Ang]:                  2.330081
      Cartesian components [Ang]:       [  1.070488,   1.069428,   1.771907]
    RMS electron-hole separation [Ang]:   2.895535
      Cartesian components [Ang]:       [  1.172170,   1.350511,   2.277336]
    Covariance(r_h, r_e) [Ang^2]:         0.003694
    Correlation coefficient:              0.001476
    Center-of-mass size [Ang]:            1.283516
      Cartesian components [Ang]:       [  0.586389,   0.677314,   0.919133]

  Decomposition into state-averaged NTOs
    H- 0 -> L+ 0: -0.5702 ( 65.0%)
    H- 0 -> L+ 1:  0.3373 ( 22.7%)
    H- 0 -> L+ 8:  0.0748 (  1.1%)
                   omega =  89.5%
  ----------------------------------------------------------------------------


  Excited state 10 (singlet, B2)                                    [converged]
  ----------------------------------------------------------------------------
  Term symbol:  10 (1) B2                                   R^2 =  1.13625e-07

  Total energy:                                           -153.6925187197 a.u.
  Excitation energy:                                               7.218018 eV

  Osc. strength:                                                      0.000934
  Trans. dip. moment [a.u.]:           [   0.000000,   -0.072675,   -0.000000]
  <i|r^2|0> [a.u.]:                    [   0.000000,   -0.000000,    0.000000]

  Dip. moment [a.u.]:                  [   0.000000,    0.000000,   -7.208233]
  Total dipole [Debye]:                                              18.321505
  <r^2> [a.u.]:                        [  62.483002,   23.118513, 2182.367147]
  Total <r^2> [a.u.]:                                              2267.968662

  V1^2 = 0.8461, V2^2 = 0.1539

  Important amplitudes:
      occ i      occ j       vir a       vir b          v   
    ---------------------------------------------------------
     2 (B2) A              12 (A1) A                 -0.6178
     2 (B2) A              15 (A1) A                  0.1225
    ---------------------------------------------------------

  Density matrix analysis:
  ------------------------
  NOs
    Occupation of frontier NOs:
       0.9573   0.9875
    Number of electrons: 26.000000
    Number of unpaired electrons: n_u =  2.77163, n_u,nl =  2.12552
    NO participation ratio (PR_NO):  3.988805
  
  
  Mulliken Population Analysis
  Atom      Charge (e)              h+              e-           Del q
  --------------------------------------------------------------------
   1 C       -0.446760        0.060851       -0.311427       -0.250576
   2 C       -0.446760        0.060851       -0.311427       -0.250576
   3 H       -0.026711        0.006042       -0.142037       -0.135995
   4 H       -0.026711        0.006042       -0.142037       -0.135995
   5 H       -0.019275        0.006411       -0.112586       -0.106174
   6 H       -0.019275        0.006411       -0.112586       -0.106174
   7 O       -0.151564        1.400534       -0.527143        0.873390
   8 H        0.137058        0.136850       -0.024749        0.112101
  --------------------------------------------------------------------
  Sum:       -1.000000        1.683991       -1.683991       -0.000000
  
  Multipole moment analysis of the density matrix
    Molecular charge:                      -1.000000
    Number of electrons:                   26.000000
      Center of electronic charge [Ang]: [ -0.000000,  -0.000000,   0.146709]
    Total nuclear charge:                  25.000000
      Center of nuclear charge [Ang]:    [ -0.000000,  -0.000000,  -0.000000]
    Dipole moment [D]:                     18.321500
      Cartesian components [D]:          [  0.000000,   0.000000, -18.321500]
    RMS size of the density [Ang]:         4.940166
      Cartesian components [Ang]:        [  0.820343,   0.498993,   4.845956]
  
  Exciton analysis of the difference density matrix
    <r_h> [Ang]:                  [ -0.000000,   0.000000,  -5.564525]
    <r_e> [Ang]:                  [ -0.000000,  -0.000000,   0.322620]
    |<r_e - r_h>| [Ang]:            5.887144
    Hole size [Ang]:                3.179209
      Cartesian components [Ang]: [  0.820669,   0.886910,   2.940623]
    Electron size [Ang]:            5.307251
      Cartesian components [Ang]: [  1.310191,   1.126228,   5.018160]

  Transition density matrix analysis:
  -----------------------------------
  
  CT numbers (Mulliken)
    omega =     0.8291
    <Phe> =    -0.0002
  
  Exciton analysis of the transition density matrix
    Trans. dipole moment [D]:             0.092360
      Cartesian components [D]:         [  0.000000,  -0.092360,  -0.000000]
    <r_h> [Ang]:                        [ -0.000000,   0.000000,  -6.397406]
    <r_e> [Ang]:                        [ -0.000000,  -0.000000,   3.438551]
    |<r_e - r_h>| [Ang]:                  9.835957
    Hole size [Ang]:                      1.093138
      Cartesian components [Ang]:       [  0.485484,   0.840767,   0.502361]
    Electron size [Ang]:                  3.220548
      Cartesian components [Ang]:       [  1.480107,   1.294867,   2.550399]
    RMS electron-hole separation [Ang]:  10.408080
      Cartesian components [Ang]:       [  1.557669,   1.543847,  10.174396]
    Covariance(r_h, r_e) [Ang^2]:        -0.007600
    Correlation coefficient:             -0.002159
    Center-of-mass size [Ang]:            1.699388
      Cartesian components [Ang]:       [  0.778860,   0.771958,   1.298222]

  Decomposition into state-averaged NTOs
    H- 0 -> L+ 7: -0.5117 ( 52.4%)
    H- 0 -> L+ 8:  0.2934 ( 17.2%)
    H- 0 -> L+ 2: -0.2296 ( 10.5%)
    H- 0 -> L+ 6:  0.0819 (  1.3%)
                   omega =  82.9%
  ----------------------------------------------------------------------------


--------------------------------------------------------------------------------
  Time of ADC calculation:  CPU 226.56 s  wall 62.25 s
================================================================================
 
 --------------------------------------------------------------
             Orbital Energies (a.u.) and Symmetries
 --------------------------------------------------------------
 
 Alpha MOs, Restricted
 -- Occupied --                  
-20.199 -11.183 -11.181  -0.988  -0.904  -0.728  -0.606  -0.513
  1 A1    2 A1    1 B1    3 A1    4 A1    2 B1    5 A1    6 A1                 
 -0.461  -0.323  -0.251  -0.108  -0.108
  3 B1    1 B2    7 A1    2 B2    4 B1                                         
 -- Virtual --                   
  0.112   0.127   0.134   0.136   0.141   0.155   0.182   0.222
  5 B1    8 A1    3 B2    9 A1    1 A2    6 B1   10 A1    2 A2                 
  0.254   0.316   0.342   0.354   0.361   0.367   0.369   0.380
  7 B1   11 A1   12 A1    8 B1   13 A1    9 B1    4 B2   14 A1                 
  0.395   0.422   0.443   0.443   0.450   0.455   0.584   0.608
 15 A1   10 B1    5 B2   11 B1    3 A2   16 A1   17 A1   12 B1                 
  0.661   0.877   0.911   0.964   0.987   1.035   1.095   1.097
 13 B1   18 A1   19 A1   20 A1   14 B1   21 A1   15 B1   22 A1                 
  1.110   1.153   1.164   1.168   1.169   1.269   1.269   1.322
  6 B2    4 A2   16 B1    7 B2   23 A1   17 B1    8 B2   18 B1                 
  1.323   1.323   1.338   1.341   1.461   1.544   1.672   1.693
  5 A2   24 A1    6 A2    9 B2   19 B1   25 A1   26 A1   20 B1                 
  1.729   1.729   1.777   1.923   1.973   1.997   2.006   2.071
 10 B2   21 B1   27 A1    7 A2   28 A1   11 B2   22 B1   12 B2                 
  2.108   2.141   2.233   2.376   2.376   2.379   2.466   2.519
 29 A1   30 A1    8 A2   23 B1   13 B2   24 B1    9 A2   31 A1                 
  2.534   2.631   2.636   2.871   2.880   3.030   3.305   3.393
 32 A1   25 B1   26 B1   33 A1   34 A1   35 A1   27 B1   28 B1                 
  3.930   3.930   3.959   3.959   4.401
 29 B1   14 B2   10 A2   36 A1   37 A1                                         
 
 Beta MOs, Restricted
 -- Occupied --                  
-20.199 -11.183 -11.181  -0.988  -0.904  -0.728  -0.606  -0.513
  1 A1    2 A1    1 B1    3 A1    4 A1    2 B1    5 A1    6 A1                 
 -0.461  -0.323  -0.251  -0.108  -0.108
  3 B1    1 B2    7 A1    2 B2    4 B1                                         
 -- Virtual --                   
  0.112   0.127   0.134   0.136   0.141   0.155   0.182   0.222
  5 B1    8 A1    3 B2    9 A1    1 A2    6 B1   10 A1    2 A2                 
  0.254   0.316   0.342   0.354   0.361   0.367   0.369   0.380
  7 B1   11 A1   12 A1    8 B1   13 A1    9 B1    4 B2   14 A1                 
  0.395   0.422   0.443   0.443   0.450   0.455   0.584   0.608
 15 A1   10 B1    5 B2   11 B1    3 A2   16 A1   17 A1   12 B1                 
  0.661   0.877   0.911   0.964   0.987   1.035   1.095   1.097
 13 B1   18 A1   19 A1   20 A1   14 B1   21 A1   15 B1   22 A1                 
  1.110   1.153   1.164   1.168   1.169   1.269   1.269   1.322
  6 B2    4 A2   16 B1    7 B2   23 A1   17 B1    8 B2   18 B1                 
  1.323   1.323   1.338   1.341   1.461   1.544   1.672   1.693
  5 A2   24 A1    6 A2    9 B2   19 B1   25 A1   26 A1   20 B1                 
  1.729   1.729   1.777   1.923   1.973   1.997   2.006   2.071
 10 B2   21 B1   27 A1    7 A2   28 A1   11 B2   22 B1   12 B2                 
  2.108   2.141   2.233   2.376   2.376   2.379   2.466   2.519
 29 A1   30 A1    8 A2   23 B1   13 B2   24 B1    9 A2   31 A1                 
  2.534   2.631   2.636   2.871   2.880   3.030   3.305   3.393
 32 A1   25 B1   26 B1   33 A1   34 A1   35 A1   27 B1   28 B1                 
  3.930   3.930   3.959   3.959   4.401
 29 B1   14 B2   10 A2   36 A1   37 A1                                         
 --------------------------------------------------------------
 
          Ground-State Mulliken Net Atomic Charges

     Atom                 Charge (a.u.)
  ----------------------------------------
      1 C                    -0.181326
      2 C                    -0.181326
      3 H                     0.101869
      4 H                     0.101869
      5 H                     0.079456
      6 H                     0.079456
      7 O                    -1.037330
      8 H                     0.037331
  ----------------------------------------
  Sum of atomic charges =    -1.000000

 -----------------------------------------------------------------
                    Cartesian Multipole Moments
 -----------------------------------------------------------------
    Charge (ESU x 10^10)
                -4.8032
    Dipole Moment (Debye)
         X       0.0000      Y      -0.0000      Z      29.1972
       Tot      29.1972
    Quadrupole Moments (Debye-Ang)
        XX     -23.0552     XY      -0.0000     YY     -26.2582
        XZ       0.0000     YZ      -0.0000     ZZ    -199.5154
    Octopole Moments (Debye-Ang^2)
       XXX       0.0000    XXY      -0.0000    XYY       0.0000
       YYY      -0.0000    XXZ      17.5891    XYZ      -0.0000
       YYZ       6.1351    XZZ       0.0000    YZZ       0.0000
       ZZZ    1094.8749
    Hexadecapole Moments (Debye-Ang^3)
      XXXX     -84.2560   XXXY       0.0000   XXYY     -20.9608
      XYYY      -0.0000   YYYY     -37.7238   XXXZ       0.0000
      XXYZ       0.0000   XYYZ       0.0000   YYYZ       0.0000
      XXZZ    -608.0503   XYZZ      -0.0000   YYZZ    -644.7657
      XZZZ       0.0000   YZZZ      -0.0000   ZZZZ   -9457.9179
 -----------------------------------------------------------------
 Total job time:  171.55s(wall), 275.83s(cpu) 
 Thu Mar  3 19:18:00 2022

        *************************************************************
        *                                                           *
        *  Thank you very much for using Q-Chem.  Have a nice day.  *
        *                                                           *
        *************************************************************


