/src/tsommerfeld/qchem/exe/qcprog.exe .input2.078788.9635.qcin.1 /src/jdavis/qchem.scratch/qchem9635/

                  Welcome to Q-Chem
     A Quantum Leap Into The Future Of Chemistry


 Q-Chem 5.4 (devel), Q-Chem, Inc., Pleasanton, CA (2021)

 E. Epifanovsky,  A. T. B. Gilbert,  Xintian Feng,  Joonho Lee,  Yuezhi Mao,  
 N. Mardirossian,  P. Pokhilko,  A. White,  M. Wormit,  M. P. Coons,  
 A. L. Dempwolff,  Zhengting Gan,  D. Hait,  P. R. Horn,  L. D. Jacobson,  
 I. Kaliman,  J. Kussmann,  A. W. Lange,  Ka Un Lao,  D. S. Levine,  Jie Liu,  
 S. C. McKenzie,  A. F. Morrison,  K. Nanda,  F. Plasser,  D. R. Rehn,  
 M. L. Vidal,  Zhi-Qiang You,  Ying Zhu,  B. Alam,  B. Albrecht,  
 A. Aldossary,  E. Alguire,  J. H. Andersen,  D. Barton,  K. Begam,  A. Behn,  
 Y. A. Bernard,  E. J. Berquist,  H. Burton,  A. Carreras,  K. Carter-Fenk,  
 R. Chakraborty,  A. D. Chien,  K. D. Closser,  V. Cofer-Shabica,  
 S. Dasgupta,  Jia Deng,  M. de Wergifosse,  M. Diedenhofen,  Hainam Do,  
 S. Ehlert,  Po-Tung Fang,  S. Fatehi,  Qingguo Feng,  T. Friedhoff,  
 J. Gayvert,  Qinghui Ge,  G. Gidofalvi,  M. Goldey,  J. Gomes,  
 C. Gonzalez-Espinoza,  S. Gulania,  A. Gunina,  M. W. D. Hanson-Heine,  
 P. H. P. Harbach,  A. W. Hauser,  M. F. Herbst,  M. Hernandez Vera,  
 M. Hodecker,  Z. C. Holden,  S. Houck,  Xunkun Huang,  Kerwin Hui,  
 B. C. Huynh,  M. Ivanov,  Hyunjun Ji,  Hanjie Jiang,  B. Kaduk,  S. Kaehler,  
 K. Khistyaev,  Jaehoon Kim,  P. Klunzinger,  Z. Koczor-Benda,  
 Joong Hoon Koh,  D. Kosenkov,  L. Koulias,  T. Kowalczyk,  C. M. Krauter,  
 K. Kue,  A. Kunitsa,  T. Kus,  A. Landau,  K. V. Lawler,  D. Lefrancois,  
 S. Lehtola,  Rain Li,  Yi-Pei Li,  Jiashu Liang,  M. Liebenthal,  
 Hung-Hsuan Lin,  You-Sheng Lin,  Fenglai Liu,  Kuan-Yu Liu,  
 M. Loipersberger,  A. Luenser,  A. Manjanath,  P. Manohar,  E. Mansoor,  
 S. F. Manzer,  Shan-Ping Mao,  A. V. Marenich,  T. Markovich,  S. Mason,  
 S. A. Maurer,  P. F. McLaughlin,  M. F. S. J. Menger,  J.-M. Mewes,  
 S. A. Mewes,  P. Morgante,  J. W. Mullinax,  K. J. Oosterbaan,  G. Paran,  
 Alexander C. Paul,  Suranjan K. Paul,  F. Pavosevic,  Zheng Pei,  S. Prager,  
 E. I. Proynov,  E. Ramos,  B. Rana,  A. E. Rask,  A. Rettig,  R. M. Richard,  
 F. Rob,  E. Rossomme,  T. Scheele,  M. Scheurer,  M. Schneider,  
 N. Sergueev,  S. M. Sharada,  W. Skomorowski,  D. W. Small,  C. J. Stein,  
 Yu-Chuan Su,  E. J. Sundstrom,  Zhen Tao,  J. Thirman,  T. Tsuchimochi,  
 N. M. Tubman,  S. P. Veccham,  O. Vydrov,  J. Wenzel,  J. Witte,  A. Yamada,  
 Kun Yao,  S. Yeganeh,  S. R. Yost,  A. Zech,  Igor Ying Zhang,  Xing Zhang,  
 Yu Zhang,  D. Zuev,  A. Aspuru-Guzik,  A. T. Bell,  N. A. Besley,  
 K. B. Bravaya,  B. R. Brooks,  D. Casanova,  Jeng-Da Chai,  S. Coriani,  
 C. J. Cramer,  A. E. DePrince, III,  R. A. DiStasio Jr.,  A. Dreuw,  
 B. D. Dunietz,  T. R. Furlani,  W. A. Goddard III,  S. Grimme,  
 S. Hammes-Schiffer,  T. Head-Gordon,  W. J. Hehre,  Chao-Ping Hsu,  
 T.-C. Jagau,  Yousung Jung,  A. Klamt,  Jing Kong,  D. S. Lambrecht,  
 WanZhen Liang,  N. J. Mayhall,  C. W. McCurdy,  J. B. Neaton,  
 C. Ochsenfeld,  J. A. Parkhill,  R. Peverati,  V. A. Rassolov,  Yihan Shao,  
 L. V. Slipchenko,  T. Stauch,  R. P. Steele,  J. E. Subotnik,  
 A. J. W. Thom,  A. Tkatchenko,  D. G. Truhlar,  T. Van Voorhis,  
 T. A. Wesolowski,  K. B. Whaley,  H. L. Woodcock III,  P. M. Zimmerman,  
 S. Faraji,  P. M. W. Gill,  M. Head-Gordon,  J. M. Herbert,  A. I. Krylov

 Additional authors for Version 5.4.1: 
 S. Kotaru,  Shaozhi Li,  Xiangyuan Li,  F. Matz,  A. Molle,  Haisheng Ren,  
 Yingli Su,  Hung-Yi Tsai,  C. Utku,  Fang Wang

 Contributors to earlier versions of Q-Chem not listed above: 
 R. D. Adamson,  B. Austin,  R. Baer,  J. Baker,  G. J. O. Beran,  
 K. Brandhorst,  S. T. Brown,  E. F. C. Byrd,  A. K. Chakraborty,  
 G. K. L. Chan,  Chun-Min Chang,  Yunqing Chen,  C.-L. Cheng,  
 Siu Hung Chien,  D. M. Chipman,  D. L. Crittenden,  H. Dachsel,  
 R. J. Doerksen,  A. D. Dutoi,  R. G. Edgar,  J. Fosso-Tande,  
 L. Fusti-Molnar,  D. Ghosh,  A. Ghysels,  A. Golubeva-Zadorozhnaya,  
 J. Gonthier,  M. S. Gordon,  S. R. Gwaltney,  G. Hawkins,  J. E. Herr,  
 A. Heyden,  S. Hirata,  E. G. Hohenstein,  G. Kedziora,  F. J. Keil,  
 C. Kelley,  Jihan Kim,  R. A. King,  R. Z. Khaliullin,  P. P. Korambath,  
 W. Kurlancheek,  A. Laurent,  A. M. Lee,  M. S. Lee,  S. V. Levchenko,  
 Ching Yeh Lin,  D. Liotard,  E. Livshits,  R. C. Lochan,  I. Lotan,  
 L. A. Martinez-Martinez,  P. E. Maslen,  N. Nair,  D. P. O'Neill,  
 D. Neuhauser,  E. Neuscamman,  C. M. Oana,  R. Olivares-Amaya,  R. Olson,  
 T. M. Perrine,  B. Peters,  P. A. Pieniazek,  A. Prociuk,  Y. M. Rhee,  
 J. Ritchie,  M. A. Rohrdanz,  E. Rosta,  N. J. Russ,  H. F. Schaefer III,  
 M. W. Schmidt,  N. E. Schultz,  S. Sharma,  N. Shenvi,  C. D. Sherrill,  
 A. C. Simmonett,  A. Sodt,  T. Stein,  D. Stuck,  K. S. Thanthiriwatte,  
 V. Vanovschi,  L. Vogt,  Tao Wang,  A. Warshel,  M. A. Watson,  
 C. F. Williams,  Q. Wu,  X. Xu,  Jun Yang,  W. Zhang,  Yan Zhao

 Please cite Q-Chem as follows:
 Y. Shao et al., Mol. Phys. 113, 184-215 (2015)
 DOI: 10.1080/00268976.2014.952696

 Q-Chem 5.4.1 for Intel X86 EM64T Linux

 Parts of Q-Chem use Armadillo 9.900.5 (Nocturnal Misbehaviour).
 http://arma.sourceforge.net/

 Q-Chem begins on Thu Mar  3 19:46:34 2022  

 Host: node01
0

     Scratch files written to /src/jdavis/qchem.scratch/qchem9635//
 Processing $rem in /src/tsommerfeld/qchem/config/preferences:
 Processing $rem in /home/jdavis/.qchemrc:

 Checking the input file for inconsistencies... 	...done.

--------------------------------------------------------------
User input:
--------------------------------------------------------------
$molecule
-1 1
C        -0.6645000000    0.0000000000    1.1619088658
C         0.6645000000    0.0000000000    1.1619088658
H        -1.1590800000    0.0000000000    0.1995598658
H         1.1590800000    0.0000000000    0.1995598658
H        -1.1590800000    0.0000000000    2.1242568658
H         1.1590800000    0.0000000000    2.1242568658
O         0.0000000000    0.0000000000   -8.84
H         0.0000000000    0.0000000000   -9.81
$end
$rem
   METHOD adc(2)
   BASIS gen
   PURECART 11
   EE_STATES [0,0,0,10]
   scf_convergence 8
   ADC_DAVIDSON_MAXITER 120
   ADC_DAVIDSON_MAXSUBSPACE 200
   adc_nguess_singles 100
   THRESH 14
   S2THRESH 14
   adc_davidson_conv 5
   adc_davidson_thresh 14
   THREADS 10
   MEM_TOTAL 95000
   STATE_ANALYSIS TRUE
$end
$basis
C 1
S   9   1.00
      6.665000D+03           6.920000D-04
      1.000000D+03           5.329000D-03
      2.280000D+02           2.707700D-02
      6.471000D+01           1.017180D-01
      2.106000D+01           2.747400D-01
      7.495000D+00           4.485640D-01
      2.797000D+00           2.850740D-01
      5.215000D-01           1.520400D-02
      1.596000D-01          -3.191000D-03
S   9   1.00
      6.665000D+03          -1.460000D-04
      1.000000D+03          -1.154000D-03
      2.280000D+02          -5.725000D-03
      6.471000D+01          -2.331200D-02
      2.106000D+01          -6.395500D-02
      7.495000D+00          -1.499810D-01
      2.797000D+00          -1.272620D-01
      5.215000D-01           5.445290D-01
      1.596000D-01           5.804960D-01
S   1   1.00
      1.596000D-01           1.000000D+00
S   1   1.00
      0.0469000              1.0000000
P   4   1.00
      9.439000D+00           3.810900D-02
      2.002000D+00           2.094800D-01
      5.456000D-01           5.085570D-01
      1.517000D-01           4.688420D-01
P   1   1.00
      1.517000D-01           1.000000D+00
P   1   1.00
      0.0901006      1.0000000
P   1   1.00
      0.0450503      1.0000000
D   1   1.00
      5.500000D-01           1.0000000
****
C 2
S   9   1.00
      6.665000D+03           6.920000D-04
      1.000000D+03           5.329000D-03
      2.280000D+02           2.707700D-02
      6.471000D+01           1.017180D-01
      2.106000D+01           2.747400D-01
      7.495000D+00           4.485640D-01
      2.797000D+00           2.850740D-01
      5.215000D-01           1.520400D-02
      1.596000D-01          -3.191000D-03
S   9   1.00
      6.665000D+03          -1.460000D-04
      1.000000D+03          -1.154000D-03
      2.280000D+02          -5.725000D-03
      6.471000D+01          -2.331200D-02
      2.106000D+01          -6.395500D-02
      7.495000D+00          -1.499810D-01
      2.797000D+00          -1.272620D-01
      5.215000D-01           5.445290D-01
      1.596000D-01           5.804960D-01
S   1   1.00
      1.596000D-01           1.000000D+00
S   1   1.00
      0.0469000              1.0000000
P   4   1.00
      9.439000D+00           3.810900D-02
      2.002000D+00           2.094800D-01
      5.456000D-01           5.085570D-01
      1.517000D-01           4.688420D-01
P   1   1.00
      1.517000D-01           1.000000D+00
P   1   1.00
      0.0901006      1.0000000
P   1   1.00
      0.0450503      1.0000000
D   1   1.00
      5.500000D-01           1.0000000
****
H 3
cc-pVDZ
****
H 4
cc-pVDZ
****
H 5
cc-pVDZ
****
H 6
cc-pVDZ
****
O 7
aug-cc-pVDZ
****
H 8
cc-pVDZ
****
$end
--------------------------------------------------------------
 ----------------------------------------------------------------
             Standard Nuclear Orientation (Angstroms)
    I     Atom           X                Y                Z
 ----------------------------------------------------------------
    1      C      -0.6645000000     0.0000000000     3.6394872717
    2      C       0.6645000000    -0.0000000000     3.6394872717
    3      H      -1.1590800000     0.0000000000     2.6771382717
    4      H       1.1590800000    -0.0000000000     2.6771382717
    5      H      -1.1590800000     0.0000000000     4.6018352717
    6      H       1.1590800000    -0.0000000000     4.6018352717
    7      O      -0.0000000000     0.0000000000    -6.3624215941
    8      H      -0.0000000000     0.0000000000    -7.3324215941
 ----------------------------------------------------------------
 Molecular Point Group                 C2v   NOp =  4
 Largest Abelian Subgroup              C2v   NOp =  4
 Nuclear Repulsion Energy =          45.48950572 hartrees
 There are       13 alpha and       13 beta electrons
 Requested basis set is non-standard
 There are 42 shells and 90 basis functions
 Total memory of 95000 MB is distributed as follows: 
   MEM_STATIC is set to 192 MB
   QALLOC/CCMAN JOB total memory use is  94808 MB
 Warning: actual memory use might exceed 95000 MB

 Total QAlloc Memory Limit  95000 MB
 Mega-Array Size       188 MB
 MEM_STATIC part       192 MB

                       Distance Matrix (Angstroms)
             C (  1)   C (  2)   H (  3)   H (  4)   H (  5)   H (  6)
   C (  2)  1.329000
   H (  3)  1.082000  2.061931
   H (  4)  2.061931  1.082000  2.318160
   H (  5)  1.082000  2.061931  1.924697  3.013026
   H (  6)  2.061931  1.082000  3.013026  1.924697  2.318160
   O (  7) 10.023958 10.023958  9.113567  9.113567 11.025352 11.025352
   H (  8) 10.992013 10.992013 10.076446 10.076446 11.990411 11.990411
             O (  7)
   H (  8)  0.970000
 
 A cutoff of  1.0D-14 yielded    657 shell pairs
 There are      2989 function pairs (      3233 Cartesian)
 Smallest overlap matrix eigenvalue = 1.97E-04

 Scale SEOQF with 1.000000e-01/1.000000e-01/1.000000e-02

 Standard Electronic Orientation quadrupole field applied
 Nucleus-field energy     =    -0.0000000060 hartrees
 ================ Generating on-the-fly SAD Guess ================
Attempting to make child job directory: /src/jdavis/qchem.scratch/qchem9635//Frg1/
Attempting to make child job directory: /src/jdavis/qchem.scratch/qchem9635//Frg2/
Attempting to make child job directory: /src/jdavis/qchem.scratch/qchem9635//Frg3/
Creating input file /src/jdavis/qchem.scratch/qchem9635/Frg1.input
using default PutDataFrgm: nothing
calling putenv with: QCSCRATCH=/src/jdavis/qchem.scratch/qchem9635/ 
Spawning Job For Fragment 0
Done Job For Fragment 0
calling putenv with: QCSCRATCH=/src/jdavis/qchem.scratch 
calling putenv with: QCTHREADS=1 
Creating input file /src/jdavis/qchem.scratch/qchem9635/Frg2.input
using default PutDataFrgm: nothing
calling putenv with: QCSCRATCH=/src/jdavis/qchem.scratch/qchem9635/ 
Spawning Job For Fragment 1
Done Job For Fragment 1
calling putenv with: QCSCRATCH=/src/jdavis/qchem.scratch 
calling putenv with: QCTHREADS=1 
Creating input file /src/jdavis/qchem.scratch/qchem9635/Frg3.input
using default PutDataFrgm: nothing
calling putenv with: QCSCRATCH=/src/jdavis/qchem.scratch/qchem9635/ 
Spawning Job For Fragment 2
Done Job For Fragment 2
calling putenv with: QCSCRATCH=/src/jdavis/qchem.scratch 
calling putenv with: QCTHREADS=1 
 Time for running child jobs:  CPU 1.77 s  wall 80.81 s
 ============= Method Specific SAD Guess Constructed =============
 Guess from on-the-fly superposition of atomic densities
 Warning: Energy on first SCF cycle will be non-variational
 A restricted Hartree-Fock SCF calculation will be
 performed using Pulay DIIS extrapolation
 SCF converges when DIIS error is below 1.0E-08
 using 10 threads for integral computing
 -------------------------------------------------------
 OpenMP Integral computing Module                
 Release: version 1.0, May 2013, Q-Chem Inc. Pittsburgh 
 -------------------------------------------------------
 ---------------------------------------
  Cycle       Energy         DIIS Error
 ---------------------------------------
    1    -153.5112164957      5.93E-02
    2    -153.2824569814      1.22E-02
    3    -153.3440944801      1.06E-02
    4    -153.4323322884      6.44E-04
    5    -153.4330713788      1.83E-04
    6    -153.4331189427      3.82E-05
    7    -153.4331215669      9.24E-06
    8    -153.4331218458      2.63E-06
    9    -153.4331218676      4.37E-07
   10    -153.4331218681      5.80E-08
   11    -153.4331218681      1.19E-08
   12    -153.4331218681      2.98E-09 Convergence criterion met
 ---------------------------------------
 SCF time:  CPU 12.07 s  wall 1.21 s
 SCF   energy in the final basis set = -153.43312187
 Total energy in the final basis set = -153.43312187
================================================================================
|                                                                              |
|                                 A D C  M A N                                 |
|                                                                              |
 ------------------------------------------------------------------------------ 
|                                                                              |
| Components:                                                                  |
|                                                                              |
| - libvmm - 1.3-trunk                                                         |
|   Authors:                                                                   |
|   Evgeny Epifanovsky, Ilya Kaliman                                           |
|                                                                              |
| - libtensor - 2.5-trunk                                                      |
|   Authors:                                                                   |
|   Evgeny Epifanovsky, Michael Wormit, Dmitry Zuev, Sam Manzer,               |
|   Ilya Kaliman                                                               |
|                                                                              |
| - libwfa - 1.1-trunk                                                         |
|   Authors:                                                                   |
|   Felix Plasser, Stefanie Mewes (Baeppler), Benjamin Thomitzni,              |
|   Michael Wormit, Feng Chen, Anna I. Krylov, Pavel Pokhilko                  |
|                                                                              |
| - libadc - 1.1-trunk                                                         |
|   Authors:                                                                   |
|   Michael Wormit, Adrian L. Dempwolff, Philipp H. P. Harbach,                |
|   Caroline Krauter, Dirk Rehn, Matthias Schneider, Jan Wenzel                |
|                                                                              |
| - adcman - 2.6-trunk                                                         |
|   Authors:                                                                   |
|   Michael Wormit, Adrian L. Dempwolff, Philipp H. P. Harbach,                |
|   Caroline Krauter, Daniel Lefrancois, Jan-Michael Mewes, Dirk Rehn,         |
|   Matthias Schneider, Jan Wenzel, Andreas Dreuw                              |
|                                                                              |
| Authors of earlier versions of ADCMAN:                                       |
| Andreas Dreuw, Jan Hendrik Starcke, Dirk Rehn, Michael Wormit                |
|                                                                              |
================================================================================

 
 Alpha MOs, Restricted
 -- Occupied --                  
-20.199 -11.183 -11.181  -0.988  -0.904  -0.728  -0.606  -0.513
  1 A1    2 A1    1 B1    3 A1    4 A1    2 B1    5 A1    6 A1                 
 -0.461  -0.323  -0.251  -0.108  -0.108
  3 B1    1 B2    7 A1    4 B1    2 B2                                         
 -- Virtual --                   
  0.134   0.141   0.152   0.155   0.158   0.184   0.200   0.249
  5 B1    8 A1    9 A1    1 A2    3 B2    6 B1   10 A1    2 A2                 
  0.271   0.316   0.378   0.380   0.389   0.413   0.428   0.432
  7 B1   11 A1   12 A1   13 A1    8 B1    9 B1   14 A1   15 A1                 
  0.443   0.443   0.446   0.454   0.465   0.531   0.584   0.600
 10 B1    4 B2    5 B2   16 A1   11 B1    3 A2   17 A1   12 B1                 
  0.673   0.892   0.903   0.985   1.040   1.082   1.140   1.162
 13 B1   18 A1   19 A1   14 B1   20 A1   15 B1   21 A1   22 A1                 
  1.168   1.170   1.202   1.227   1.269   1.269   1.276   1.323
  6 B2   23 A1   16 B1    7 B2   17 B1    8 B2    4 A2    5 A2                 
  1.323   1.339   1.350   1.376   1.533   1.544   1.679   1.729
 24 A1    6 A2    9 B2   18 B1   19 B1   25 A1   26 A1   20 B1                 
  1.729   1.790   1.792   1.933   1.973   1.999   2.023   2.071
 10 B2   21 B1   27 A1    7 A2   28 A1   11 B2   22 B1   12 B2                 
  2.140   2.156   2.238   2.376   2.376   2.388   2.466   2.532
 29 A1   30 A1    8 A2   23 B1   13 B2   24 B1    9 A2   31 A1                 
  2.534   2.613   2.636   2.914   2.917   3.030   3.334   3.403
 32 A1   25 B1   26 B1   33 A1   34 A1   35 A1   27 B1   28 B1                 
  3.930   3.930   3.959   3.959   4.401
 29 B1   14 B2   10 A2   36 A1   37 A1                                         
 
 Beta MOs, Restricted
 -- Occupied --                  
-20.199 -11.183 -11.181  -0.988  -0.904  -0.728  -0.606  -0.513
  1 A1    2 A1    1 B1    3 A1    4 A1    2 B1    5 A1    6 A1                 
 -0.461  -0.323  -0.251  -0.108  -0.108
  3 B1    1 B2    7 A1    4 B1    2 B2                                         
 -- Virtual --                   
  0.134   0.141   0.152   0.155   0.158   0.184   0.200   0.249
  5 B1    8 A1    9 A1    1 A2    3 B2    6 B1   10 A1    2 A2                 
  0.271   0.316   0.378   0.380   0.389   0.413   0.428   0.432
  7 B1   11 A1   12 A1   13 A1    8 B1    9 B1   14 A1   15 A1                 
  0.443   0.443   0.446   0.454   0.465   0.531   0.584   0.600
 10 B1    4 B2    5 B2   16 A1   11 B1    3 A2   17 A1   12 B1                 
  0.673   0.892   0.903   0.985   1.040   1.082   1.140   1.162
 13 B1   18 A1   19 A1   14 B1   20 A1   15 B1   21 A1   22 A1                 
  1.168   1.170   1.202   1.227   1.269   1.269   1.276   1.323
  6 B2   23 A1   16 B1    7 B2   17 B1    8 B2    4 A2    5 A2                 
  1.323   1.339   1.350   1.376   1.533   1.544   1.679   1.729
 24 A1    6 A2    9 B2   18 B1   19 B1   25 A1   26 A1   20 B1                 
  1.729   1.790   1.792   1.933   1.973   1.999   2.023   2.071
 10 B2   21 B1   27 A1    7 A2   28 A1   11 B2   22 B1   12 B2                 
  2.140   2.156   2.238   2.376   2.376   2.388   2.466   2.532
 29 A1   30 A1    8 A2   23 B1   13 B2   24 B1    9 A2   31 A1                 
  2.534   2.613   2.636   2.914   2.917   3.030   3.334   3.403
 32 A1   25 B1   26 B1   33 A1   34 A1   35 A1   27 B1   28 B1                 
  3.930   3.930   3.959   3.959   4.401
 29 B1   14 B2   10 A2   36 A1   37 A1                                         

--------------------------------------------------------------------------------
                                   HF Summary                                   
--------------------------------------------------------------------------------
  Energy:                                                 -153.4331218681 a.u.
  Dip. moment [a.u.]:                  [   0.000000,   -0.000000,   11.487061]
  Total dipole [Debye]:                                              29.197204
  <r^2> [a.u.]:                        [  55.240856,   19.539104, 2266.848606]
  Total <r^2> [a.u.]:                                              2341.628566
--------------------------------------------------------------------------------

--------------------------------------------------------------------------------
                                 MP(2) Summary                                  
--------------------------------------------------------------------------------
  MP energy contribution:                                   -0.5258225691 a.u.
  Total energy:                                           -153.9589444372 a.u.
  Dip. moment [a.u.]:                  [   0.000000,   -0.000000,   11.526334]
  Total dipole [Debye]:                                              29.297024
  <r^2> [a.u.]:                        [  56.195047,   20.237036, 2268.505566]
  Total <r^2> [a.u.]:                                              2344.937648

  Density matrix analysis:
  ------------------------
  NOs
    Occupation of frontier NOs:
       0.0447   1.9370
    Number of electrons: 26.000000
    Number of unpaired electrons: n_u =  0.71444, n_u,nl =  0.08558
    NO participation ratio (PR_NO): 22.903163
  
  
  Mulliken Population Analysis
  Atom      Charge (e)              h+              e-           Del q
  --------------------------------------------------------------------
   1 C       -0.237869        0.087010       -0.102725       -0.015715
   2 C       -0.237869        0.087010       -0.102725       -0.015715
   3 H        0.130142        0.018161       -0.010318        0.007843
   4 H        0.130142        0.018161       -0.010318        0.007843
   5 H        0.107726        0.018490       -0.010618        0.007872
   6 H        0.107726        0.018490       -0.010618        0.007872
   7 O       -1.024958        0.282664       -0.270291        0.012373
   8 H        0.024958        0.017597       -0.029970       -0.012373
  --------------------------------------------------------------------
  Sum:       -1.000000        0.547581       -0.547581       -0.000000
  
  Multipole moment analysis of the density matrix
    Molecular charge:                      -1.000000
    Number of electrons:                   26.000000
      Center of electronic charge [Ang]: [ -0.000000,   0.000000,  -0.234595]
    Total nuclear charge:                  25.000000
      Center of nuclear charge [Ang]:    [ -0.000000,  -0.000000,  -0.000000]
    Dipole moment [D]:                     29.297015
      Cartesian components [D]:          [  0.000000,  -0.000000,  29.297015]
    RMS size of the density [Ang]:         5.020031
      Cartesian components [Ang]:        [  0.777971,   0.466861,   4.937359]
  
  Exciton analysis of the difference density matrix
    <r_h> [Ang]:                  [  0.000000,  -0.000000,  -1.857221]
    <r_e> [Ang]:                  [ -0.000000,   0.000000,  -1.895173]
    |<r_e - r_h>| [Ang]:            0.037952
    Hole size [Ang]:                5.150979
      Cartesian components [Ang]: [  0.819303,   0.711332,   5.035408]
    Electron size [Ang]:            5.299284
      Cartesian components [Ang]: [  1.076672,   0.928929,   5.104927]
--------------------------------------------------------------------------------
  Starting Davidson for singlet states of irrep B2 ... 
--------------------------------------------------------------------------------
   It NVec Conv  Avg. Norm  Max. Norm  Conv. states           Remark
--------------------------------------------------------------------------------
       100    0  1.543e-01  6.154e-01  0.2712 n n n n n n n n Guess.
    1  110    0  1.612e-02  8.464e-02  0.0852 n n n n n n n n 
    2  120    0  2.836e-03  1.613e-02  0.0835 n n n n n n n n 
    3  130    0  1.479e-02  1.107e-01  0.0834 n n n n n n n n 
    4  140    1  3.729e-03  3.644e-02  0.0834 n y n n n n n n 
    5  150    4  1.131e-02  1.131e-01  0.0834 y y n n y y n n 
    6  160    8  7.120e-04  7.119e-03  0.0834 y y y y y y n y 
    7  170    9  9.837e-05  9.837e-04  0.0834 y y y y y y y y 
    8  180    9  6.440e-06  6.440e-05  0.0834 y y y y y y y y 
    9  190   10  8.188e-07  8.188e-06  0.0834 y y y y y y y y Converged.
--------------------------------------------------------------------------------
  Davidson Summary: 
 ------------------------------------------------------------
  State  0: excitation energy =   0.0834 a.u.   (converged)
  State  1: excitation energy =   0.0880 a.u.   (converged)
  State  2: excitation energy =   0.0881 a.u.   (converged)
  State  3: excitation energy =   0.1374 a.u.   (converged)
  State  4: excitation energy =   0.1689 a.u.   (converged)
  State  5: excitation energy =   0.1751 a.u.   (converged)
  State  6: excitation energy =   0.2362 a.u.   (converged)
  State  7: excitation energy =   0.2398 a.u.   (converged)
  State  8: excitation energy =   0.2544 a.u.   (converged)
  State  9: excitation energy =   0.2842 a.u.   (converged)
 ------------------------------------------------------------


--------------------------------------------------------------------------------
                   State-averaged natural transition orbitals
--------------------------------------------------------------------------------
--------------------------------------------------------------------------------

--------------------------------------------------------------------------------
                             Excited State Summary
--------------------------------------------------------------------------------
--------------------------------------------------------------------------------

  Excited state 1 (singlet, B2)                                    [converged]
  ----------------------------------------------------------------------------
  Term symbol:  1 (1) B2                                    R^2 =  5.73857e-11

  Total energy:                                           -153.8755195497 a.u.
  Excitation energy:                                               2.270107 eV

  Osc. strength:                                                      0.000000
  Trans. dip. moment [a.u.]:           [   0.000000,    0.000405,    0.000000]
  <i|r^2|0> [a.u.]:                    [  -0.000000,   -0.000000,    0.000000]

  Dip. moment [a.u.]:                  [   0.000000,    0.000000,   -8.503636]
  Total dipole [Debye]:                                              21.614091
  <r^2> [a.u.]:                        [  81.508958,   25.680353, 2184.989162]
  Total <r^2> [a.u.]:                                              2292.178473

  V1^2 = 0.8496, V2^2 = 0.1504

  Important amplitudes:
      occ i      occ j       vir a       vir b          v   
    ---------------------------------------------------------
     2 (B2) A               8 (A1) A                  0.6143
     2 (B2) A               9 (A1) A                 -0.2094
    ---------------------------------------------------------

  Density matrix analysis:
  ------------------------
  NOs
    Occupation of frontier NOs:
       0.9564   0.9934
    Number of electrons: 26.000000
    Number of unpaired electrons: n_u =  2.76597, n_u,nl =  2.12447
    NO participation ratio (PR_NO):  3.952611
  
  
  Mulliken Population Analysis
  Atom      Charge (e)              h+              e-           Del q
  --------------------------------------------------------------------
   1 C       -0.806858        0.027846       -0.596835       -0.568989
   2 C       -0.806858        0.027846       -0.596835       -0.568989
   3 H        0.148607       -0.001110        0.019575        0.018465
   4 H        0.148607       -0.001110        0.019575        0.018465
   5 H        0.158252        0.007501        0.043024        0.050526
   6 H        0.158252        0.007501        0.043024        0.050526
   7 O       -0.141273        1.416459       -0.532774        0.883684
   8 H        0.141272        0.141552       -0.025238        0.116314
  --------------------------------------------------------------------
  Sum:       -1.000000        1.626483       -1.626483        0.000000
  
  Multipole moment analysis of the density matrix
    Molecular charge:                      -1.000000
    Number of electrons:                   26.000000
      Center of electronic charge [Ang]: [ -0.000000,  -0.000000,   0.173074]
    Total nuclear charge:                  25.000000
      Center of nuclear charge [Ang]:    [ -0.000000,  -0.000000,  -0.000000]
    Dipole moment [D]:                     21.614084
      Cartesian components [D]:          [  0.000000,   0.000000, -21.614084]
    RMS size of the density [Ang]:         4.965638
      Cartesian components [Ang]:        [  0.936952,   0.525914,   4.847999]
  
  Exciton analysis of the difference density matrix
    <r_h> [Ang]:                  [  0.000000,   0.000000,  -6.016377]
    <r_e> [Ang]:                  [ -0.000000,  -0.000000,   0.500384]
    |<r_e - r_h>| [Ang]:            6.516761
    Hole size [Ang]:                2.493817
      Cartesian components [Ang]: [  0.818825,   0.900254,   2.176739]
    Electron size [Ang]:            5.751703
      Cartesian components [Ang]: [  2.242481,   1.321977,   5.128913]

  Transition density matrix analysis:
  -----------------------------------
  
  CT numbers (Mulliken)
    omega =     0.8344
    <Phe> =    -0.0000
  
  Exciton analysis of the transition density matrix
    Trans. dipole moment [D]:             0.000515
      Cartesian components [D]:         [  0.000000,   0.000515,   0.000000]
    <r_h> [Ang]:                        [ -0.000000,   0.000000,  -6.398109]
    <r_e> [Ang]:                        [ -0.000000,  -0.000000,   4.171380]
    |<r_e - r_h>| [Ang]:                 10.569489
    Hole size [Ang]:                      1.092140
      Cartesian components [Ang]:       [  0.486163,   0.842015,   0.497419]
    Electron size [Ang]:                  3.491271
      Cartesian components [Ang]:       [  2.778815,   1.565699,   1.419771]
    RMS electron-hole separation [Ang]:  11.184768
      Cartesian components [Ang]:       [  2.821000,   1.777585,  10.676197]
    Covariance(r_h, r_e) [Ang^2]:        -0.001596
    Correlation coefficient:             -0.000419
    Center-of-mass size [Ang]:            1.828835
      Cartesian components [Ang]:       [  1.410523,   0.888959,   0.751542]

  Decomposition into state-averaged NTOs
    H- 0 -> L+ 0: -0.5780 ( 66.8%)
    H- 0 -> L+ 6:  0.2652 ( 14.1%)
    H- 0 -> L+ 7:  0.1008 (  2.0%)
                   omega =  83.4%
  ----------------------------------------------------------------------------


  Excited state 2 (singlet, B2)                                    [converged]
  ----------------------------------------------------------------------------
  Term symbol:  2 (1) B2                                    R^2 =  3.05306e-11

  Total energy:                                           -153.8709892250 a.u.
  Excitation energy:                                               2.393383 eV

  Osc. strength:                                                      0.000000
  Trans. dip. moment [a.u.]:           [   0.000000,    0.000210,   -0.000000]
  <i|r^2|0> [a.u.]:                    [   0.000000,   -0.000000,   -0.000000]

  Dip. moment [a.u.]:                  [   0.000000,    0.000000,   -7.552015]
  Total dipole [Debye]:                                              19.195312
  <r^2> [a.u.]:                        [  66.110135,   30.102097, 2168.349935]
  Total <r^2> [a.u.]:                                              2264.562167

  V1^2 = 0.8436, V2^2 = 0.1564

  Important amplitudes:
      occ i      occ j       vir a       vir b          v   
    ---------------------------------------------------------
     4 (B1) A               1 (A2) A                  0.6344
     4 (B1) A               2 (A2) A                  0.1355
    ---------------------------------------------------------

  Density matrix analysis:
  ------------------------
  NOs
    Occupation of frontier NOs:
       0.9569   0.9960
    Number of electrons: 26.000000
    Number of unpaired electrons: n_u =  2.75102, n_u,nl =  2.11564
    NO participation ratio (PR_NO):  3.902494
  
  
  Mulliken Population Analysis
  Atom      Charge (e)              h+              e-           Del q
  --------------------------------------------------------------------
   1 C       -0.678475        0.089944       -0.530551       -0.440607
   2 C       -0.678475        0.089944       -0.530551       -0.440607
   3 H        0.095649        0.003192       -0.037686       -0.034493
   4 H        0.095649        0.003192       -0.037686       -0.034493
   5 H        0.082827        0.003723       -0.028622       -0.024900
   6 H        0.082827        0.003723       -0.028622       -0.024900
   7 O       -0.139120        1.405959       -0.520122        0.885837
   8 H        0.139120        0.138723       -0.024561        0.114162
  --------------------------------------------------------------------
  Sum:       -1.000000        1.738401       -1.738401       -0.000000
  
  Multipole moment analysis of the density matrix
    Molecular charge:                      -1.000000
    Number of electrons:                   26.000000
      Center of electronic charge [Ang]: [ -0.000000,  -0.000000,   0.153706]
    Total nuclear charge:                  25.000000
      Center of nuclear charge [Ang]:    [ -0.000000,  -0.000000,  -0.000000]
    Dipole moment [D]:                     19.195306
      Cartesian components [D]:          [  0.000000,   0.000000, -19.195306]
    RMS size of the density [Ang]:         4.936239
      Cartesian components [Ang]:        [  0.843817,   0.569394,   4.830136]
  
  Exciton analysis of the difference density matrix
    <r_h> [Ang]:                  [  0.000000,  -0.000000,  -5.320359]
    <r_e> [Ang]:                  [ -0.000000,  -0.000000,   0.487178]
    |<r_e - r_h>| [Ang]:            5.807536
    Hole size [Ang]:                3.476036
      Cartesian components [Ang]: [  0.917369,   0.792861,   3.257704]
    Electron size [Ang]:            5.215793
      Cartesian components [Ang]: [  1.561642,   1.489205,   4.748478]

  Transition density matrix analysis:
  -----------------------------------
  
  CT numbers (Mulliken)
    omega =     0.8215
    <Phe> =    -0.0000
  
  Exciton analysis of the transition density matrix
    Trans. dipole moment [D]:             0.000267
      Cartesian components [D]:         [  0.000000,   0.000267,  -0.000000]
    <r_h> [Ang]:                        [ -0.000000,   0.000000,  -6.398254]
    <r_e> [Ang]:                        [ -0.000000,  -0.000000,   3.639344]
    |<r_e - r_h>| [Ang]:                 10.037598
    Hole size [Ang]:                      1.090943
      Cartesian components [Ang]:       [  0.841691,   0.486115,   0.495384]
    Electron size [Ang]:                  2.829160
      Cartesian components [Ang]:       [  1.895109,   1.816223,   1.055483]
    RMS electron-hole separation [Ang]:  10.485555
      Cartesian components [Ang]:       [  2.073431,   1.880137,  10.105090]
    Covariance(r_h, r_e) [Ang^2]:         0.000408
    Correlation coefficient:              0.000132
    Center-of-mass size [Ang]:            1.516173
      Cartesian components [Ang]:       [  1.036900,   0.940084,   0.582976]

  Decomposition into state-averaged NTOs
    H- 1 -> L+ 4: -0.4668 ( 43.6%)
    H- 1 -> L+ 8:  0.4390 ( 38.6%)
                   omega =  82.1%
  ----------------------------------------------------------------------------


  Excited state 3 (singlet, B2)                                    [converged]
  ----------------------------------------------------------------------------
  Term symbol:  3 (1) B2                                    R^2 =  6.99218e-11

  Total energy:                                           -153.8708446684 a.u.
  Excitation energy:                                               2.397317 eV

  Osc. strength:                                                      0.000001
  Trans. dip. moment [a.u.]:           [  -0.000000,   -0.003532,   -0.000000]
  <i|r^2|0> [a.u.]:                    [  -0.000000,   -0.000000,    0.000000]

  Dip. moment [a.u.]:                  [  -0.000000,    0.000000,   -6.651402]
  Total dipole [Debye]:                                              16.906181
  <r^2> [a.u.]:                        [  64.893288,   25.348158, 2176.240456]
  Total <r^2> [a.u.]:                                              2266.481902

  V1^2 = 0.8538, V2^2 = 0.1462

  Important amplitudes:
      occ i      occ j       vir a       vir b          v   
    ---------------------------------------------------------
     2 (B2) A               9 (A1) A                 -0.6126
     2 (B2) A               8 (A1) A                 -0.2143
    ---------------------------------------------------------

  Density matrix analysis:
  ------------------------
  NOs
    Occupation of frontier NOs:
       0.9571   0.9957
    Number of electrons: 26.000000
    Number of unpaired electrons: n_u =  2.75965, n_u,nl =  2.12220
    NO participation ratio (PR_NO):  3.924209
  
  
  Mulliken Population Analysis
  Atom      Charge (e)              h+              e-           Del q
  --------------------------------------------------------------------
   1 C       -0.705369        0.017362       -0.484863       -0.467501
   2 C       -0.705369        0.017362       -0.484863       -0.467501
   3 H        0.118673        0.003960       -0.015430       -0.011469
   4 H        0.118673        0.003960       -0.015430       -0.011469
   5 H        0.086772        0.001660       -0.022615       -0.020954
   6 H        0.086772        0.001660       -0.022615       -0.020954
   7 O       -0.140221        1.417227       -0.532490        0.884737
   8 H        0.140070        0.139889       -0.024777        0.115112
  --------------------------------------------------------------------
  Sum:       -1.000000        1.603081       -1.603081        0.000000
  
  Multipole moment analysis of the density matrix
    Molecular charge:                      -1.000000
    Number of electrons:                   26.000000
      Center of electronic charge [Ang]: [  0.000000,  -0.000000,   0.135376]
    Total nuclear charge:                  25.000000
      Center of nuclear charge [Ang]:    [ -0.000000,  -0.000000,  -0.000000]
    Dipole moment [D]:                     16.906176
      Cartesian components [D]:          [ -0.000000,   0.000000, -16.906176]
    RMS size of the density [Ang]:         4.938869
      Cartesian components [Ang]:        [  0.836016,   0.522502,   4.839473]
  
  Exciton analysis of the difference density matrix
    <r_h> [Ang]:                  [  0.000000,   0.000000,  -6.154947]
    <r_e> [Ang]:                  [  0.000000,  -0.000000,  -0.154476]
    |<r_e - r_h>| [Ang]:            6.000471
    Hole size [Ang]:                2.200776
      Cartesian components [Ang]: [  0.814462,   0.903363,   1.834121]
    Electron size [Ang]:            5.384995
      Cartesian components [Ang]: [  1.477420,   1.307243,   5.010640]

  Transition density matrix analysis:
  -----------------------------------
  
  CT numbers (Mulliken)
    omega =     0.8388
    <Phe> =    -0.0000
  
  Exciton analysis of the transition density matrix
    Trans. dipole moment [D]:             0.004489
      Cartesian components [D]:         [ -0.000000,  -0.004489,  -0.000000]
    <r_h> [Ang]:                        [ -0.000000,   0.000000,  -6.398051]
    <r_e> [Ang]:                        [  0.000000,  -0.000000,   3.133289]
    |<r_e - r_h>| [Ang]:                  9.531340
    Hole size [Ang]:                      1.091644
      Cartesian components [Ang]:       [  0.486090,   0.841633,   0.497049]
    Electron size [Ang]:                  3.479685
      Cartesian components [Ang]:       [  1.734314,   1.538980,   2.594590]
    RMS electron-hole separation [Ang]:  10.205372
      Cartesian components [Ang]:       [  1.801126,   1.754049,   9.890848]
    Covariance(r_h, r_e) [Ang^2]:        -0.001639
    Correlation coefficient:             -0.000431
    Center-of-mass size [Ang]:            1.823226
      Cartesian components [Ang]:       [  0.900584,   0.877058,   1.320557]

  Decomposition into state-averaged NTOs
    H- 0 -> L+ 5:  0.6029 ( 72.7%)
    H- 0 -> L+ 6:  0.1894 (  7.2%)
    H- 0 -> L+ 0:  0.1196 (  2.9%)
    H- 0 -> L+ 7: -0.0738 (  1.1%)
                   omega =  83.9%
  ----------------------------------------------------------------------------


  Excited state 4 (singlet, B2)                                    [converged]
  ----------------------------------------------------------------------------
  Term symbol:  4 (1) B2                                    R^2 =  1.89787e-10

  Total energy:                                           -153.8215432866 a.u.
  Excitation energy:                                               3.738875 eV

  Osc. strength:                                                      0.000001
  Trans. dip. moment [a.u.]:           [  -0.000000,   -0.002898,    0.000000]
  <i|r^2|0> [a.u.]:                    [   0.000000,    0.000000,   -0.000000]

  Dip. moment [a.u.]:                  [  -0.000000,   -0.000000,   -7.503416]
  Total dipole [Debye]:                                              19.071785
  <r^2> [a.u.]:                        [  71.688184,   27.677694, 2172.644083]
  Total <r^2> [a.u.]:                                              2272.009961

  V1^2 = 0.8511, V2^2 = 0.1489

  Important amplitudes:
      occ i      occ j       vir a       vir b          v   
    ---------------------------------------------------------
     2 (B2) A              10 (A1) A                 -0.6447
     2 (B2) A               9 (A1) A                  0.0841
    ---------------------------------------------------------

  Density matrix analysis:
  ------------------------
  NOs
    Occupation of frontier NOs:
       0.9566   0.9940
    Number of electrons: 26.000000
    Number of unpaired electrons: n_u =  2.76476, n_u,nl =  2.12341
    NO participation ratio (PR_NO):  3.946362
  
  
  Mulliken Population Analysis
  Atom      Charge (e)              h+              e-           Del q
  --------------------------------------------------------------------
   1 C       -0.763491        0.036025       -0.561648       -0.525623
   2 C       -0.763491        0.036025       -0.561648       -0.525623
   3 H        0.137296        0.000531        0.006623        0.007154
   4 H        0.137296        0.000531        0.006623        0.007154
   5 H        0.126213        0.001358        0.017129        0.018487
   6 H        0.126213        0.001358        0.017129        0.018487
   7 O       -0.140688        1.415661       -0.531391        0.884269
   8 H        0.140654        0.140699       -0.025003        0.115696
  --------------------------------------------------------------------
  Sum:       -1.000000        1.632187       -1.632187       -0.000000
  
  Multipole moment analysis of the density matrix
    Molecular charge:                      -1.000000
    Number of electrons:                   26.000000
      Center of electronic charge [Ang]: [  0.000000,   0.000000,   0.152717]
    Total nuclear charge:                  25.000000
      Center of nuclear charge [Ang]:    [ -0.000000,  -0.000000,  -0.000000]
    Dipole moment [D]:                     19.071779
      Cartesian components [D]:          [ -0.000000,  -0.000000, -19.071779]
    RMS size of the density [Ang]:         4.944388
      Cartesian components [Ang]:        [  0.878695,   0.545983,   4.834953]
  
  Exciton analysis of the difference density matrix
    <r_h> [Ang]:                  [  0.000000,   0.000000,  -5.974555]
    <r_e> [Ang]:                  [  0.000000,   0.000000,   0.195147]
    |<r_e - r_h>| [Ang]:            6.169702
    Hole size [Ang]:                2.563314
      Cartesian components [Ang]: [  0.818587,   0.903161,   2.254949]
    Electron size [Ang]:            5.451226
      Cartesian components [Ang]: [  1.824332,   1.446467,   4.929037]

  Transition density matrix analysis:
  -----------------------------------
  
  CT numbers (Mulliken)
    omega =     0.8361
    <Phe> =    -0.0000
  
  Exciton analysis of the transition density matrix
    Trans. dipole moment [D]:             0.003683
      Cartesian components [D]:         [ -0.000000,  -0.003683,   0.000000]
    <r_h> [Ang]:                        [ -0.000000,   0.000000,  -6.398164]
    <r_e> [Ang]:                        [  0.000000,   0.000000,   3.608977]
    |<r_e - r_h>| [Ang]:                 10.007142
    Hole size [Ang]:                      1.091408
      Cartesian components [Ang]:       [  0.486017,   0.841793,   0.496329]
    Electron size [Ang]:                  3.247656
      Cartesian components [Ang]:       [  2.208926,   1.732882,   1.632493]
    RMS electron-hole separation [Ang]:  10.577456
      Cartesian components [Ang]:       [  2.261744,   1.926353,  10.151663]
    Covariance(r_h, r_e) [Ang^2]:        -0.000626
    Correlation coefficient:             -0.000177
    Center-of-mass size [Ang]:            1.712979
      Cartesian components [Ang]:       [  1.130890,   0.963348,   0.852846]

  Decomposition into state-averaged NTOs
    H- 0 -> L+ 6: -0.5552 ( 61.7%)
    H- 0 -> L+ 0: -0.2444 ( 11.9%)
    H- 0 -> L+ 5:  0.2172 (  9.4%)
                   omega =  83.6%
  ----------------------------------------------------------------------------


  Excited state 5 (singlet, B2)                                    [converged]
  ----------------------------------------------------------------------------
  Term symbol:  5 (1) B2                                    R^2 =  1.02105e-10

  Total energy:                                           -153.7900888964 a.u.
  Excitation energy:                                               4.594793 eV

  Osc. strength:                                                      0.000000
  Trans. dip. moment [a.u.]:           [  -0.000000,   -0.000355,   -0.000000]
  <i|r^2|0> [a.u.]:                    [  -0.000000,   -0.000000,   -0.000000]

  Dip. moment [a.u.]:                  [   0.000000,   -0.000000,   -7.551731]
  Total dipole [Debye]:                                              19.194589
  <r^2> [a.u.]:                        [  70.184768,   34.314950, 2169.812138]
  Total <r^2> [a.u.]:                                              2274.311856

  V1^2 = 0.8416, V2^2 = 0.1584

  Important amplitudes:
      occ i      occ j       vir a       vir b          v   
    ---------------------------------------------------------
     4 (B1) A               2 (A2) A                  0.6297
     4 (B1) A               1 (A2) A                 -0.1457
    ---------------------------------------------------------

  Density matrix analysis:
  ------------------------
  NOs
    Occupation of frontier NOs:
       0.9568   0.9924
    Number of electrons: 26.000000
    Number of unpaired electrons: n_u =  2.76044, n_u,nl =  2.11838
    NO participation ratio (PR_NO):  3.942735
  
  
  Mulliken Population Analysis
  Atom      Charge (e)              h+              e-           Del q
  --------------------------------------------------------------------
   1 C       -0.659811        0.092511       -0.514453       -0.421942
   2 C       -0.659811        0.092511       -0.514453       -0.421942
   3 H        0.086411        0.001402       -0.045133       -0.043731
   4 H        0.086411        0.001402       -0.045133       -0.043731
   5 H        0.073399        0.002011       -0.036338       -0.034327
   6 H        0.073399        0.002011       -0.036338       -0.034327
   7 O       -0.138558        1.402161       -0.515762        0.886399
   8 H        0.138558        0.137978       -0.024377        0.113601
  --------------------------------------------------------------------
  Sum:       -1.000000        1.731988       -1.731988        0.000000
  
  Multipole moment analysis of the density matrix
    Molecular charge:                      -1.000000
    Number of electrons:                   26.000000
      Center of electronic charge [Ang]: [ -0.000000,   0.000000,   0.153700]
    Total nuclear charge:                  25.000000
      Center of nuclear charge [Ang]:    [ -0.000000,  -0.000000,  -0.000000]
    Dipole moment [D]:                     19.194583
      Cartesian components [D]:          [  0.000000,  -0.000000, -19.194583]
    RMS size of the density [Ang]:         4.946864
      Cartesian components [Ang]:        [  0.869433,   0.607934,   4.831766]
  
  Exciton analysis of the difference density matrix
    <r_h> [Ang]:                  [ -0.000000,   0.000000,  -5.327101]
    <r_e> [Ang]:                  [ -0.000000,   0.000000,   0.501852]
    |<r_e - r_h>| [Ang]:            5.828953
    Hole size [Ang]:                3.458565
      Cartesian components [Ang]: [  0.906436,   0.772715,   3.246992]
    Electron size [Ang]:            5.354346
      Cartesian components [Ang]: [  1.755987,   1.695055,   4.765744]

  Transition density matrix analysis:
  -----------------------------------
  
  CT numbers (Mulliken)
    omega =     0.8202
    <Phe> =     0.0000
  
  Exciton analysis of the transition density matrix
    Trans. dipole moment [D]:             0.000452
      Cartesian components [D]:         [ -0.000000,  -0.000452,  -0.000000]
    <r_h> [Ang]:                        [ -0.000000,   0.000000,  -6.398237]
    <r_e> [Ang]:                        [ -0.000000,   0.000000,   3.639451]
    |<r_e - r_h>| [Ang]:                 10.037688
    Hole size [Ang]:                      1.090563
      Cartesian components [Ang]:       [  0.841469,   0.485822,   0.495213]
    Electron size [Ang]:                  3.288757
      Cartesian components [Ang]:       [  2.181109,   2.129703,   1.234119]
    RMS electron-hole separation [Ang]:  10.618827
      Cartesian components [Ang]:       [  2.337608,   2.184401,  10.125387]
    Covariance(r_h, r_e) [Ang^2]:         0.000470
    Correlation coefficient:              0.000131
    Center-of-mass size [Ang]:            1.732498
      Cartesian components [Ang]:       [  1.168996,   1.092212,   0.664883]

  Decomposition into state-averaged NTOs
    H- 1 -> L+ 8:  0.4564 ( 41.7%)
    H- 1 -> L+ 4:  0.4492 ( 40.4%)
                   omega =  82.0%
  ----------------------------------------------------------------------------


  Excited state 6 (singlet, B2)                                    [converged]
  ----------------------------------------------------------------------------
  Term symbol:  6 (1) B2                                    R^2 =  2.00908e-10

  Total energy:                                           -153.7838907208 a.u.
  Excitation energy:                                               4.763454 eV

  Osc. strength:                                                      0.085894
  Trans. dip. moment [a.u.]:           [  -0.000000,    0.857908,    0.000000]
  <i|r^2|0> [a.u.]:                    [   0.000000,    0.000000,    0.000000]

  Dip. moment [a.u.]:                  [  -0.000000,   -0.000000,   12.807707]
  Total dipole [Debye]:                                              32.553949
  <r^2> [a.u.]:                        [  59.903806,   22.589151, 2305.832438]
  Total <r^2> [a.u.]:                                              2388.325396

  V1^2 = 0.9093, V2^2 = 0.0907

  Important amplitudes:
      occ i      occ j       vir a       vir b          v   
    ---------------------------------------------------------
     2 (B2) A              13 (A1) A                 -0.4637
     2 (B2) A              12 (A1) A                 -0.4372
    ---------------------------------------------------------

  Density matrix analysis:
  ------------------------
  NOs
    Occupation of frontier NOs:
       0.9663   1.0001
    Number of electrons: 26.000000
    Number of unpaired electrons: n_u =  2.68979, n_u,nl =  2.09358
    NO participation ratio (PR_NO):  3.693531
  
  
  Mulliken Population Analysis
  Atom      Charge (e)              h+              e-           Del q
  --------------------------------------------------------------------
   1 C       -0.237728        0.000485       -0.000345        0.000140
   2 C       -0.237728        0.000485       -0.000345        0.000140
   3 H        0.129450       -0.000047       -0.000646       -0.000693
   4 H        0.129450       -0.000047       -0.000646       -0.000693
   5 H        0.108190        0.000452        0.000012        0.000463
   6 H        0.108190        0.000452        0.000012        0.000463
   7 O       -1.774387        1.232505       -1.981934       -0.749429
   8 H        0.774565        0.164906        0.584701        0.749607
  --------------------------------------------------------------------
  Sum:       -1.000000        1.399191       -1.399191        0.000000
  
  Multipole moment analysis of the density matrix
    Molecular charge:                      -1.000000
    Number of electrons:                   26.000000
      Center of electronic charge [Ang]: [ -0.000000,   0.000000,  -0.260675]
    Total nuclear charge:                  25.000000
      Center of nuclear charge [Ang]:    [ -0.000000,  -0.000000,  -0.000000]
    Dipole moment [D]:                     32.553940
      Cartesian components [D]:          [  0.000000,  -0.000000,  32.553940]
    RMS size of the density [Ang]:         5.065086
      Cartesian components [Ang]:        [  0.803233,   0.493247,   4.976607]
  
  Exciton analysis of the difference density matrix
    <r_h> [Ang]:                  [ -0.000000,   0.000000,  -6.442522]
    <r_e> [Ang]:                  [ -0.000000,  -0.000000,  -6.927140]
    |<r_e - r_h>| [Ang]:            0.484618
    Hole size [Ang]:                1.397697
      Cartesian components [Ang]: [  0.737859,   0.890469,   0.784975]
    Electron size [Ang]:            2.039075
      Cartesian components [Ang]: [  1.134324,   1.124134,   1.267855]

  Transition density matrix analysis:
  -----------------------------------
  
  CT numbers (Mulliken)
    omega =     0.8896
    <Phe> =    -0.0187
  
  Exciton analysis of the transition density matrix
    Trans. dipole moment [D]:             1.090292
      Cartesian components [D]:         [ -0.000000,   1.090292,   0.000000]
    <r_h> [Ang]:                        [ -0.000000,   0.000000,  -6.398837]
    <r_e> [Ang]:                        [ -0.000000,  -0.000000,  -7.190480]
    |<r_e - r_h>| [Ang]:                  0.791643
    Hole size [Ang]:                      1.074493
      Cartesian components [Ang]:       [  0.478639,   0.828854,   0.488304]
    Electron size [Ang]:                  2.198183
      Cartesian components [Ang]:       [  1.251172,   1.249261,   1.306111]
    RMS electron-hole separation [Ang]:   2.569529
      Cartesian components [Ang]:       [  1.339447,   1.495756,   1.603457]
    Covariance(r_h, r_e) [Ang^2]:         0.005381
    Correlation coefficient:              0.002278
    Center-of-mass size [Ang]:            1.224470
      Cartesian components [Ang]:       [  0.669875,   0.751335,   0.697201]

  Decomposition into state-averaged NTOs
    H- 0 -> L+ 2: -0.5702 ( 65.0%)
    H- 0 -> L+ 1: -0.3453 ( 23.8%)
                   omega =  89.0%
  ----------------------------------------------------------------------------


  Excited state 7 (singlet, B2)                                    [converged]
  ----------------------------------------------------------------------------
  Term symbol:  7 (1) B2                                    R^2 =  2.34581e-08

  Total energy:                                           -153.7227241072 a.u.
  Excitation energy:                                               6.427882 eV

  Osc. strength:                                                      0.000365
  Trans. dip. moment [a.u.]:           [  -0.000000,    0.048127,   -0.000000]
  <i|r^2|0> [a.u.]:                    [   0.000000,    0.000000,    0.000000]

  Dip. moment [a.u.]:                  [  -0.000000,   -0.000000,   -7.508405]
  Total dipole [Debye]:                                              19.084465
  <r^2> [a.u.]:                        [  59.979159,   23.486825, 2172.404741]
  Total <r^2> [a.u.]:                                              2255.870724

  V1^2 = 0.8436, V2^2 = 0.1564

  Important amplitudes:
      occ i      occ j       vir a       vir b          v   
    ---------------------------------------------------------
     2 (B2) A              11 (A1) A                 -0.6445
     2 (B2) A   2 (B2) B   11 (A1) A    4 (B2) B      0.0635
    ---------------------------------------------------------

  Density matrix analysis:
  ------------------------
  NOs
    Occupation of frontier NOs:
       0.9571   0.9866
    Number of electrons: 26.000000
    Number of unpaired electrons: n_u =  2.77507, n_u,nl =  2.12733
    NO participation ratio (PR_NO):  4.002097
  
  
  Mulliken Population Analysis
  Atom      Charge (e)              h+              e-           Del q
  --------------------------------------------------------------------
   1 C       -0.273664        0.070001       -0.105797       -0.035796
   2 C       -0.273664        0.070001       -0.105797       -0.035796
   3 H       -0.101888        0.008153       -0.240183       -0.232030
   4 H       -0.101888        0.008153       -0.240183       -0.232030
   5 H       -0.122196        0.009050       -0.238973       -0.229923
   6 H       -0.122196        0.009050       -0.238973       -0.229923
   7 O       -0.141201        1.400728       -0.516972        0.883756
   8 H        0.136699        0.137244       -0.025503        0.111741
  --------------------------------------------------------------------
  Sum:       -1.000000        1.712381       -1.712381        0.000000
  
  Multipole moment analysis of the density matrix
    Molecular charge:                      -1.000000
    Number of electrons:                   26.000000
      Center of electronic charge [Ang]: [ -0.000000,   0.000000,   0.152818]
    Total nuclear charge:                  25.000000
      Center of nuclear charge [Ang]:    [ -0.000000,  -0.000000,  -0.000000]
    Dipole moment [D]:                     19.084459
      Cartesian components [D]:          [  0.000000,  -0.000000, -19.084459]
    RMS size of the density [Ang]:         4.926775
      Cartesian components [Ang]:        [  0.803738,   0.502952,   4.834683]
  
  Exciton analysis of the difference density matrix
    <r_h> [Ang]:                  [  0.000000,   0.000000,  -5.415144]
    <r_e> [Ang]:                  [ -0.000000,   0.000000,   0.467162]
    |<r_e - r_h>| [Ang]:            5.882307
    Hole size [Ang]:                3.371348
      Cartesian components [Ang]: [  0.833130,   0.887791,   3.143837]
    Electron size [Ang]:            5.089821
      Cartesian components [Ang]: [  1.145831,   1.148745,   4.824286]

  Transition density matrix analysis:
  -----------------------------------
  
  CT numbers (Mulliken)
    omega =     0.8264
    <Phe> =    -0.0001
  
  Exciton analysis of the transition density matrix
    Trans. dipole moment [D]:             0.061164
      Cartesian components [D]:         [ -0.000000,   0.061164,  -0.000000]
    <r_h> [Ang]:                        [ -0.000000,   0.000000,  -6.397836]
    <r_e> [Ang]:                        [ -0.000000,   0.000000,   3.611984]
    |<r_e - r_h>| [Ang]:                 10.009820
    Hole size [Ang]:                      1.091523
      Cartesian components [Ang]:       [  0.485564,   0.840926,   0.498490]
    Electron size [Ang]:                  2.391040
      Cartesian components [Ang]:       [  1.215241,   1.326847,   1.574719]
    RMS electron-hole separation [Ang]:  10.349445
      Cartesian components [Ang]:       [  1.308640,   1.570455,  10.145548]
    Covariance(r_h, r_e) [Ang^2]:        -0.003011
    Correlation coefficient:             -0.001154
    Center-of-mass size [Ang]:            1.313628
      Cartesian components [Ang]:       [  0.654337,   0.785657,   0.824745]

  Decomposition into state-averaged NTOs
    H- 0 -> L+ 7:  0.6272 ( 78.7%)
    H- 0 -> L+ 0:  0.0820 (  1.3%)
    H- 0 -> L+ 5:  0.0812 (  1.3%)
                   omega =  82.6%
  ----------------------------------------------------------------------------


  Excited state 8 (singlet, B2)                                    [converged]
  ----------------------------------------------------------------------------
  Term symbol:  8 (1) B2                                    R^2 =  2.24501e-09

  Total energy:                                           -153.7191414799 a.u.
  Excitation energy:                                               6.525370 eV

  Osc. strength:                                                      0.075573
  Trans. dip. moment [a.u.]:           [   0.000000,   -0.687548,    0.000000]
  <i|r^2|0> [a.u.]:                    [  -0.000000,   -0.000000,    0.000000]

  Dip. moment [a.u.]:                  [   0.000000,    0.000000,    9.200667]
  Total dipole [Debye]:                                              23.385768
  <r^2> [a.u.]:                        [  58.311549,   21.029042, 2222.500088]
  Total <r^2> [a.u.]:                                              2301.840679

  V1^2 = 0.9154, V2^2 = 0.0846

  Important amplitudes:
      occ i      occ j       vir a       vir b          v   
    ---------------------------------------------------------
     2 (B2) A              16 (A1) A                 -0.6443
     2 (B2) A              12 (A1) A                 -0.1436
    ---------------------------------------------------------

  Density matrix analysis:
  ------------------------
  NOs
    Occupation of frontier NOs:
       0.9685   1.0009
    Number of electrons: 26.000000
    Number of unpaired electrons: n_u =  2.68454, n_u,nl =  2.09281
    NO participation ratio (PR_NO):  3.674932
  
  
  Mulliken Population Analysis
  Atom      Charge (e)              h+              e-           Del q
  --------------------------------------------------------------------
   1 C       -0.238789        0.000910       -0.001831       -0.000921
   2 C       -0.238789        0.000910       -0.001831       -0.000921
   3 H        0.131452        0.001448       -0.000139        0.001309
   4 H        0.131452        0.001448       -0.000139        0.001309
   5 H        0.104858        0.000115       -0.002982       -0.002868
   6 H        0.104858        0.000115       -0.002982       -0.002868
   7 O       -0.849171        1.274118       -1.098331        0.175786
   8 H       -0.145870        0.102708       -0.273536       -0.170828
  --------------------------------------------------------------------
  Sum:       -1.000000        1.381772       -1.381772        0.000000
  
  Multipole moment analysis of the density matrix
    Molecular charge:                      -1.000000
    Number of electrons:                   26.000000
      Center of electronic charge [Ang]: [ -0.000000,  -0.000000,  -0.187261]
    Total nuclear charge:                  25.000000
      Center of nuclear charge [Ang]:    [ -0.000000,  -0.000000,  -0.000000]
    Dipole moment [D]:                     23.385761
      Cartesian components [D]:          [  0.000000,   0.000000,  23.385761]
    RMS size of the density [Ang]:         4.975592
      Cartesian components [Ang]:        [  0.792486,   0.475909,   4.888966]
  
  Exciton analysis of the difference density matrix
    <r_h> [Ang]:                  [ -0.000000,  -0.000000,  -6.396878]
    <r_e> [Ang]:                  [ -0.000000,  -0.000000,  -5.506218]
    |<r_e - r_h>| [Ang]:            0.890661
    Hole size [Ang]:                1.460641
      Cartesian components [Ang]: [  0.735430,   0.884330,   0.900320]
    Electron size [Ang]:            2.000276
      Cartesian components [Ang]: [  0.984777,   0.970848,   1.445258]

  Transition density matrix analysis:
  -----------------------------------
  
  CT numbers (Mulliken)
    omega =     0.8961
    <Phe> =    -0.0176
  
  Exciton analysis of the transition density matrix
    Trans. dipole moment [D]:             0.873786
      Cartesian components [D]:         [  0.000000,  -0.873786,   0.000000]
    <r_h> [Ang]:                        [ -0.000000,   0.000000,  -6.396103]
    <r_e> [Ang]:                        [ -0.000000,  -0.000000,  -5.189304]
    |<r_e - r_h>| [Ang]:                  1.206798
    Hole size [Ang]:                      1.073486
      Cartesian components [Ang]:       [  0.478170,   0.827920,   0.488134]
    Electron size [Ang]:                  2.013829
      Cartesian components [Ang]:       [  1.066406,   1.066575,   1.334430]
    RMS electron-hole separation [Ang]:   2.579948
      Cartesian components [Ang]:       [  1.168395,   1.348109,   1.863756]
    Covariance(r_h, r_e) [Ang^2]:         0.004055
    Correlation coefficient:              0.001876
    Center-of-mass size [Ang]:            1.141927
      Cartesian components [Ang]:       [  0.584506,   0.676142,   0.710762]

  Decomposition into state-averaged NTOs
    H- 0 -> L+ 1:  0.5736 ( 65.8%)
    H- 0 -> L+ 2: -0.3417 ( 23.4%)
                   omega =  89.6%
  ----------------------------------------------------------------------------


  Excited state 9 (singlet, B2)                                    [converged]
  ----------------------------------------------------------------------------
  Term symbol:  9 (1) B2                                    R^2 =  8.18787e-06

  Total energy:                                           -153.7045018153 a.u.
  Excitation energy:                                               6.923736 eV

  Osc. strength:                                                      0.000000
  Trans. dip. moment [a.u.]:           [   0.000000,    0.000250,    0.000000]
  <i|r^2|0> [a.u.]:                    [  -0.000000,   -0.000000,    0.000000]

  Dip. moment [a.u.]:                  [  -0.000000,   -0.000000,   -7.561603]
  Total dipole [Debye]:                                              19.219682
  <r^2> [a.u.]:                        [  63.836955,   44.903881, 2171.256472]
  Total <r^2> [a.u.]:                                              2279.997308

  V1^2 = 0.8566, V2^2 = 0.1434

  Important amplitudes:
      occ i      occ j       vir a       vir b          v   
    ---------------------------------------------------------
     7 (A1) A               3 (B2) A                 -0.6527
     7 (A1) A   4 (B1) B    3 (B2) A   10 (B1) B     -0.0557
    ---------------------------------------------------------

  Density matrix analysis:
  ------------------------
  NOs
    Occupation of frontier NOs:
       0.9736   0.9966
    Number of electrons: 26.000000
    Number of unpaired electrons: n_u =  2.80617, n_u,nl =  2.14030
    NO participation ratio (PR_NO):  3.979232
  
  
  Mulliken Population Analysis
  Atom      Charge (e)              h+              e-           Del q
  --------------------------------------------------------------------
   1 C       -0.702102        0.028826       -0.493059       -0.464234
   2 C       -0.702102        0.028826       -0.493059       -0.464234
   3 H        0.106868       -0.001342       -0.021932       -0.023274
   4 H        0.106868       -0.001342       -0.021932       -0.023274
   5 H        0.095234       -0.001480       -0.011012       -0.012492
   6 H        0.095234       -0.001480       -0.011012       -0.012492
   7 O       -0.326661        1.241307       -0.543010        0.698297
   8 H        0.326661        0.319879       -0.018176        0.301703
  --------------------------------------------------------------------
  Sum:       -1.000000        1.613193       -1.613193       -0.000000
  
  Multipole moment analysis of the density matrix
    Molecular charge:                      -1.000000
    Number of electrons:                   26.000000
      Center of electronic charge [Ang]: [  0.000000,   0.000000,   0.153901]
    Total nuclear charge:                  25.000000
      Center of nuclear charge [Ang]:    [ -0.000000,  -0.000000,  -0.000000]
    Dipole moment [D]:                     19.219676
      Cartesian components [D]:          [ -0.000000,  -0.000000, -19.219676]
    RMS size of the density [Ang]:         4.953043
      Cartesian components [Ang]:        [  0.829183,   0.695435,   4.833369]
  
  Exciton analysis of the difference density matrix
    <r_h> [Ang]:                  [ -0.000000,   0.000000,  -6.125276]
    <r_e> [Ang]:                  [  0.000000,   0.000000,   0.136159]
    |<r_e - r_h>| [Ang]:            6.261435
    Hole size [Ang]:                2.267488
      Cartesian components [Ang]: [  0.794069,   0.780988,   1.975099]
    Electron size [Ang]:            5.600822
      Cartesian components [Ang]: [  1.398956,   2.211736,   4.951803]

  Transition density matrix analysis:
  -----------------------------------
  
  CT numbers (Mulliken)
    omega =     0.8394
    <Phe> =     0.0001
  
  Exciton analysis of the transition density matrix
    Trans. dipole moment [D]:             0.000318
      Cartesian components [D]:         [  0.000000,   0.000318,   0.000000]
    <r_h> [Ang]:                        [ -0.000000,   0.000000,  -6.448770]
    <r_e> [Ang]:                        [  0.000000,   0.000000,   3.638963]
    |<r_e - r_h>| [Ang]:                 10.087733
    Hole size [Ang]:                      1.011224
      Cartesian components [Ang]:       [  0.421079,   0.421092,   0.817281]
    Electron size [Ang]:                  3.558265
      Cartesian components [Ang]:       [  1.629836,   2.738604,   1.582697]
    RMS electron-hole separation [Ang]:  10.745146
      Cartesian components [Ang]:       [  1.683449,   2.770994,  10.244304]
    Covariance(r_h, r_e) [Ang^2]:        -0.005988
    Correlation coefficient:             -0.001664
    Center-of-mass size [Ang]:            1.848773
      Cartesian components [Ang]:       [  0.841628,   1.385292,   0.889152]

  Decomposition into state-averaged NTOs
    H- 3 -> L+ 3: -0.6478 ( 83.9%)
                   omega =  83.9%
  ----------------------------------------------------------------------------


  Excited state 10 (singlet, B2)                                    [converged]
  ----------------------------------------------------------------------------
  Term symbol:  10 (1) B2                                   R^2 =  4.01716e-09

  Total energy:                                           -153.6747440898 a.u.
  Excitation energy:                                               7.733485 eV

  Osc. strength:                                                      0.137960
  Trans. dip. moment [a.u.]:           [   0.000000,   -0.853317,    0.000000]
  <i|r^2|0> [a.u.]:                    [  -0.000000,   -0.000000,   -0.000000]

  Dip. moment [a.u.]:                  [   0.000000,    0.000000,    9.708878]
  Total dipole [Debye]:                                              24.677512
  <r^2> [a.u.]:                        [  64.400703,   25.465994, 2301.482282]
  Total <r^2> [a.u.]:                                              2391.348979

  V1^2 = 0.9527, V2^2 = 0.0473

  Important amplitudes:
      occ i      occ j       vir a       vir b          v   
    ---------------------------------------------------------
     1 (B2) A               8 (A1) A                  0.6057
     1 (B2) A              10 (A1) A                 -0.2912
    ---------------------------------------------------------

  Density matrix analysis:
  ------------------------
  NOs
    Occupation of frontier NOs:
       0.9822   0.9909
    Number of electrons: 26.000000
    Number of unpaired electrons: n_u =  2.59360, n_u,nl =  2.06337
    NO participation ratio (PR_NO):  3.426407
  
  
  Mulliken Population Analysis
  Atom      Charge (e)              h+              e-           Del q
  --------------------------------------------------------------------
   1 C       -0.393766        0.528540       -0.684438       -0.155897
   2 C       -0.393766        0.528540       -0.684438       -0.155897
   3 H        0.205129        0.059637        0.015349        0.074986
   4 H        0.205129        0.059637        0.015349        0.074986
   5 H        0.188637        0.093586       -0.012676        0.080911
   6 H        0.188637        0.093586       -0.012676        0.080911
   7 O       -1.025852        0.000764       -0.001659       -0.000895
   8 H        0.025853        0.001096       -0.000201        0.000895
  --------------------------------------------------------------------
  Sum:       -1.000000        1.365388       -1.365388        0.000000
  
  Multipole moment analysis of the density matrix
    Molecular charge:                      -1.000000
    Number of electrons:                   26.000000
      Center of electronic charge [Ang]: [ -0.000000,  -0.000000,  -0.197605]
    Total nuclear charge:                  25.000000
      Center of nuclear charge [Ang]:    [ -0.000000,  -0.000000,  -0.000000]
    Dipole moment [D]:                     24.677504
      Cartesian components [D]:          [  0.000000,   0.000000,  24.677504]
    RMS size of the density [Ang]:         5.071150
      Cartesian components [Ang]:        [  0.832837,   0.523715,   4.974804]
  
  Exciton analysis of the difference density matrix
    <r_h> [Ang]:                  [  0.000000,   0.000000,   3.671102]
    <r_e> [Ang]:                  [ -0.000000,  -0.000000,   4.375485]
    |<r_e - r_h>| [Ang]:            0.704383
    Hole size [Ang]:                1.579216
      Cartesian components [Ang]: [  1.004759,   0.869844,   0.853085]
    Electron size [Ang]:            2.518845
      Cartesian components [Ang]: [  1.640867,   1.352420,   1.350221]

  Transition density matrix analysis:
  -----------------------------------
  
  CT numbers (Mulliken)
    omega =     0.9212
    <Phe> =    -0.0122
  
  Exciton analysis of the transition density matrix
    Trans. dipole moment [D]:             1.084457
      Cartesian components [D]:         [  0.000000,  -1.084457,   0.000000]
    <r_h> [Ang]:                        [ -0.000000,   0.000000,   3.640945]
    <r_e> [Ang]:                        [ -0.000000,  -0.000000,   4.669767]
    |<r_e - r_h>| [Ang]:                  1.028823
    Hole size [Ang]:                      1.254229
      Cartesian components [Ang]:       [  0.755989,   0.861471,   0.509353]
    Electron size [Ang]:                  2.751047
      Cartesian components [Ang]:       [  1.829876,   1.542426,   1.356737]
    RMS electron-hole separation [Ang]:   3.183306
      Cartesian components [Ang]:       [  1.972616,   1.756734,   1.776543]
    Covariance(r_h, r_e) [Ang^2]:         0.033196
    Correlation coefficient:              0.009621
    Center-of-mass size [Ang]:            1.517213
      Cartesian components [Ang]:       [  0.993569,   0.888299,   0.725038]

  Decomposition into state-averaged NTOs
    H- 2 -> L+ 0: -0.6778 ( 91.9%)
                   omega =  92.1%
  ----------------------------------------------------------------------------


--------------------------------------------------------------------------------
  Time of ADC calculation:  CPU 225.38 s  wall 61.97 s
================================================================================
 
 --------------------------------------------------------------
             Orbital Energies (a.u.) and Symmetries
 --------------------------------------------------------------
 
 Alpha MOs, Restricted
 -- Occupied --                  
-20.199 -11.183 -11.181  -0.988  -0.904  -0.728  -0.606  -0.513
  1 A1    2 A1    1 B1    3 A1    4 A1    2 B1    5 A1    6 A1                 
 -0.461  -0.323  -0.251  -0.108  -0.108
  3 B1    1 B2    7 A1    4 B1    2 B2                                         
 -- Virtual --                   
  0.134   0.141   0.152   0.155   0.158   0.184   0.200   0.249
  5 B1    8 A1    9 A1    1 A2    3 B2    6 B1   10 A1    2 A2                 
  0.271   0.316   0.378   0.380   0.389   0.413   0.428   0.432
  7 B1   11 A1   12 A1   13 A1    8 B1    9 B1   14 A1   15 A1                 
  0.443   0.443   0.446   0.454   0.465   0.531   0.584   0.600
 10 B1    4 B2    5 B2   16 A1   11 B1    3 A2   17 A1   12 B1                 
  0.673   0.892   0.903   0.985   1.040   1.082   1.140   1.162
 13 B1   18 A1   19 A1   14 B1   20 A1   15 B1   21 A1   22 A1                 
  1.168   1.170   1.202   1.227   1.269   1.269   1.276   1.323
  6 B2   23 A1   16 B1    7 B2   17 B1    8 B2    4 A2    5 A2                 
  1.323   1.339   1.350   1.376   1.533   1.544   1.679   1.729
 24 A1    6 A2    9 B2   18 B1   19 B1   25 A1   26 A1   20 B1                 
  1.729   1.790   1.792   1.933   1.973   1.999   2.023   2.071
 10 B2   21 B1   27 A1    7 A2   28 A1   11 B2   22 B1   12 B2                 
  2.140   2.156   2.238   2.376   2.376   2.388   2.466   2.532
 29 A1   30 A1    8 A2   23 B1   13 B2   24 B1    9 A2   31 A1                 
  2.534   2.613   2.636   2.914   2.917   3.030   3.334   3.403
 32 A1   25 B1   26 B1   33 A1   34 A1   35 A1   27 B1   28 B1                 
  3.930   3.930   3.959   3.959   4.401
 29 B1   14 B2   10 A2   36 A1   37 A1                                         
 
 Beta MOs, Restricted
 -- Occupied --                  
-20.199 -11.183 -11.181  -0.988  -0.904  -0.728  -0.606  -0.513
  1 A1    2 A1    1 B1    3 A1    4 A1    2 B1    5 A1    6 A1                 
 -0.461  -0.323  -0.251  -0.108  -0.108
  3 B1    1 B2    7 A1    4 B1    2 B2                                         
 -- Virtual --                   
  0.134   0.141   0.152   0.155   0.158   0.184   0.200   0.249
  5 B1    8 A1    9 A1    1 A2    3 B2    6 B1   10 A1    2 A2                 
  0.271   0.316   0.378   0.380   0.389   0.413   0.428   0.432
  7 B1   11 A1   12 A1   13 A1    8 B1    9 B1   14 A1   15 A1                 
  0.443   0.443   0.446   0.454   0.465   0.531   0.584   0.600
 10 B1    4 B2    5 B2   16 A1   11 B1    3 A2   17 A1   12 B1                 
  0.673   0.892   0.903   0.985   1.040   1.082   1.140   1.162
 13 B1   18 A1   19 A1   14 B1   20 A1   15 B1   21 A1   22 A1                 
  1.168   1.170   1.202   1.227   1.269   1.269   1.276   1.323
  6 B2   23 A1   16 B1    7 B2   17 B1    8 B2    4 A2    5 A2                 
  1.323   1.339   1.350   1.376   1.533   1.544   1.679   1.729
 24 A1    6 A2    9 B2   18 B1   19 B1   25 A1   26 A1   20 B1                 
  1.729   1.790   1.792   1.933   1.973   1.999   2.023   2.071
 10 B2   21 B1   27 A1    7 A2   28 A1   11 B2   22 B1   12 B2                 
  2.140   2.156   2.238   2.376   2.376   2.388   2.466   2.532
 29 A1   30 A1    8 A2   23 B1   13 B2   24 B1    9 A2   31 A1                 
  2.534   2.613   2.636   2.914   2.917   3.030   3.334   3.403
 32 A1   25 B1   26 B1   33 A1   34 A1   35 A1   27 B1   28 B1                 
  3.930   3.930   3.959   3.959   4.401
 29 B1   14 B2   10 A2   36 A1   37 A1                                         
 --------------------------------------------------------------
 
          Ground-State Mulliken Net Atomic Charges

     Atom                 Charge (a.u.)
  ----------------------------------------
      1 C                    -0.222153
      2 C                    -0.222153
      3 H                     0.122299
      4 H                     0.122299
      5 H                     0.099854
      6 H                     0.099854
      7 O                    -1.037331
      8 H                     0.037331
  ----------------------------------------
  Sum of atomic charges =    -1.000000

 -----------------------------------------------------------------
                    Cartesian Multipole Moments
 -----------------------------------------------------------------
    Charge (ESU x 10^10)
                -4.8032
    Dipole Moment (Debye)
         X       0.0000      Y      -0.0000      Z      29.1972
       Tot      29.1972
    Quadrupole Moments (Debye-Ang)
        XX     -23.0382     XY      -0.0000     YY     -26.2808
        XZ       0.0000     YZ      -0.0000     ZZ    -199.5072
    Octopole Moments (Debye-Ang^2)
       XXX      -0.0000    XXY       0.0000    XYY       0.0000
       YYY      -0.0000    XXZ      17.6518    XYZ      -0.0000
       YYZ       6.0530    XZZ       0.0000    YZZ      -0.0000
       ZZZ    1094.9671
    Hexadecapole Moments (Debye-Ang^3)
      XXXX     -84.0730   XXXY       0.0000   XXYY     -21.0003
      XYYY      -0.0000   YYYY     -37.8415   XXXZ      -0.0000
      XXYZ       0.0000   XYYZ       0.0000   YYYZ      -0.0000
      XXZZ    -607.7344   XYZZ      -0.0000   YYZZ    -645.1041
      XZZZ       0.0000   YZZZ       0.0000   ZZZZ   -9457.1753
 -----------------------------------------------------------------
 Total job time:  171.62s(wall), 276.29s(cpu) 
 Thu Mar  3 19:49:25 2022

        *************************************************************
        *                                                           *
        *  Thank you very much for using Q-Chem.  Have a nice day.  *
        *                                                           *
        *************************************************************


