/src/tsommerfeld/qchem/exe/qcprog.exe .input1.145455.7897.qcin.1 /src/jdavis/qchem.scratch/qchem7897/

                  Welcome to Q-Chem
     A Quantum Leap Into The Future Of Chemistry


 Q-Chem 5.4 (devel), Q-Chem, Inc., Pleasanton, CA (2021)

 E. Epifanovsky,  A. T. B. Gilbert,  Xintian Feng,  Joonho Lee,  Yuezhi Mao,  
 N. Mardirossian,  P. Pokhilko,  A. White,  M. Wormit,  M. P. Coons,  
 A. L. Dempwolff,  Zhengting Gan,  D. Hait,  P. R. Horn,  L. D. Jacobson,  
 I. Kaliman,  J. Kussmann,  A. W. Lange,  Ka Un Lao,  D. S. Levine,  Jie Liu,  
 S. C. McKenzie,  A. F. Morrison,  K. Nanda,  F. Plasser,  D. R. Rehn,  
 M. L. Vidal,  Zhi-Qiang You,  Ying Zhu,  B. Alam,  B. Albrecht,  
 A. Aldossary,  E. Alguire,  J. H. Andersen,  D. Barton,  K. Begam,  A. Behn,  
 Y. A. Bernard,  E. J. Berquist,  H. Burton,  A. Carreras,  K. Carter-Fenk,  
 R. Chakraborty,  A. D. Chien,  K. D. Closser,  V. Cofer-Shabica,  
 S. Dasgupta,  Jia Deng,  M. de Wergifosse,  M. Diedenhofen,  Hainam Do,  
 S. Ehlert,  Po-Tung Fang,  S. Fatehi,  Qingguo Feng,  T. Friedhoff,  
 J. Gayvert,  Qinghui Ge,  G. Gidofalvi,  M. Goldey,  J. Gomes,  
 C. Gonzalez-Espinoza,  S. Gulania,  A. Gunina,  M. W. D. Hanson-Heine,  
 P. H. P. Harbach,  A. W. Hauser,  M. F. Herbst,  M. Hernandez Vera,  
 M. Hodecker,  Z. C. Holden,  S. Houck,  Xunkun Huang,  Kerwin Hui,  
 B. C. Huynh,  M. Ivanov,  Hyunjun Ji,  Hanjie Jiang,  B. Kaduk,  S. Kaehler,  
 K. Khistyaev,  Jaehoon Kim,  P. Klunzinger,  Z. Koczor-Benda,  
 Joong Hoon Koh,  D. Kosenkov,  L. Koulias,  T. Kowalczyk,  C. M. Krauter,  
 K. Kue,  A. Kunitsa,  T. Kus,  A. Landau,  K. V. Lawler,  D. Lefrancois,  
 S. Lehtola,  Rain Li,  Yi-Pei Li,  Jiashu Liang,  M. Liebenthal,  
 Hung-Hsuan Lin,  You-Sheng Lin,  Fenglai Liu,  Kuan-Yu Liu,  
 M. Loipersberger,  A. Luenser,  A. Manjanath,  P. Manohar,  E. Mansoor,  
 S. F. Manzer,  Shan-Ping Mao,  A. V. Marenich,  T. Markovich,  S. Mason,  
 S. A. Maurer,  P. F. McLaughlin,  M. F. S. J. Menger,  J.-M. Mewes,  
 S. A. Mewes,  P. Morgante,  J. W. Mullinax,  K. J. Oosterbaan,  G. Paran,  
 Alexander C. Paul,  Suranjan K. Paul,  F. Pavosevic,  Zheng Pei,  S. Prager,  
 E. I. Proynov,  E. Ramos,  B. Rana,  A. E. Rask,  A. Rettig,  R. M. Richard,  
 F. Rob,  E. Rossomme,  T. Scheele,  M. Scheurer,  M. Schneider,  
 N. Sergueev,  S. M. Sharada,  W. Skomorowski,  D. W. Small,  C. J. Stein,  
 Yu-Chuan Su,  E. J. Sundstrom,  Zhen Tao,  J. Thirman,  T. Tsuchimochi,  
 N. M. Tubman,  S. P. Veccham,  O. Vydrov,  J. Wenzel,  J. Witte,  A. Yamada,  
 Kun Yao,  S. Yeganeh,  S. R. Yost,  A. Zech,  Igor Ying Zhang,  Xing Zhang,  
 Yu Zhang,  D. Zuev,  A. Aspuru-Guzik,  A. T. Bell,  N. A. Besley,  
 K. B. Bravaya,  B. R. Brooks,  D. Casanova,  Jeng-Da Chai,  S. Coriani,  
 C. J. Cramer,  A. E. DePrince, III,  R. A. DiStasio Jr.,  A. Dreuw,  
 B. D. Dunietz,  T. R. Furlani,  W. A. Goddard III,  S. Grimme,  
 S. Hammes-Schiffer,  T. Head-Gordon,  W. J. Hehre,  Chao-Ping Hsu,  
 T.-C. Jagau,  Yousung Jung,  A. Klamt,  Jing Kong,  D. S. Lambrecht,  
 WanZhen Liang,  N. J. Mayhall,  C. W. McCurdy,  J. B. Neaton,  
 C. Ochsenfeld,  J. A. Parkhill,  R. Peverati,  V. A. Rassolov,  Yihan Shao,  
 L. V. Slipchenko,  T. Stauch,  R. P. Steele,  J. E. Subotnik,  
 A. J. W. Thom,  A. Tkatchenko,  D. G. Truhlar,  T. Van Voorhis,  
 T. A. Wesolowski,  K. B. Whaley,  H. L. Woodcock III,  P. M. Zimmerman,  
 S. Faraji,  P. M. W. Gill,  M. Head-Gordon,  J. M. Herbert,  A. I. Krylov

 Additional authors for Version 5.4.1: 
 S. Kotaru,  Shaozhi Li,  Xiangyuan Li,  F. Matz,  A. Molle,  Haisheng Ren,  
 Yingli Su,  Hung-Yi Tsai,  C. Utku,  Fang Wang

 Contributors to earlier versions of Q-Chem not listed above: 
 R. D. Adamson,  B. Austin,  R. Baer,  J. Baker,  G. J. O. Beran,  
 K. Brandhorst,  S. T. Brown,  E. F. C. Byrd,  A. K. Chakraborty,  
 G. K. L. Chan,  Chun-Min Chang,  Yunqing Chen,  C.-L. Cheng,  
 Siu Hung Chien,  D. M. Chipman,  D. L. Crittenden,  H. Dachsel,  
 R. J. Doerksen,  A. D. Dutoi,  R. G. Edgar,  J. Fosso-Tande,  
 L. Fusti-Molnar,  D. Ghosh,  A. Ghysels,  A. Golubeva-Zadorozhnaya,  
 J. Gonthier,  M. S. Gordon,  S. R. Gwaltney,  G. Hawkins,  J. E. Herr,  
 A. Heyden,  S. Hirata,  E. G. Hohenstein,  G. Kedziora,  F. J. Keil,  
 C. Kelley,  Jihan Kim,  R. A. King,  R. Z. Khaliullin,  P. P. Korambath,  
 W. Kurlancheek,  A. Laurent,  A. M. Lee,  M. S. Lee,  S. V. Levchenko,  
 Ching Yeh Lin,  D. Liotard,  E. Livshits,  R. C. Lochan,  I. Lotan,  
 L. A. Martinez-Martinez,  P. E. Maslen,  N. Nair,  D. P. O'Neill,  
 D. Neuhauser,  E. Neuscamman,  C. M. Oana,  R. Olivares-Amaya,  R. Olson,  
 T. M. Perrine,  B. Peters,  P. A. Pieniazek,  A. Prociuk,  Y. M. Rhee,  
 J. Ritchie,  M. A. Rohrdanz,  E. Rosta,  N. J. Russ,  H. F. Schaefer III,  
 M. W. Schmidt,  N. E. Schultz,  S. Sharma,  N. Shenvi,  C. D. Sherrill,  
 A. C. Simmonett,  A. Sodt,  T. Stein,  D. Stuck,  K. S. Thanthiriwatte,  
 V. Vanovschi,  L. Vogt,  Tao Wang,  A. Warshel,  M. A. Watson,  
 C. F. Williams,  Q. Wu,  X. Xu,  Jun Yang,  W. Zhang,  Yan Zhao

 Please cite Q-Chem as follows:
 Y. Shao et al., Mol. Phys. 113, 184-215 (2015)
 DOI: 10.1080/00268976.2014.952696

 Q-Chem 5.4.1 for Intel X86 EM64T Linux

 Parts of Q-Chem use Armadillo 9.900.5 (Nocturnal Misbehaviour).
 http://arma.sourceforge.net/

 Q-Chem begins on Thu Mar  3 18:45:18 2022  

 Host: node01
0

     Scratch files written to /src/jdavis/qchem.scratch/qchem7897//
 Processing $rem in /src/tsommerfeld/qchem/config/preferences:
 Processing $rem in /home/jdavis/.qchemrc:

 Checking the input file for inconsistencies... 	...done.

--------------------------------------------------------------
User input:
--------------------------------------------------------------
$molecule
-1 1
C        -0.6645000000    0.0000000000    1.1619088658
C         0.6645000000    0.0000000000    1.1619088658
H        -1.1590800000    0.0000000000    0.1995598658
H         1.1590800000    0.0000000000    0.1995598658
H        -1.1590800000    0.0000000000    2.1242568658
H         1.1590800000    0.0000000000    2.1242568658
O         0.0000000000    0.0000000000   -8.84
H         0.0000000000    0.0000000000   -9.81
$end
$rem
   METHOD adc(2)
   BASIS gen
   PURECART 11
   EE_STATES [0,0,0,10]
   scf_convergence 8
   ADC_DAVIDSON_MAXITER 120
   ADC_DAVIDSON_MAXSUBSPACE 200
   adc_nguess_singles 100
   THRESH 14
   S2THRESH 14
   adc_davidson_conv 5
   adc_davidson_thresh 14
   THREADS 10
   MEM_TOTAL 95000
   STATE_ANALYSIS TRUE
$end
$basis
C 1
S   9   1.00
      6.665000D+03           6.920000D-04
      1.000000D+03           5.329000D-03
      2.280000D+02           2.707700D-02
      6.471000D+01           1.017180D-01
      2.106000D+01           2.747400D-01
      7.495000D+00           4.485640D-01
      2.797000D+00           2.850740D-01
      5.215000D-01           1.520400D-02
      1.596000D-01          -3.191000D-03
S   9   1.00
      6.665000D+03          -1.460000D-04
      1.000000D+03          -1.154000D-03
      2.280000D+02          -5.725000D-03
      6.471000D+01          -2.331200D-02
      2.106000D+01          -6.395500D-02
      7.495000D+00          -1.499810D-01
      2.797000D+00          -1.272620D-01
      5.215000D-01           5.445290D-01
      1.596000D-01           5.804960D-01
S   1   1.00
      1.596000D-01           1.000000D+00
S   1   1.00
      0.0469000              1.0000000
P   4   1.00
      9.439000D+00           3.810900D-02
      2.002000D+00           2.094800D-01
      5.456000D-01           5.085570D-01
      1.517000D-01           4.688420D-01
P   1   1.00
      1.517000D-01           1.000000D+00
P   1   1.00
      0.0496473      1.0000000
P   1   1.00
      0.0248236      1.0000000
D   1   1.00
      5.500000D-01           1.0000000
****
C 2
S   9   1.00
      6.665000D+03           6.920000D-04
      1.000000D+03           5.329000D-03
      2.280000D+02           2.707700D-02
      6.471000D+01           1.017180D-01
      2.106000D+01           2.747400D-01
      7.495000D+00           4.485640D-01
      2.797000D+00           2.850740D-01
      5.215000D-01           1.520400D-02
      1.596000D-01          -3.191000D-03
S   9   1.00
      6.665000D+03          -1.460000D-04
      1.000000D+03          -1.154000D-03
      2.280000D+02          -5.725000D-03
      6.471000D+01          -2.331200D-02
      2.106000D+01          -6.395500D-02
      7.495000D+00          -1.499810D-01
      2.797000D+00          -1.272620D-01
      5.215000D-01           5.445290D-01
      1.596000D-01           5.804960D-01
S   1   1.00
      1.596000D-01           1.000000D+00
S   1   1.00
      0.0469000              1.0000000
P   4   1.00
      9.439000D+00           3.810900D-02
      2.002000D+00           2.094800D-01
      5.456000D-01           5.085570D-01
      1.517000D-01           4.688420D-01
P   1   1.00
      1.517000D-01           1.000000D+00
P   1   1.00
      0.0496473      1.0000000
P   1   1.00
      0.0248236      1.0000000
D   1   1.00
      5.500000D-01           1.0000000
****
H 3
cc-pVDZ
****
H 4
cc-pVDZ
****
H 5
cc-pVDZ
****
H 6
cc-pVDZ
****
O 7
aug-cc-pVDZ
****
H 8
cc-pVDZ
****
$end
--------------------------------------------------------------
 ----------------------------------------------------------------
             Standard Nuclear Orientation (Angstroms)
    I     Atom           X                Y                Z
 ----------------------------------------------------------------
    1      C      -0.6645000000     0.0000000000     3.6394872717
    2      C       0.6645000000    -0.0000000000     3.6394872717
    3      H      -1.1590800000     0.0000000000     2.6771382717
    4      H       1.1590800000    -0.0000000000     2.6771382717
    5      H      -1.1590800000     0.0000000000     4.6018352717
    6      H       1.1590800000    -0.0000000000     4.6018352717
    7      O      -0.0000000000     0.0000000000    -6.3624215941
    8      H      -0.0000000000     0.0000000000    -7.3324215941
 ----------------------------------------------------------------
 Molecular Point Group                 C2v   NOp =  4
 Largest Abelian Subgroup              C2v   NOp =  4
 Nuclear Repulsion Energy =          45.48950572 hartrees
 There are       13 alpha and       13 beta electrons
 Requested basis set is non-standard
 There are 42 shells and 90 basis functions
 Total memory of 95000 MB is distributed as follows: 
   MEM_STATIC is set to 192 MB
   QALLOC/CCMAN JOB total memory use is  94808 MB
 Warning: actual memory use might exceed 95000 MB

 Total QAlloc Memory Limit  95000 MB
 Mega-Array Size       188 MB
 MEM_STATIC part       192 MB

                       Distance Matrix (Angstroms)
             C (  1)   C (  2)   H (  3)   H (  4)   H (  5)   H (  6)
   C (  2)  1.329000
   H (  3)  1.082000  2.061931
   H (  4)  2.061931  1.082000  2.318160
   H (  5)  1.082000  2.061931  1.924697  3.013026
   H (  6)  2.061931  1.082000  3.013026  1.924697  2.318160
   O (  7) 10.023958 10.023958  9.113567  9.113567 11.025352 11.025352
   H (  8) 10.992013 10.992013 10.076446 10.076446 11.990411 11.990411
             O (  7)
   H (  8)  0.970000
 
 A cutoff of  1.0D-14 yielded    667 shell pairs
 There are      3043 function pairs (      3287 Cartesian)
 Smallest overlap matrix eigenvalue = 1.71E-04

 Scale SEOQF with 1.000000e-01/1.000000e-01/1.000000e-02

 Standard Electronic Orientation quadrupole field applied
 Nucleus-field energy     =    -0.0000000060 hartrees
 ================ Generating on-the-fly SAD Guess ================
Attempting to make child job directory: /src/jdavis/qchem.scratch/qchem7897//Frg1/
Attempting to make child job directory: /src/jdavis/qchem.scratch/qchem7897//Frg2/
Attempting to make child job directory: /src/jdavis/qchem.scratch/qchem7897//Frg3/
Creating input file /src/jdavis/qchem.scratch/qchem7897/Frg1.input
using default PutDataFrgm: nothing
calling putenv with: QCSCRATCH=/src/jdavis/qchem.scratch/qchem7897/ 
Spawning Job For Fragment 0
Done Job For Fragment 0
calling putenv with: QCSCRATCH=/src/jdavis/qchem.scratch 
calling putenv with: QCTHREADS=1 
Creating input file /src/jdavis/qchem.scratch/qchem7897/Frg2.input
using default PutDataFrgm: nothing
calling putenv with: QCSCRATCH=/src/jdavis/qchem.scratch/qchem7897/ 
Spawning Job For Fragment 1
Done Job For Fragment 1
calling putenv with: QCSCRATCH=/src/jdavis/qchem.scratch 
calling putenv with: QCTHREADS=1 
Creating input file /src/jdavis/qchem.scratch/qchem7897/Frg3.input
using default PutDataFrgm: nothing
calling putenv with: QCSCRATCH=/src/jdavis/qchem.scratch/qchem7897/ 
Spawning Job For Fragment 2
Done Job For Fragment 2
calling putenv with: QCSCRATCH=/src/jdavis/qchem.scratch 
calling putenv with: QCTHREADS=1 
 Time for running child jobs:  CPU 1.77 s  wall 80.58 s
 ============= Method Specific SAD Guess Constructed =============
 Guess from on-the-fly superposition of atomic densities
 Warning: Energy on first SCF cycle will be non-variational
 A restricted Hartree-Fock SCF calculation will be
 performed using Pulay DIIS extrapolation
 SCF converges when DIIS error is below 1.0E-08
 using 10 threads for integral computing
 -------------------------------------------------------
 OpenMP Integral computing Module                
 Release: version 1.0, May 2013, Q-Chem Inc. Pittsburgh 
 -------------------------------------------------------
 ---------------------------------------
  Cycle       Energy         DIIS Error
 ---------------------------------------
    1    -153.5091056314      5.93E-02
    2    -153.2821128106      1.22E-02
    3    -153.3437866711      1.06E-02
    4    -153.4320355481      6.44E-04
    5    -153.4327747496      1.83E-04
    6    -153.4328221929      3.81E-05
    7    -153.4328248137      9.23E-06
    8    -153.4328250908      2.61E-06
    9    -153.4328251122      4.34E-07
   10    -153.4328251127      5.71E-08
   11    -153.4328251127      1.19E-08
   12    -153.4328251127      2.99E-09 Convergence criterion met
 ---------------------------------------
 SCF time:  CPU 12.65 s  wall 1.27 s
 SCF   energy in the final basis set = -153.43282511
 Total energy in the final basis set = -153.43282511
================================================================================
|                                                                              |
|                                 A D C  M A N                                 |
|                                                                              |
 ------------------------------------------------------------------------------ 
|                                                                              |
| Components:                                                                  |
|                                                                              |
| - libvmm - 1.3-trunk                                                         |
|   Authors:                                                                   |
|   Evgeny Epifanovsky, Ilya Kaliman                                           |
|                                                                              |
| - libtensor - 2.5-trunk                                                      |
|   Authors:                                                                   |
|   Evgeny Epifanovsky, Michael Wormit, Dmitry Zuev, Sam Manzer,               |
|   Ilya Kaliman                                                               |
|                                                                              |
| - libwfa - 1.1-trunk                                                         |
|   Authors:                                                                   |
|   Felix Plasser, Stefanie Mewes (Baeppler), Benjamin Thomitzni,              |
|   Michael Wormit, Feng Chen, Anna I. Krylov, Pavel Pokhilko                  |
|                                                                              |
| - libadc - 1.1-trunk                                                         |
|   Authors:                                                                   |
|   Michael Wormit, Adrian L. Dempwolff, Philipp H. P. Harbach,                |
|   Caroline Krauter, Dirk Rehn, Matthias Schneider, Jan Wenzel                |
|                                                                              |
| - adcman - 2.6-trunk                                                         |
|   Authors:                                                                   |
|   Michael Wormit, Adrian L. Dempwolff, Philipp H. P. Harbach,                |
|   Caroline Krauter, Daniel Lefrancois, Jan-Michael Mewes, Dirk Rehn,         |
|   Matthias Schneider, Jan Wenzel, Andreas Dreuw                              |
|                                                                              |
| Authors of earlier versions of ADCMAN:                                       |
| Andreas Dreuw, Jan Hendrik Starcke, Dirk Rehn, Michael Wormit                |
|                                                                              |
================================================================================

 
 Alpha MOs, Restricted
 -- Occupied --                  
-20.199 -11.183 -11.181  -0.988  -0.904  -0.728  -0.606  -0.513
  1 A1    2 A1    1 B1    3 A1    4 A1    2 B1    5 A1    6 A1                 
 -0.461  -0.323  -0.251  -0.108  -0.108
  3 B1    1 B2    7 A1    2 B2    4 B1                                         
 -- Virtual --                   
  0.097   0.108   0.109   0.121   0.121   0.128   0.163   0.195
  5 B1    8 A1    3 B2    1 A2    9 A1    6 B1   10 A1    2 A2                 
  0.250   0.261   0.265   0.280   0.285   0.288   0.321   0.361
  7 B1   11 A1    8 B1    9 B1    4 B2   12 A1   13 A1    3 A2                 
  0.380   0.397   0.405   0.443   0.443   0.455   0.561   0.584
 14 A1   15 A1   10 B1    5 B2   11 B1   16 A1   12 B1   17 A1                 
  0.605   0.796   0.884   0.919   0.946   0.983   0.984   1.033
 13 B1   18 A1   19 A1   20 A1   21 A1   14 B1    6 B2    4 A2                 
  1.045   1.086   1.122   1.168   1.170   1.269   1.269   1.323
 15 B1   22 A1   16 B1    7 B2   23 A1   17 B1    8 B2    5 A2                 
  1.323   1.338   1.338   1.366   1.402   1.544   1.664   1.669
 24 A1    9 B2    6 A2   18 B1   19 B1   25 A1   26 A1   20 B1                 
  1.729   1.729   1.759   1.910   1.971   1.973   1.994   2.062
 10 B2   21 B1   27 A1    7 A2   22 B1   28 A1   11 B2   29 A1                 
  2.071   2.113   2.227   2.371   2.376   2.376   2.466   2.502
 12 B2   30 A1    8 A2   23 B1   24 B1   13 B2    9 A2   31 A1                 
  2.534   2.621   2.624   2.853   2.859   3.030   3.296   3.394
 32 A1   25 B1   26 B1   33 A1   34 A1   35 A1   27 B1   28 B1                 
  3.930   3.930   3.959   3.959   4.401
 29 B1   14 B2   10 A2   36 A1   37 A1                                         
 
 Beta MOs, Restricted
 -- Occupied --                  
-20.199 -11.183 -11.181  -0.988  -0.904  -0.728  -0.606  -0.513
  1 A1    2 A1    1 B1    3 A1    4 A1    2 B1    5 A1    6 A1                 
 -0.461  -0.323  -0.251  -0.108  -0.108
  3 B1    1 B2    7 A1    2 B2    4 B1                                         
 -- Virtual --                   
  0.097   0.108   0.109   0.121   0.121   0.128   0.163   0.195
  5 B1    8 A1    3 B2    1 A2    9 A1    6 B1   10 A1    2 A2                 
  0.250   0.261   0.265   0.280   0.285   0.288   0.321   0.361
  7 B1   11 A1    8 B1    9 B1    4 B2   12 A1   13 A1    3 A2                 
  0.380   0.397   0.405   0.443   0.443   0.455   0.561   0.584
 14 A1   15 A1   10 B1    5 B2   11 B1   16 A1   12 B1   17 A1                 
  0.605   0.796   0.884   0.919   0.946   0.983   0.984   1.033
 13 B1   18 A1   19 A1   20 A1   21 A1   14 B1    6 B2    4 A2                 
  1.045   1.086   1.122   1.168   1.170   1.269   1.269   1.323
 15 B1   22 A1   16 B1    7 B2   23 A1   17 B1    8 B2    5 A2                 
  1.323   1.338   1.338   1.366   1.402   1.544   1.664   1.669
 24 A1    9 B2    6 A2   18 B1   19 B1   25 A1   26 A1   20 B1                 
  1.729   1.729   1.759   1.910   1.971   1.973   1.994   2.062
 10 B2   21 B1   27 A1    7 A2   22 B1   28 A1   11 B2   29 A1                 
  2.071   2.113   2.227   2.371   2.376   2.376   2.466   2.502
 12 B2   30 A1    8 A2   23 B1   24 B1   13 B2    9 A2   31 A1                 
  2.534   2.621   2.624   2.853   2.859   3.030   3.296   3.394
 32 A1   25 B1   26 B1   33 A1   34 A1   35 A1   27 B1   28 B1                 
  3.930   3.930   3.959   3.959   4.401
 29 B1   14 B2   10 A2   36 A1   37 A1                                         

--------------------------------------------------------------------------------
                                   HF Summary                                   
--------------------------------------------------------------------------------
  Energy:                                                 -153.4328251127 a.u.
  Dip. moment [a.u.]:                  [   0.000000,   -0.000000,   11.487346]
  Total dipole [Debye]:                                              29.197925
  <r^2> [a.u.]:                        [  55.257066,   19.514548, 2266.849824]
  Total <r^2> [a.u.]:                                              2341.621438
--------------------------------------------------------------------------------

--------------------------------------------------------------------------------
                                 MP(2) Summary                                  
--------------------------------------------------------------------------------
  MP energy contribution:                                   -0.5240746092 a.u.
  Total energy:                                           -153.9568997220 a.u.
  Dip. moment [a.u.]:                  [   0.000000,    0.000000,   11.526602]
  Total dipole [Debye]:                                              29.297706
  <r^2> [a.u.]:                        [  56.213094,   20.214568, 2268.506755]
  Total <r^2> [a.u.]:                                              2344.934417

  Density matrix analysis:
  ------------------------
  NOs
    Occupation of frontier NOs:
       0.0447   1.9372
    Number of electrons: 26.000000
    Number of unpaired electrons: n_u =  0.71353, n_u,nl =  0.08542
    NO participation ratio (PR_NO): 22.889001
  
  
  Mulliken Population Analysis
  Atom      Charge (e)              h+              e-           Del q
  --------------------------------------------------------------------
   1 C       -0.173210        0.088037       -0.102438       -0.014402
   2 C       -0.173210        0.088037       -0.102438       -0.014402
   3 H        0.097381        0.017429       -0.010264        0.007165
   4 H        0.097381        0.017429       -0.010264        0.007165
   5 H        0.075822        0.017767       -0.010536        0.007231
   6 H        0.075822        0.017767       -0.010536        0.007231
   7 O       -1.024943        0.282686       -0.270288        0.012399
   8 H        0.024958        0.017589       -0.029977       -0.012388
  --------------------------------------------------------------------
  Sum:       -1.000000        0.546740       -0.546740        0.000000
  
  Multipole moment analysis of the density matrix
    Molecular charge:                      -1.000000
    Number of electrons:                   26.000000
      Center of electronic charge [Ang]: [ -0.000000,  -0.000000,  -0.234601]
    Total nuclear charge:                  25.000000
      Center of nuclear charge [Ang]:    [ -0.000000,  -0.000000,  -0.000000]
    Dipole moment [D]:                     29.297697
      Cartesian components [D]:          [  0.000000,   0.000000,  29.297697]
    RMS size of the density [Ang]:         5.020027
      Cartesian components [Ang]:        [  0.778096,   0.466602,   4.937360]
  
  Exciton analysis of the difference density matrix
    <r_h> [Ang]:                  [  0.000000,   0.000000,  -1.866067]
    <r_e> [Ang]:                  [  0.000000,  -0.000000,  -1.904062]
    |<r_e - r_h>| [Ang]:            0.037996
    Hole size [Ang]:                5.151390
      Cartesian components [Ang]: [  0.823711,   0.712458,   5.034950]
    Electron size [Ang]:            5.300038
      Cartesian components [Ang]: [  1.080813,   0.930662,   5.104519]
--------------------------------------------------------------------------------
  Starting Davidson for singlet states of irrep B2 ... 
--------------------------------------------------------------------------------
   It NVec Conv  Avg. Norm  Max. Norm  Conv. states           Remark
--------------------------------------------------------------------------------
       100    0  1.563e-01  5.880e-01  0.2286 n n n n n n n n Guess.
    1  110    0  1.861e-02  9.580e-02  0.0510 n n n n n n n n 
    2  120    0  2.203e-02  1.719e-01  0.0495 n n n n n n n n 
    3  130    0  6.109e-03  5.736e-02  0.0495 n n n n n n n n 
    4  140    1  6.105e-04  5.025e-03  0.0495 n y n n n n n n 
    5  150    4  8.200e-05  5.815e-04  0.0495 y y y n y n n n 
    6  160    7  5.875e-06  4.206e-05  0.0495 y y y y y y n y 
    7  170   10  7.090e-07  5.919e-06  0.0495 y y y y y y y y Converged.
--------------------------------------------------------------------------------
  Davidson Summary: 
 ------------------------------------------------------------
  State  0: excitation energy =   0.0495 a.u.   (converged)
  State  1: excitation energy =   0.0666 a.u.   (converged)
  State  2: excitation energy =   0.0679 a.u.   (converged)
  State  3: excitation energy =   0.0981 a.u.   (converged)
  State  4: excitation energy =   0.1161 a.u.   (converged)
  State  5: excitation energy =   0.1747 a.u.   (converged)
  State  6: excitation energy =   0.1943 a.u.   (converged)
  State  7: excitation energy =   0.2095 a.u.   (converged)
  State  8: excitation energy =   0.2216 a.u.   (converged)
  State  9: excitation energy =   0.2414 a.u.   (converged)
 ------------------------------------------------------------


--------------------------------------------------------------------------------
                   State-averaged natural transition orbitals
--------------------------------------------------------------------------------
--------------------------------------------------------------------------------

--------------------------------------------------------------------------------
                             Excited State Summary
--------------------------------------------------------------------------------
--------------------------------------------------------------------------------

  Excited state 1 (singlet, B2)                                    [converged]
  ----------------------------------------------------------------------------
  Term symbol:  1 (1) B2                                    R^2 =  1.51900e-08

  Total energy:                                           -153.9074053484 a.u.
  Excitation energy:                                               1.346810 eV

  Osc. strength:                                                      0.000003
  Trans. dip. moment [a.u.]:           [  -0.000000,   -0.009144,    0.000000]
  <i|r^2|0> [a.u.]:                    [  -0.000000,   -0.000000,    0.000000]

  Dip. moment [a.u.]:                  [   0.000000,    0.000000,   -7.646403]
  Total dipole [Debye]:                                              19.435222
  <r^2> [a.u.]:                        [  69.407121,   30.901986, 2208.130457]
  Total <r^2> [a.u.]:                                              2308.439564

  V1^2 = 0.8554, V2^2 = 0.1446

  Important amplitudes:
      occ i      occ j       vir a       vir b          v   
    ---------------------------------------------------------
     2 (B2) A               8 (A1) A                 -0.6498
     2 (B2) A   2 (B2) B    8 (A1) A    5 (B2) B     -0.0659
    ---------------------------------------------------------

  Density matrix analysis:
  ------------------------
  NOs
    Occupation of frontier NOs:
       0.9567   0.9982
    Number of electrons: 26.000000
    Number of unpaired electrons: n_u =  2.75531, n_u,nl =  2.12115
    NO participation ratio (PR_NO):  3.903741
  
  
  Mulliken Population Analysis
  Atom      Charge (e)              h+              e-           Del q
  --------------------------------------------------------------------
   1 C       -0.638323        0.006996       -0.472109       -0.465113
   2 C       -0.638323        0.006996       -0.472109       -0.465113
   3 H        0.074347        0.000570       -0.023604       -0.023034
   4 H        0.074347        0.000570       -0.023604       -0.023034
   5 H        0.064514        0.007237       -0.018545       -0.011308
   6 H        0.064514        0.007237       -0.018545       -0.011308
   7 O       -0.141666        1.420727       -0.537450        0.883277
   8 H        0.140590        0.140665       -0.025033        0.115632
  --------------------------------------------------------------------
  Sum:       -1.000000        1.591000       -1.591000       -0.000000
  
  Multipole moment analysis of the density matrix
    Molecular charge:                      -1.000000
    Number of electrons:                   26.000000
      Center of electronic charge [Ang]: [ -0.000000,  -0.000000,   0.155627]
    Total nuclear charge:                  25.000000
      Center of nuclear charge [Ang]:    [ -0.000000,  -0.000000,  -0.000000]
    Dipole moment [D]:                     19.435217
      Cartesian components [D]:          [  0.000000,   0.000000, -19.435217]
    RMS size of the density [Ang]:         4.983817
      Cartesian components [Ang]:        [  0.864602,   0.576909,   4.874225]
  
  Exciton analysis of the difference density matrix
    <r_h> [Ang]:                  [ -0.000000,  -0.000000,  -6.246662]
    <r_e> [Ang]:                  [ -0.000000,  -0.000000,   0.130406]
    |<r_e - r_h>| [Ang]:            6.377067
    Hole size [Ang]:                2.015481
      Cartesian components [Ang]: [  0.812324,   0.902655,   1.608573]
    Electron size [Ang]:            6.053310
      Cartesian components [Ang]: [  1.726882,   1.641906,   5.564583]

  Transition density matrix analysis:
  -----------------------------------
  
  CT numbers (Mulliken)
    omega =     0.8409
    <Phe> =    -0.0000
  
  Exciton analysis of the transition density matrix
    Trans. dipole moment [D]:             0.011621
      Cartesian components [D]:         [ -0.000000,  -0.011621,   0.000000]
    <r_h> [Ang]:                        [ -0.000000,  -0.000000,  -6.398167]
    <r_e> [Ang]:                        [ -0.000000,  -0.000000,   3.690304]
    |<r_e - r_h>| [Ang]:                 10.088470
    Hole size [Ang]:                      1.091463
      Cartesian components [Ang]:       [  0.486085,   0.841914,   0.496180]
    Electron size [Ang]:                  4.512055
      Cartesian components [Ang]:       [  2.073791,   1.987623,   3.479567]
    RMS electron-hole separation [Ang]:  11.105342
      Cartesian components [Ang]:       [  2.129973,   2.158582,  10.683275]
    Covariance(r_h, r_e) [Ang^2]:        -0.000724
    Correlation coefficient:             -0.000147
    Center-of-mass size [Ang]:            2.321017
      Cartesian components [Ang]:       [  1.065011,   1.079288,   1.757273]

  Decomposition into state-averaged NTOs
    H- 0 -> L+ 2:  0.5687 ( 64.7%)
    H- 0 -> L+ 7:  0.2302 ( 10.6%)
    H- 0 -> L+ 8:  0.1533 (  4.7%)
    H- 0 -> L+ 5:  0.1376 (  3.8%)
                   omega =  84.1%
  ----------------------------------------------------------------------------


  Excited state 2 (singlet, B2)                                    [converged]
  ----------------------------------------------------------------------------
  Term symbol:  2 (1) B2                                    R^2 =  1.92524e-09

  Total energy:                                           -153.8903441844 a.u.
  Excitation energy:                                               1.811068 eV

  Osc. strength:                                                      0.000001
  Trans. dip. moment [a.u.]:           [   0.000000,   -0.003779,    0.000000]
  <i|r^2|0> [a.u.]:                    [  -0.000000,   -0.000000,    0.000000]

  Dip. moment [a.u.]:                  [  -0.000000,    0.000000,   -7.554040]
  Total dipole [Debye]:                                              19.200458
  <r^2> [a.u.]:                        [  85.119718,   49.477760, 2174.211229]
  Total <r^2> [a.u.]:                                              2308.808707

  V1^2 = 0.8516, V2^2 = 0.1484

  Important amplitudes:
      occ i      occ j       vir a       vir b          v   
    ---------------------------------------------------------
     4 (B1) A               1 (A2) A                  0.6450
     4 (B1) A               2 (A2) A                  0.0964
    ---------------------------------------------------------

  Density matrix analysis:
  ------------------------
  NOs
    Occupation of frontier NOs:
       0.9563   0.9979
    Number of electrons: 26.000000
    Number of unpaired electrons: n_u =  2.75533, n_u,nl =  2.12035
    NO participation ratio (PR_NO):  3.906931
  
  
  Mulliken Population Analysis
  Atom      Charge (e)              h+              e-           Del q
  --------------------------------------------------------------------
   1 C       -0.654376        0.025881       -0.507047       -0.481165
   2 C       -0.654376        0.025881       -0.507047       -0.481165
   3 H        0.082881        0.000630       -0.015130       -0.014500
   4 H        0.082881        0.000630       -0.015130       -0.014500
   5 H        0.071491        0.001118       -0.005450       -0.004331
   6 H        0.071491        0.001118       -0.005450       -0.004331
   7 O       -0.141740        1.419487       -0.536284        0.883203
   8 H        0.141748        0.142179       -0.025389        0.116790
  --------------------------------------------------------------------
  Sum:       -1.000000        1.616926       -1.616926        0.000000
  
  Multipole moment analysis of the density matrix
    Molecular charge:                      -1.000000
    Number of electrons:                   26.000000
      Center of electronic charge [Ang]: [  0.000000,  -0.000000,   0.153747]
    Total nuclear charge:                  25.000000
      Center of nuclear charge [Ang]:    [ -0.000000,  -0.000000,  -0.000000]
    Dipole moment [D]:                     19.200452
      Cartesian components [D]:          [ -0.000000,   0.000000, -19.200452]
    RMS size of the density [Ang]:         4.984274
      Cartesian components [Ang]:        [  0.957480,   0.729994,   4.836665]
  
  Exciton analysis of the difference density matrix
    <r_h> [Ang]:                  [  0.000000,  -0.000000,  -6.100797]
    <r_e> [Ang]:                  [  0.000000,  -0.000000,   0.143795]
    |<r_e - r_h>| [Ang]:            6.244592
    Hole size [Ang]:                2.321854
      Cartesian components [Ang]: [  0.911713,   0.808269,   1.976484]
    Electron size [Ang]:            6.027735
      Cartesian components [Ang]: [  2.416079,   2.391917,   4.977438]

  Transition density matrix analysis:
  -----------------------------------
  
  CT numbers (Mulliken)
    omega =     0.8355
    <Phe> =     0.0000
  
  Exciton analysis of the transition density matrix
    Trans. dipole moment [D]:             0.004803
      Cartesian components [D]:         [  0.000000,  -0.004803,   0.000000]
    <r_h> [Ang]:                        [ -0.000000,   0.000000,  -6.398251]
    <r_e> [Ang]:                        [  0.000000,  -0.000000,   3.639480]
    |<r_e - r_h>| [Ang]:                 10.037730
    Hole size [Ang]:                      1.091783
      Cartesian components [Ang]:       [  0.842311,   0.486315,   0.495983]
    Electron size [Ang]:                  4.564195
      Cartesian components [Ang]:       [  3.009729,   2.971165,   1.716271]
    RMS electron-hole separation [Ang]:  11.080538
      Cartesian components [Ang]:       [  3.125135,   3.010688,  10.195470]
    Covariance(r_h, r_e) [Ang^2]:         0.000782
    Correlation coefficient:              0.000157
    Center-of-mass size [Ang]:            2.346563
      Cartesian components [Ang]:       [  1.562805,   1.505357,   0.893250]

  Decomposition into state-averaged NTOs
    H- 1 -> L+ 4:  0.5974 ( 71.4%)
    H- 1 -> L+ 9: -0.2467 ( 12.2%)
                   omega =  83.5%
  ----------------------------------------------------------------------------


  Excited state 3 (singlet, B2)                                    [converged]
  ----------------------------------------------------------------------------
  Term symbol:  3 (1) B2                                    R^2 =  5.80722e-09

  Total energy:                                           -153.8889855823 a.u.
  Excitation energy:                                               1.848038 eV

  Osc. strength:                                                      0.000000
  Trans. dip. moment [a.u.]:           [   0.000000,   -0.001279,    0.000000]
  <i|r^2|0> [a.u.]:                    [  -0.000000,   -0.000000,    0.000000]

  Dip. moment [a.u.]:                  [  -0.000000,    0.000000,   -7.556513]
  Total dipole [Debye]:                                              19.206743
  <r^2> [a.u.]:                        [ 115.517630,   28.235436, 2174.889679]
  Total <r^2> [a.u.]:                                              2318.642746

  V1^2 = 0.8532, V2^2 = 0.1468

  Important amplitudes:
      occ i      occ j       vir a       vir b          v   
    ---------------------------------------------------------
     2 (B2) A               9 (A1) A                 -0.6512
     2 (B2) A   2 (B2) B    9 (A1) A    5 (B2) B     -0.0666
    ---------------------------------------------------------

  Density matrix analysis:
  ------------------------
  NOs
    Occupation of frontier NOs:
       0.9563   0.9977
    Number of electrons: 26.000000
    Number of unpaired electrons: n_u =  2.75858, n_u,nl =  2.12257
    NO participation ratio (PR_NO):  3.915896
  
  
  Mulliken Population Analysis
  Atom      Charge (e)              h+              e-           Del q
  --------------------------------------------------------------------
   1 C       -0.696980        0.009705       -0.533475       -0.523770
   2 C       -0.696980        0.009705       -0.533475       -0.523770
   3 H        0.104159        0.000275        0.006504        0.006778
   4 H        0.104159        0.000275        0.006504        0.006778
   5 H        0.092842        0.005406        0.011613        0.017020
   6 H        0.092842        0.005406        0.011613        0.017020
   7 O       -0.142288        1.422074       -0.539419        0.882655
   8 H        0.142247        0.142832       -0.025544        0.117288
  --------------------------------------------------------------------
  Sum:       -1.000000        1.595678       -1.595678       -0.000000
  
  Multipole moment analysis of the density matrix
    Molecular charge:                      -1.000000
    Number of electrons:                   26.000000
      Center of electronic charge [Ang]: [  0.000000,  -0.000000,   0.153797]
    Total nuclear charge:                  25.000000
      Center of nuclear charge [Ang]:    [ -0.000000,  -0.000000,  -0.000000]
    Dipole moment [D]:                     19.206737
      Cartesian components [D]:          [ -0.000000,   0.000000, -19.206737]
    RMS size of the density [Ang]:         4.994886
      Cartesian components [Ang]:        [  1.115420,   0.551457,   4.837419]
  
  Exciton analysis of the difference density matrix
    <r_h> [Ang]:                  [  0.000000,  -0.000000,  -6.246909]
    <r_e> [Ang]:                  [  0.000000,  -0.000000,   0.081653]
    |<r_e - r_h>| [Ang]:            6.328562
    Hole size [Ang]:                2.010580
      Cartesian components [Ang]: [  0.820762,   0.901330,   1.598871]
    Electron size [Ang]:            6.200457
      Cartesian components [Ang]: [  3.328830,   1.489964,   5.014436]

  Transition density matrix analysis:
  -----------------------------------
  
  CT numbers (Mulliken)
    omega =     0.8389
    <Phe> =    -0.0000
  
  Exciton analysis of the transition density matrix
    Trans. dipole moment [D]:             0.001625
      Cartesian components [D]:         [  0.000000,  -0.001625,   0.000000]
    <r_h> [Ang]:                        [ -0.000000,  -0.000000,  -6.398279]
    <r_e> [Ang]:                        [  0.000000,  -0.000000,   3.640508]
    |<r_e - r_h>| [Ang]:                 10.038787
    Hole size [Ang]:                      1.091764
      Cartesian components [Ang]:       [  0.486311,   0.842298,   0.495968]
    Electron size [Ang]:                  4.862790
      Cartesian components [Ang]:       [  4.155844,   1.790339,   1.780554]
    RMS electron-hole separation [Ang]:  11.207863
      Cartesian components [Ang]:       [  4.184176,   1.978579,  10.207550]
    Covariance(r_h, r_e) [Ang^2]:        -0.000132
    Correlation coefficient:             -0.000025
    Center-of-mass size [Ang]:            2.491908
      Cartesian components [Ang]:       [  2.092113,   0.989291,   0.924104]

  Decomposition into state-averaged NTOs
    H- 0 -> L+ 5: -0.5597 ( 62.6%)
    H- 0 -> L+ 6: -0.3068 ( 18.8%)
    H- 0 -> L+ 2:  0.0931 (  1.7%)
                   omega =  83.9%
  ----------------------------------------------------------------------------


  Excited state 4 (singlet, B2)                                    [converged]
  ----------------------------------------------------------------------------
  Term symbol:  4 (1) B2                                    R^2 =  2.47938e-08

  Total energy:                                           -153.8588056467 a.u.
  Excitation energy:                                               2.669276 eV

  Osc. strength:                                                      0.000000
  Trans. dip. moment [a.u.]:           [   0.000000,   -0.000372,    0.000000]
  <i|r^2|0> [a.u.]:                    [   0.000000,   -0.000000,    0.000000]

  Dip. moment [a.u.]:                  [  -0.000000,    0.000000,   -7.448819]
  Total dipole [Debye]:                                              18.933013
  <r^2> [a.u.]:                        [  66.954007,   30.254971, 2173.450619]
  Total <r^2> [a.u.]:                                              2270.659596

  V1^2 = 0.8498, V2^2 = 0.1502

  Important amplitudes:
      occ i      occ j       vir a       vir b          v   
    ---------------------------------------------------------
     2 (B2) A              10 (A1) A                  0.6459
     2 (B2) A   2 (B2) B   10 (A1) A    5 (B2) B      0.0650
    ---------------------------------------------------------

  Density matrix analysis:
  ------------------------
  NOs
    Occupation of frontier NOs:
       0.9567   0.9927
    Number of electrons: 26.000000
    Number of unpaired electrons: n_u =  2.76539, n_u,nl =  2.12398
    NO participation ratio (PR_NO):  3.953206
  
  
  Mulliken Population Analysis
  Atom      Charge (e)              h+              e-           Del q
  --------------------------------------------------------------------
   1 C       -0.758805        0.037141       -0.622736       -0.585594
   2 C       -0.758805        0.037141       -0.622736       -0.585594
   3 H        0.133778       -0.000651        0.037049        0.036398
   4 H        0.133778       -0.000651        0.037049        0.036398
   5 H        0.125070        0.000384        0.048864        0.049248
   6 H        0.125070        0.000384        0.048864        0.049248
   7 O       -0.140349        1.413635       -0.529040        0.884595
   8 H        0.140261        0.140176       -0.024873        0.115302
  --------------------------------------------------------------------
  Sum:       -1.000000        1.627559       -1.627559       -0.000000
  
  Multipole moment analysis of the density matrix
    Molecular charge:                      -1.000000
    Number of electrons:                   26.000000
      Center of electronic charge [Ang]: [ -0.000000,  -0.000000,   0.151606]
    Total nuclear charge:                  25.000000
      Center of nuclear charge [Ang]:    [ -0.000000,  -0.000000,  -0.000000]
    Dipole moment [D]:                     18.933007
      Cartesian components [D]:          [  0.000000,   0.000000, -18.933007]
    RMS size of the density [Ang]:         4.942951
      Cartesian components [Ang]:        [  0.849186,   0.570838,   4.835886]
  
  Exciton analysis of the difference density matrix
    <r_h> [Ang]:                  [  0.000000,  -0.000000,  -5.985907]
    <r_e> [Ang]:                  [ -0.000000,  -0.000000,   0.183674]
    |<r_e - r_h>| [Ang]:            6.169581
    Hole size [Ang]:                2.543468
      Cartesian components [Ang]: [  0.817109,   0.906691,   2.231474]
    Electron size [Ang]:            5.430219
      Cartesian components [Ang]: [  1.586092,   1.596741,   4.941863]

  Transition density matrix analysis:
  -----------------------------------
  
  CT numbers (Mulliken)
    omega =     0.8343
    <Phe> =    -0.0000
  
  Exciton analysis of the transition density matrix
    Trans. dipole moment [D]:             0.000473
      Cartesian components [D]:         [  0.000000,  -0.000473,   0.000000]
    <r_h> [Ang]:                        [ -0.000000,  -0.000000,  -6.398029]
    <r_e> [Ang]:                        [ -0.000000,  -0.000000,   3.578182]
    |<r_e - r_h>| [Ang]:                  9.976211
    Hole size [Ang]:                      1.091876
      Cartesian components [Ang]:       [  0.485984,   0.841699,   0.497547]
    Electron size [Ang]:                  3.221267
      Cartesian components [Ang]:       [  1.886037,   1.932263,   1.756640]
    RMS electron-hole separation [Ang]:  10.540238
      Cartesian components [Ang]:       [  1.947630,   2.107303,  10.142121]
    Covariance(r_h, r_e) [Ang^2]:        -0.001535
    Correlation coefficient:             -0.000436
    Center-of-mass size [Ang]:            1.700418
      Cartesian components [Ang]:       [  0.973829,   1.053977,   0.912255]

  Decomposition into state-averaged NTOs
    H- 0 -> L+ 6:  0.4199 ( 35.3%)
    H- 0 -> L+ 8: -0.3922 ( 30.8%)
    H- 0 -> L+ 5: -0.2377 ( 11.3%)
    H- 0 -> L+ 2:  0.1626 (  5.3%)
                   omega =  83.4%
  ----------------------------------------------------------------------------


  Excited state 5 (singlet, B2)                                    [converged]
  ----------------------------------------------------------------------------
  Term symbol:  5 (1) B2                                    R^2 =  6.08791e-09

  Total energy:                                           -153.8407844038 a.u.
  Excitation energy:                                               3.159658 eV

  Osc. strength:                                                      0.000000
  Trans. dip. moment [a.u.]:           [   0.000000,   -0.002454,   -0.000000]
  <i|r^2|0> [a.u.]:                    [  -0.000000,   -0.000000,   -0.000000]

  Dip. moment [a.u.]:                  [  -0.000000,   -0.000000,   -7.551549]
  Total dipole [Debye]:                                              19.194125
  <r^2> [a.u.]:                        [  69.414492,   33.230266, 2169.704479]
  Total <r^2> [a.u.]:                                              2272.349237

  V1^2 = 0.8390, V2^2 = 0.1610

  Important amplitudes:
      occ i      occ j       vir a       vir b          v   
    ---------------------------------------------------------
     4 (B1) A               2 (A2) A                 -0.6330
     4 (B1) A               1 (A2) A                  0.1026
    ---------------------------------------------------------

  Density matrix analysis:
  ------------------------
  NOs
    Occupation of frontier NOs:
       0.9568   0.9964
    Number of electrons: 26.000000
    Number of unpaired electrons: n_u =  2.74683, n_u,nl =  2.11325
    NO participation ratio (PR_NO):  3.890624
  
  
  Mulliken Population Analysis
  Atom      Charge (e)              h+              e-           Del q
  --------------------------------------------------------------------
   1 C       -0.580974        0.120887       -0.528650       -0.407763
   2 C       -0.580974        0.120887       -0.528650       -0.407763
   3 H        0.046952        0.003980       -0.054409       -0.050429
   4 H        0.046952        0.003980       -0.054409       -0.050429
   5 H        0.034018        0.004531       -0.046334       -0.041804
   6 H        0.034018        0.004531       -0.046334       -0.041804
   7 O       -0.137977        1.398702       -0.511736        0.886966
   8 H        0.137984        0.137218       -0.024192        0.113026
  --------------------------------------------------------------------
  Sum:       -1.000000        1.794715       -1.794715        0.000000
  
  Multipole moment analysis of the density matrix
    Molecular charge:                      -1.000000
    Number of electrons:                   26.000000
      Center of electronic charge [Ang]: [  0.000000,   0.000000,   0.153696]
    Total nuclear charge:                  25.000000
      Center of nuclear charge [Ang]:    [ -0.000000,  -0.000000,  -0.000000]
    Dipole moment [D]:                     19.194120
      Cartesian components [D]:          [ -0.000000,  -0.000000, -19.194120]
    RMS size of the density [Ang]:         4.944727
      Cartesian components [Ang]:        [  0.864648,   0.598248,   4.831646]
  
  Exciton analysis of the difference density matrix
    <r_h> [Ang]:                  [  0.000000,  -0.000000,  -4.989647]
    <r_e> [Ang]:                  [  0.000000,   0.000000,   0.635603]
    |<r_e - r_h>| [Ang]:            5.625250
    Hole size [Ang]:                3.811008
      Cartesian components [Ang]: [  0.915070,   0.776292,   3.617154]
    Electron size [Ang]:            5.262218
      Cartesian components [Ang]: [  1.702105,   1.622795,   4.707475]

  Transition density matrix analysis:
  -----------------------------------
  
  CT numbers (Mulliken)
    omega =     0.8141
    <Phe> =     0.0000
  
  Exciton analysis of the transition density matrix
    Trans. dipole moment [D]:             0.003118
      Cartesian components [D]:         [  0.000000,  -0.003118,  -0.000000]
    <r_h> [Ang]:                        [ -0.000000,   0.000000,  -6.398188]
    <r_e> [Ang]:                        [  0.000000,   0.000000,   3.639438]
    |<r_e - r_h>| [Ang]:                 10.037626
    Hole size [Ang]:                      1.090778
      Cartesian components [Ang]:       [  0.841537,   0.485861,   0.495531]
    Electron size [Ang]:                  3.177620
      Cartesian components [Ang]:       [  2.116302,   2.049262,   1.191243]
    RMS electron-hole separation [Ang]:  10.584902
      Cartesian components [Ang]:       [  2.277305,   2.106060,  10.120205]
    Covariance(r_h, r_e) [Ang^2]:         0.000421
    Correlation coefficient:              0.000122
    Center-of-mass size [Ang]:            1.679874
      Cartesian components [Ang]:       [  1.138828,   1.053042,   0.645098]

  Decomposition into state-averaged NTOs
    H- 1 -> L+ 9:  0.5864 ( 68.8%)
    H- 1 -> L+ 4:  0.2513 ( 12.6%)
                   omega =  81.4%
  ----------------------------------------------------------------------------


  Excited state 6 (singlet, B2)                                    [converged]
  ----------------------------------------------------------------------------
  Term symbol:  6 (1) B2                                    R^2 =  1.55493e-07

  Total energy:                                           -153.7822125764 a.u.
  Excitation energy:                                               4.753479 eV

  Osc. strength:                                                      0.081743
  Trans. dip. moment [a.u.]:           [  -0.000000,    0.837802,    0.000000]
  <i|r^2|0> [a.u.]:                    [  -0.000000,   -0.000000,    0.000000]

  Dip. moment [a.u.]:                  [   0.000000,   -0.000000,   12.299053]
  Total dipole [Debye]:                                              31.261079
  <r^2> [a.u.]:                        [  59.972983,   22.639887, 2302.080700]
  Total <r^2> [a.u.]:                                              2384.693570

  V1^2 = 0.9076, V2^2 = 0.0924

  Important amplitudes:
      occ i      occ j       vir a       vir b          v   
    ---------------------------------------------------------
     2 (B2) A              14 (A1) A                  0.6233
     2 (B2) A              16 (A1) A                 -0.1786
    ---------------------------------------------------------

  Density matrix analysis:
  ------------------------
  NOs
    Occupation of frontier NOs:
       0.9660   0.9997
    Number of electrons: 26.000000
    Number of unpaired electrons: n_u =  2.69135, n_u,nl =  2.09426
    NO participation ratio (PR_NO):  3.699260
  
  
  Mulliken Population Analysis
  Atom      Charge (e)              h+              e-           Del q
  --------------------------------------------------------------------
   1 C       -0.188420        0.001556       -0.016765       -0.015209
   2 C       -0.188420        0.001556       -0.016765       -0.015209
   3 H        0.098230       -0.000036        0.000885        0.000850
   4 H        0.098230       -0.000036        0.000885        0.000850
   5 H        0.077557        0.000213        0.001522        0.001735
   6 H        0.077557        0.000213        0.001522        0.001735
   7 O       -1.739068        1.235863       -1.949988       -0.714125
   8 H        0.764333        0.165351        0.574024        0.739374
  --------------------------------------------------------------------
  Sum:       -1.000000        1.404680       -1.404680        0.000000
  
  Multipole moment analysis of the density matrix
    Molecular charge:                      -1.000000
    Number of electrons:                   26.000000
      Center of electronic charge [Ang]: [  0.000000,   0.000000,  -0.250322]
    Total nuclear charge:                  25.000000
      Center of nuclear charge [Ang]:    [ -0.000000,  -0.000000,  -0.000000]
    Dipole moment [D]:                     31.261070
      Cartesian components [D]:          [ -0.000000,  -0.000000,  31.261070]
    RMS size of the density [Ang]:         5.061746
      Cartesian components [Ang]:        [  0.803697,   0.493801,   4.973078]
  
  Exciton analysis of the difference density matrix
    <r_h> [Ang]:                  [  0.000000,  -0.000000,  -6.430020]
    <r_e> [Ang]:                  [  0.000000,   0.000000,  -6.721021]
    |<r_e - r_h>| [Ang]:            0.291001
    Hole size [Ang]:                1.439722
      Cartesian components [Ang]: [  0.740455,   0.891114,   0.854659]
    Electron size [Ang]:            2.484347
      Cartesian components [Ang]: [  1.139220,   1.130301,   1.896464]

  Transition density matrix analysis:
  -----------------------------------
  
  CT numbers (Mulliken)
    omega =     0.8880
    <Phe> =    -0.0179
  
  Exciton analysis of the transition density matrix
    Trans. dipole moment [D]:             1.064739
      Cartesian components [D]:         [ -0.000000,   1.064739,   0.000000]
    <r_h> [Ang]:                        [ -0.000000,  -0.000000,  -6.398802]
    <r_e> [Ang]:                        [  0.000000,   0.000000,  -6.935190]
    |<r_e - r_h>| [Ang]:                  0.536388
    Hole size [Ang]:                      1.075015
      Cartesian components [Ang]:       [  0.478848,   0.829223,   0.488620]
    Electron size [Ang]:                  2.730484
      Cartesian components [Ang]:       [  1.256759,   1.257404,   2.072446]
    RMS electron-hole separation [Ang]:   2.981312
      Cartesian components [Ang]:       [  1.344750,   1.502901,   2.195714]
    Covariance(r_h, r_e) [Ang^2]:         0.005343
    Correlation coefficient:              0.001820
    Center-of-mass size [Ang]:            1.468152
      Cartesian components [Ang]:       [  0.672519,   0.754758,   1.064674]

  Decomposition into state-averaged NTOs
    H- 0 -> L+ 1:  0.5554 ( 61.7%)
    H- 0 -> L+ 0:  0.3533 ( 25.0%)
    H- 0 -> L+ 7: -0.0825 (  1.4%)
                   omega =  88.8%
  ----------------------------------------------------------------------------


  Excited state 7 (singlet, B2)                                    [converged]
  ----------------------------------------------------------------------------
  Term symbol:  7 (1) B2                                    R^2 =  1.41582e-06

  Total energy:                                           -153.7626268743 a.u.
  Excitation energy:                                               5.286433 eV

  Osc. strength:                                                      0.007392
  Trans. dip. moment [a.u.]:           [  -0.000000,    0.238896,    0.000000]
  <i|r^2|0> [a.u.]:                    [  -0.000000,   -0.000000,   -0.000000]

  Dip. moment [a.u.]:                  [   0.000000,    0.000000,   -6.651381]
  Total dipole [Debye]:                                              16.906128
  <r^2> [a.u.]:                        [  63.027981,   26.222894, 2196.466457]
  Total <r^2> [a.u.]:                                              2285.717332

  V1^2 = 0.8538, V2^2 = 0.1462

  Important amplitudes:
      occ i      occ j       vir a       vir b          v   
    ---------------------------------------------------------
     2 (B2) A              11 (A1) A                 -0.6293
     2 (B2) A              16 (A1) A                 -0.1096
    ---------------------------------------------------------

  Density matrix analysis:
  ------------------------
  NOs
    Occupation of frontier NOs:
       0.9574   0.9922
    Number of electrons: 26.000000
    Number of unpaired electrons: n_u =  2.76017, n_u,nl =  2.12192
    NO participation ratio (PR_NO):  3.938598
  
  
  Mulliken Population Analysis
  Atom      Charge (e)              h+              e-           Del q
  --------------------------------------------------------------------
   1 C       -0.728194        0.038503       -0.593487       -0.554984
   2 C       -0.728194        0.038503       -0.593487       -0.554984
   3 H        0.136016        0.002021        0.036615        0.038635
   4 H        0.136016        0.002021        0.036615        0.038635
   5 H        0.116100        0.004634        0.035644        0.040278
   6 H        0.116100        0.004634        0.035644        0.040278
   7 O       -0.182457        1.402717       -0.560231        0.842486
   8 H        0.134614        0.137644       -0.027989        0.109655
  --------------------------------------------------------------------
  Sum:       -1.000000        1.630677       -1.630677        0.000000
  
  Multipole moment analysis of the density matrix
    Molecular charge:                      -1.000000
    Number of electrons:                   26.000000
      Center of electronic charge [Ang]: [  0.000000,  -0.000000,   0.135375]
    Total nuclear charge:                  25.000000
      Center of nuclear charge [Ang]:    [ -0.000000,  -0.000000,  -0.000000]
    Dipole moment [D]:                     16.906123
      Cartesian components [D]:          [ -0.000000,   0.000000, -16.906123]
    RMS size of the density [Ang]:         4.959798
      Cartesian components [Ang]:        [  0.823913,   0.531441,   4.861927]
  
  Exciton analysis of the difference density matrix
    <r_h> [Ang]:                  [  0.000000,  -0.000000,  -5.879801]
    <r_e> [Ang]:                  [  0.000000,   0.000000,   0.019204]
    |<r_e - r_h>| [Ang]:            5.899005
    Hole size [Ang]:                2.726473
      Cartesian components [Ang]: [  0.814766,   0.895834,   2.442805]
    Electron size [Ang]:            5.642364
      Cartesian components [Ang]: [  1.354301,   1.354363,   5.307339]

  Transition density matrix analysis:
  -----------------------------------
  
  CT numbers (Mulliken)
    omega =     0.8378
    <Phe> =    -0.0017
  
  Exciton analysis of the transition density matrix
    Trans. dipole moment [D]:             0.303606
      Cartesian components [D]:         [ -0.000000,   0.303606,   0.000000]
    <r_h> [Ang]:                        [ -0.000000,  -0.000000,  -6.397826]
    <r_e> [Ang]:                        [  0.000000,   0.000000,   3.125610]
    |<r_e - r_h>| [Ang]:                  9.523437
    Hole size [Ang]:                      1.091371
      Cartesian components [Ang]:       [  0.485437,   0.840728,   0.498615]
    Electron size [Ang]:                  4.212248
      Cartesian components [Ang]:       [  1.551107,   1.610692,   3.569702]
    RMS electron-hole separation [Ang]:  10.470751
      Cartesian components [Ang]:       [  1.625257,   1.816724,  10.183058]
    Covariance(r_h, r_e) [Ang^2]:        -0.003323
    Correlation coefficient:             -0.000723
    Center-of-mass size [Ang]:            2.175286
      Cartesian components [Ang]:       [  0.812666,   0.908546,   1.801663]

  Decomposition into state-averaged NTOs
    H- 0 -> L+ 7:  0.4484 ( 40.2%)
    H- 0 -> L+ 8:  0.2890 ( 16.7%)
    H- 0 -> L+ 6:  0.2243 ( 10.1%)
    H- 0 -> L+ 2: -0.2215 (  9.8%)
    H- 0 -> L+ 0:  0.1466 (  4.3%)
    H- 0 -> L+ 5: -0.1120 (  2.5%)
                   omega =  83.8%
  ----------------------------------------------------------------------------


  Excited state 8 (singlet, B2)                                    [converged]
  ----------------------------------------------------------------------------
  Term symbol:  8 (1) B2                                    R^2 =  1.75616e-07

  Total energy:                                           -153.7473863275 a.u.
  Excitation energy:                                               5.701149 eV

  Osc. strength:                                                      0.000000
  Trans. dip. moment [a.u.]:           [   0.000000,   -0.001557,   -0.000000]
  <i|r^2|0> [a.u.]:                    [   0.000000,    0.000000,    0.000000]

  Dip. moment [a.u.]:                  [   0.000000,   -0.000000,   -7.561234]
  Total dipole [Debye]:                                              19.218744
  <r^2> [a.u.]:                        [  69.435988,   61.853156, 2176.808412]
  Total <r^2> [a.u.]:                                              2308.097556

  V1^2 = 0.8581, V2^2 = 0.1419

  Important amplitudes:
      occ i      occ j       vir a       vir b          v   
    ---------------------------------------------------------
     7 (A1) A               3 (B2) A                  0.6533
     7 (A1) A   2 (B2) B    3 (B2) A    5 (B2) B      0.0560
    ---------------------------------------------------------

  Density matrix analysis:
  ------------------------
  NOs
    Occupation of frontier NOs:
       0.9736   0.9986
    Number of electrons: 26.000000
    Number of unpaired electrons: n_u =  2.80369, n_u,nl =  2.13979
    NO participation ratio (PR_NO):  3.964640
  
  
  Mulliken Population Analysis
  Atom      Charge (e)              h+              e-           Del q
  --------------------------------------------------------------------
   1 C       -0.656805        0.015171       -0.498765       -0.483595
   2 C       -0.656805        0.015171       -0.498765       -0.483595
   3 H        0.083895       -0.000790       -0.012696       -0.013486
   4 H        0.083895       -0.000790       -0.012696       -0.013486
   5 H        0.072907       -0.000288       -0.002627       -0.002915
   6 H        0.072907       -0.000288       -0.002627       -0.002915
   7 O       -0.326862        1.245151       -0.547069        0.698081
   8 H        0.326868        0.320218       -0.018308        0.301910
  --------------------------------------------------------------------
  Sum:       -1.000000        1.593554       -1.593554        0.000000
  
  Multipole moment analysis of the density matrix
    Molecular charge:                      -1.000000
    Number of electrons:                   26.000000
      Center of electronic charge [Ang]: [ -0.000000,   0.000000,   0.153894]
    Total nuclear charge:                  25.000000
      Center of nuclear charge [Ang]:    [ -0.000000,  -0.000000,  -0.000000]
    Dipole moment [D]:                     19.218739
      Cartesian components [D]:          [  0.000000,  -0.000000, -19.218739]
    RMS size of the density [Ang]:         4.983501
      Cartesian components [Ang]:        [  0.864782,   0.816198,   4.839551]
  
  Exciton analysis of the difference density matrix
    <r_h> [Ang]:                  [  0.000000,  -0.000000,  -6.271539]
    <r_e> [Ang]:                  [ -0.000000,   0.000000,   0.067030]
    |<r_e - r_h>| [Ang]:            6.338568
    Hole size [Ang]:                1.937103
      Cartesian components [Ang]: [  0.791348,   0.785482,   1.584031]
    Electron size [Ang]:            6.050362
      Cartesian components [Ang]: [  1.717509,   2.816728,   5.071794]

  Transition density matrix analysis:
  -----------------------------------
  
  CT numbers (Mulliken)
    omega =     0.8415
    <Phe> =     0.0000
  
  Exciton analysis of the transition density matrix
    Trans. dipole moment [D]:             0.001979
      Cartesian components [D]:         [  0.000000,  -0.001979,  -0.000000]
    <r_h> [Ang]:                        [ -0.000000,   0.000000,  -6.449018]
    <r_e> [Ang]:                        [ -0.000000,   0.000000,   3.639239]
    |<r_e - r_h>| [Ang]:                 10.088257
    Hole size [Ang]:                      1.009628
      Cartesian components [Ang]:       [  0.421145,   0.421152,   0.815240]
    Electron size [Ang]:                  4.538853
      Cartesian components [Ang]:       [  2.063357,   3.500862,   2.021810]
    RMS electron-hole separation [Ang]:  11.108418
      Cartesian components [Ang]:       [  2.105999,   3.526045,  10.321275]
    Covariance(r_h, r_e) [Ang^2]:        -0.001737
    Correlation coefficient:             -0.000379
    Center-of-mass size [Ang]:            2.324708
      Cartesian components [Ang]:       [  1.052898,   1.763080,   1.089596]

  Decomposition into state-averaged NTOs
    H- 2 -> L+ 3: -0.6487 ( 84.2%)
                   omega =  84.2%
  ----------------------------------------------------------------------------


  Excited state 9 (singlet, B2)                                    [converged]
  ----------------------------------------------------------------------------
  Term symbol:  9 (1) B2                                    R^2 =  3.62904e-06

  Total energy:                                           -153.7353129237 a.u.
  Excitation energy:                                               6.029683 eV

  Osc. strength:                                                      0.000588
  Trans. dip. moment [a.u.]:           [   0.000000,   -0.063110,   -0.000000]
  <i|r^2|0> [a.u.]:                    [   0.000000,    0.000000,    0.000000]

  Dip. moment [a.u.]:                  [  -0.000000,    0.000000,   -7.426797]
  Total dipole [Debye]:                                              18.877038
  <r^2> [a.u.]:                        [  77.876713,   24.211816, 2173.142118]
  Total <r^2> [a.u.]:                                              2275.230647

  V1^2 = 0.8492, V2^2 = 0.1508

  Important amplitudes:
      occ i      occ j       vir a       vir b          v   
    ---------------------------------------------------------
     2 (B2) A              12 (A1) A                 -0.6183
     2 (B2) A              13 (A1) A                 -0.1784
    ---------------------------------------------------------

  Density matrix analysis:
  ------------------------
  NOs
    Occupation of frontier NOs:
       0.9568   0.9914
    Number of electrons: 26.000000
    Number of unpaired electrons: n_u =  2.76719, n_u,nl =  2.12428
    NO participation ratio (PR_NO):  3.962804
  
  
  Mulliken Population Analysis
  Atom      Charge (e)              h+              e-           Del q
  --------------------------------------------------------------------
   1 C       -0.544724        0.044511       -0.416025       -0.371514
   2 C       -0.544724        0.044511       -0.416025       -0.371514
   3 H        0.029342        0.004951       -0.072990       -0.068039
   4 H        0.029342        0.004951       -0.072990       -0.068039
   5 H        0.018254        0.005678       -0.063247       -0.057568
   6 H        0.018254        0.005678       -0.063247       -0.057568
   7 O       -0.143386        1.410402       -0.528845        0.881557
   8 H        0.137644        0.139529       -0.026844        0.112685
  --------------------------------------------------------------------
  Sum:       -1.000000        1.660213       -1.660213        0.000000
  
  Multipole moment analysis of the density matrix
    Molecular charge:                      -1.000000
    Number of electrons:                   26.000000
      Center of electronic charge [Ang]: [ -0.000000,  -0.000000,   0.151157]
    Total nuclear charge:                  25.000000
      Center of nuclear charge [Ang]:    [ -0.000000,  -0.000000,  -0.000000]
    Dipole moment [D]:                     18.877033
      Cartesian components [D]:          [  0.000000,   0.000000, -18.877033]
    RMS size of the density [Ang]:         4.947942
      Cartesian components [Ang]:        [  0.915837,   0.510656,   4.835556]
  
  Exciton analysis of the difference density matrix
    <r_h> [Ang]:                  [  0.000000,  -0.000000,  -5.773536]
    <r_e> [Ang]:                  [ -0.000000,  -0.000000,   0.267682]
    |<r_e - r_h>| [Ang]:            6.041218
    Hole size [Ang]:                2.891877
      Cartesian components [Ang]: [  0.823739,   0.895515,   2.623444]
    Electron size [Ang]:            5.465168
      Cartesian components [Ang]: [  2.081479,   1.214975,   4.905033]

  Transition density matrix analysis:
  -----------------------------------
  
  CT numbers (Mulliken)
    omega =     0.8336
    <Phe> =    -0.0001
  
  Exciton analysis of the transition density matrix
    Trans. dipole moment [D]:             0.080205
      Cartesian components [D]:         [  0.000000,  -0.080205,  -0.000000]
    <r_h> [Ang]:                        [ -0.000000,  -0.000000,  -6.398139]
    <r_e> [Ang]:                        [ -0.000000,  -0.000000,   3.565257]
    |<r_e - r_h>| [Ang]:                  9.963395
    Hole size [Ang]:                      1.090985
      Cartesian components [Ang]:       [  0.485832,   0.841469,   0.496129]
    Electron size [Ang]:                  3.420677
      Cartesian components [Ang]:       [  2.569358,   1.418678,   1.756925]
    RMS electron-hole separation [Ang]:  10.590688
      Cartesian components [Ang]:       [  2.614872,   1.649515,  10.129374]
    Covariance(r_h, r_e) [Ang^2]:        -0.001073
    Correlation coefficient:             -0.000288
    Center-of-mass size [Ang]:            1.795072
      Cartesian components [Ang]:       [  1.307450,   0.824703,   0.912536]

  Decomposition into state-averaged NTOs
    H- 0 -> L+ 8:  0.3866 ( 29.9%)
    H- 0 -> L+ 7: -0.3762 ( 28.3%)
    H- 0 -> L+ 6:  0.3079 ( 19.0%)
    H- 0 -> L+ 5: -0.1357 (  3.7%)
    H- 0 -> L+ 2:  0.0966 (  1.9%)
                   omega =  83.4%
  ----------------------------------------------------------------------------


  Excited state 10 (singlet, B2)                                    [converged]
  ----------------------------------------------------------------------------
  Term symbol:  10 (1) B2                                   R^2 =  5.91883e-06

  Total energy:                                           -153.7155005938 a.u.
  Excitation energy:                                               6.568804 eV

  Osc. strength:                                                      0.071026
  Trans. dip. moment [a.u.]:           [   0.000000,   -0.664335,    0.000000]
  <i|r^2|0> [a.u.]:                    [   0.000000,    0.000000,    0.000000]

  Dip. moment [a.u.]:                  [   0.000000,   -0.000000,    8.482347]
  Total dipole [Debye]:                                              21.559980
  <r^2> [a.u.]:                        [  58.608631,   21.258813, 2219.880663]
  Total <r^2> [a.u.]:                                              2299.748107

  V1^2 = 0.9122, V2^2 = 0.0878

  Important amplitudes:
      occ i      occ j       vir a       vir b          v   
    ---------------------------------------------------------
     2 (B2) A              16 (A1) A                  0.6313
     2 (B2) A              14 (A1) A                  0.2017
    ---------------------------------------------------------

  Density matrix analysis:
  ------------------------
  NOs
    Occupation of frontier NOs:
       0.9680   0.9999
    Number of electrons: 26.000000
    Number of unpaired electrons: n_u =  2.68965, n_u,nl =  2.09415
    NO participation ratio (PR_NO):  3.687130
  
  
  Mulliken Population Analysis
  Atom      Charge (e)              h+              e-           Del q
  --------------------------------------------------------------------
   1 C       -0.183704        0.004648       -0.015141       -0.010494
   2 C       -0.183704        0.004648       -0.015141       -0.010494
   3 H        0.084276        0.002349       -0.015453       -0.013105
   4 H        0.084276        0.002349       -0.015453       -0.013105
   5 H        0.075046       -0.000029       -0.000747       -0.000776
   6 H        0.075046       -0.000029       -0.000747       -0.000776
   7 O       -0.828574        1.278242       -1.081873        0.196369
   8 H       -0.122662        0.104332       -0.251953       -0.147620
  --------------------------------------------------------------------
  Sum:       -1.000000        1.396509       -1.396509       -0.000000
  
  Multipole moment analysis of the density matrix
    Molecular charge:                      -1.000000
    Number of electrons:                   26.000000
      Center of electronic charge [Ang]: [ -0.000000,   0.000000,  -0.172641]
    Total nuclear charge:                  25.000000
      Center of nuclear charge [Ang]:    [ -0.000000,  -0.000000,  -0.000000]
    Dipole moment [D]:                     21.559974
      Cartesian components [D]:          [ -0.000000,  -0.000000,  21.559974]
    RMS size of the density [Ang]:         4.973855
      Cartesian components [Ang]:        [  0.794502,   0.478502,   4.886618]
  
  Exciton analysis of the difference density matrix
    <r_h> [Ang]:                  [  0.000000,  -0.000000,  -6.335845]
    <r_e> [Ang]:                  [  0.000000,   0.000000,  -5.182290]
    |<r_e - r_h>| [Ang]:            1.153555
    Hole size [Ang]:                1.662321
      Cartesian components [Ang]: [  0.742258,   0.885711,   1.194939]
    Electron size [Ang]:            2.643736
      Cartesian components [Ang]: [  1.015530,   0.996934,   2.228040]

  Transition density matrix analysis:
  -----------------------------------
  
  CT numbers (Mulliken)
    omega =     0.8931
    <Phe> =    -0.0166
  
  Exciton analysis of the transition density matrix
    Trans. dipole moment [D]:             0.844286
      Cartesian components [D]:         [  0.000000,  -0.844286,   0.000000]
    <r_h> [Ang]:                        [ -0.000000,  -0.000000,  -6.396151]
    <r_e> [Ang]:                        [  0.000000,   0.000000,  -4.840331]
    |<r_e - r_h>| [Ang]:                  1.555820
    Hole size [Ang]:                      1.074304
      Cartesian components [Ang]:       [  0.478492,   0.828489,   0.488653]
    Electron size [Ang]:                  2.646195
      Cartesian components [Ang]:       [  1.098788,   1.096647,   2.142984]
    RMS electron-hole separation [Ang]:   3.251279
      Cartesian components [Ang]:       [  1.198168,   1.372463,   2.692871]
    Covariance(r_h, r_e) [Ang^2]:         0.003119
    Correlation coefficient:              0.001097
    Center-of-mass size [Ang]:            1.428523
      Cartesian components [Ang]:       [  0.599369,   0.688187,   1.099015]

  Decomposition into state-averaged NTOs
    H- 0 -> L+ 0: -0.5479 ( 60.0%)
    H- 0 -> L+ 1:  0.3632 ( 26.4%)
    H- 0 -> L+ 7:  0.0985 (  1.9%)
                   omega =  89.3%
  ----------------------------------------------------------------------------


--------------------------------------------------------------------------------
  Time of ADC calculation:  CPU 176.00 s  wall 48.68 s
================================================================================
 
 --------------------------------------------------------------
             Orbital Energies (a.u.) and Symmetries
 --------------------------------------------------------------
 
 Alpha MOs, Restricted
 -- Occupied --                  
-20.199 -11.183 -11.181  -0.988  -0.904  -0.728  -0.606  -0.513
  1 A1    2 A1    1 B1    3 A1    4 A1    2 B1    5 A1    6 A1                 
 -0.461  -0.323  -0.251  -0.108  -0.108
  3 B1    1 B2    7 A1    2 B2    4 B1                                         
 -- Virtual --                   
  0.097   0.108   0.109   0.121   0.121   0.128   0.163   0.195
  5 B1    8 A1    3 B2    1 A2    9 A1    6 B1   10 A1    2 A2                 
  0.250   0.261   0.265   0.280   0.285   0.288   0.321   0.361
  7 B1   11 A1    8 B1    9 B1    4 B2   12 A1   13 A1    3 A2                 
  0.380   0.397   0.405   0.443   0.443   0.455   0.561   0.584
 14 A1   15 A1   10 B1    5 B2   11 B1   16 A1   12 B1   17 A1                 
  0.605   0.796   0.884   0.919   0.946   0.983   0.984   1.033
 13 B1   18 A1   19 A1   20 A1   21 A1   14 B1    6 B2    4 A2                 
  1.045   1.086   1.122   1.168   1.170   1.269   1.269   1.323
 15 B1   22 A1   16 B1    7 B2   23 A1   17 B1    8 B2    5 A2                 
  1.323   1.338   1.338   1.366   1.402   1.544   1.664   1.669
 24 A1    9 B2    6 A2   18 B1   19 B1   25 A1   26 A1   20 B1                 
  1.729   1.729   1.759   1.910   1.971   1.973   1.994   2.062
 10 B2   21 B1   27 A1    7 A2   22 B1   28 A1   11 B2   29 A1                 
  2.071   2.113   2.227   2.371   2.376   2.376   2.466   2.502
 12 B2   30 A1    8 A2   23 B1   24 B1   13 B2    9 A2   31 A1                 
  2.534   2.621   2.624   2.853   2.859   3.030   3.296   3.394
 32 A1   25 B1   26 B1   33 A1   34 A1   35 A1   27 B1   28 B1                 
  3.930   3.930   3.959   3.959   4.401
 29 B1   14 B2   10 A2   36 A1   37 A1                                         
 
 Beta MOs, Restricted
 -- Occupied --                  
-20.199 -11.183 -11.181  -0.988  -0.904  -0.728  -0.606  -0.513
  1 A1    2 A1    1 B1    3 A1    4 A1    2 B1    5 A1    6 A1                 
 -0.461  -0.323  -0.251  -0.108  -0.108
  3 B1    1 B2    7 A1    2 B2    4 B1                                         
 -- Virtual --                   
  0.097   0.108   0.109   0.121   0.121   0.128   0.163   0.195
  5 B1    8 A1    3 B2    1 A2    9 A1    6 B1   10 A1    2 A2                 
  0.250   0.261   0.265   0.280   0.285   0.288   0.321   0.361
  7 B1   11 A1    8 B1    9 B1    4 B2   12 A1   13 A1    3 A2                 
  0.380   0.397   0.405   0.443   0.443   0.455   0.561   0.584
 14 A1   15 A1   10 B1    5 B2   11 B1   16 A1   12 B1   17 A1                 
  0.605   0.796   0.884   0.919   0.946   0.983   0.984   1.033
 13 B1   18 A1   19 A1   20 A1   21 A1   14 B1    6 B2    4 A2                 
  1.045   1.086   1.122   1.168   1.170   1.269   1.269   1.323
 15 B1   22 A1   16 B1    7 B2   23 A1   17 B1    8 B2    5 A2                 
  1.323   1.338   1.338   1.366   1.402   1.544   1.664   1.669
 24 A1    9 B2    6 A2   18 B1   19 B1   25 A1   26 A1   20 B1                 
  1.729   1.729   1.759   1.910   1.971   1.973   1.994   2.062
 10 B2   21 B1   27 A1    7 A2   22 B1   28 A1   11 B2   29 A1                 
  2.071   2.113   2.227   2.371   2.376   2.376   2.466   2.502
 12 B2   30 A1    8 A2   23 B1   24 B1   13 B2    9 A2   31 A1                 
  2.534   2.621   2.624   2.853   2.859   3.030   3.296   3.394
 32 A1   25 B1   26 B1   33 A1   34 A1   35 A1   27 B1   28 B1                 
  3.930   3.930   3.959   3.959   4.401
 29 B1   14 B2   10 A2   36 A1   37 A1                                         
 --------------------------------------------------------------
 
          Ground-State Mulliken Net Atomic Charges

     Atom                 Charge (a.u.)
  ----------------------------------------
      1 C                    -0.158809
      2 C                    -0.158809
      3 H                     0.090215
      4 H                     0.090215
      5 H                     0.068591
      6 H                     0.068591
      7 O                    -1.037342
      8 H                     0.037346
  ----------------------------------------
  Sum of atomic charges =    -1.000000

 -----------------------------------------------------------------
                    Cartesian Multipole Moments
 -----------------------------------------------------------------
    Charge (ESU x 10^10)
                -4.8032
    Dipole Moment (Debye)
         X       0.0000      Y      -0.0000      Z      29.1979
       Tot      29.1979
    Quadrupole Moments (Debye-Ang)
        XX     -23.0600     XY      -0.0000     YY     -26.2477
        XZ       0.0000     YZ       0.0000     ZZ    -199.5088
    Octopole Moments (Debye-Ang^2)
       XXX      -0.0000    XXY       0.0000    XYY       0.0000
       YYY       0.0000    XXZ      17.5745    XYZ      -0.0000
       YYZ       6.1739    XZZ       0.0000    YZZ      -0.0000
       ZZZ    1094.9058
    Hexadecapole Moments (Debye-Ang^3)
      XXXX     -84.2222   XXXY       0.0000   XXYY     -20.8839
      XYYY      -0.0000   YYYY     -37.3977   XXXZ      -0.0000
      XXYZ       0.0000   XYYZ       0.0000   YYYZ       0.0000
      XXZZ    -608.1009   XYZZ      -0.0000   YYZZ    -644.5446
      XZZZ       0.0000   YZZZ       0.0000   ZZZZ   -9457.6180
 -----------------------------------------------------------------
 Total job time:  158.19s(wall), 227.82s(cpu) 
 Thu Mar  3 18:47:56 2022

        *************************************************************
        *                                                           *
        *  Thank you very much for using Q-Chem.  Have a nice day.  *
        *                                                           *
        *************************************************************


