/src/tsommerfeld/qchem/exe/qcprog.exe .cap_3.0.inp.8939.qcin.1 /src/jdavis/qchem.scratch/qchem8939/

                  Welcome to Q-Chem
     A Quantum Leap Into The Future Of Chemistry


 Q-Chem 5.4 (devel), Q-Chem, Inc., Pleasanton, CA (2021)

 E. Epifanovsky,  A. T. B. Gilbert,  Xintian Feng,  Joonho Lee,  Yuezhi Mao,  
 N. Mardirossian,  P. Pokhilko,  A. White,  M. Wormit,  M. P. Coons,  
 A. L. Dempwolff,  Zhengting Gan,  D. Hait,  P. R. Horn,  L. D. Jacobson,  
 I. Kaliman,  J. Kussmann,  A. W. Lange,  Ka Un Lao,  D. S. Levine,  Jie Liu,  
 S. C. McKenzie,  A. F. Morrison,  K. Nanda,  F. Plasser,  D. R. Rehn,  
 M. L. Vidal,  Zhi-Qiang You,  Ying Zhu,  B. Alam,  B. Albrecht,  
 A. Aldossary,  E. Alguire,  J. H. Andersen,  D. Barton,  K. Begam,  A. Behn,  
 Y. A. Bernard,  E. J. Berquist,  H. Burton,  A. Carreras,  K. Carter-Fenk,  
 R. Chakraborty,  A. D. Chien,  K. D. Closser,  V. Cofer-Shabica,  
 S. Dasgupta,  Jia Deng,  M. de Wergifosse,  M. Diedenhofen,  Hainam Do,  
 S. Ehlert,  Po-Tung Fang,  S. Fatehi,  Qingguo Feng,  T. Friedhoff,  
 J. Gayvert,  Qinghui Ge,  G. Gidofalvi,  M. Goldey,  J. Gomes,  
 C. Gonzalez-Espinoza,  S. Gulania,  A. Gunina,  M. W. D. Hanson-Heine,  
 P. H. P. Harbach,  A. W. Hauser,  M. F. Herbst,  M. Hernandez Vera,  
 M. Hodecker,  Z. C. Holden,  S. Houck,  Xunkun Huang,  Kerwin Hui,  
 B. C. Huynh,  M. Ivanov,  Hyunjun Ji,  Hanjie Jiang,  B. Kaduk,  S. Kaehler,  
 K. Khistyaev,  Jaehoon Kim,  P. Klunzinger,  Z. Koczor-Benda,  
 Joong Hoon Koh,  D. Kosenkov,  L. Koulias,  T. Kowalczyk,  C. M. Krauter,  
 K. Kue,  A. Kunitsa,  T. Kus,  A. Landau,  K. V. Lawler,  D. Lefrancois,  
 S. Lehtola,  Rain Li,  Yi-Pei Li,  Jiashu Liang,  M. Liebenthal,  
 Hung-Hsuan Lin,  You-Sheng Lin,  Fenglai Liu,  Kuan-Yu Liu,  
 M. Loipersberger,  A. Luenser,  A. Manjanath,  P. Manohar,  E. Mansoor,  
 S. F. Manzer,  Shan-Ping Mao,  A. V. Marenich,  T. Markovich,  S. Mason,  
 S. A. Maurer,  P. F. McLaughlin,  M. F. S. J. Menger,  J.-M. Mewes,  
 S. A. Mewes,  P. Morgante,  J. W. Mullinax,  K. J. Oosterbaan,  G. Paran,  
 Alexander C. Paul,  Suranjan K. Paul,  F. Pavosevic,  Zheng Pei,  S. Prager,  
 E. I. Proynov,  E. Ramos,  B. Rana,  A. E. Rask,  A. Rettig,  R. M. Richard,  
 F. Rob,  E. Rossomme,  T. Scheele,  M. Scheurer,  M. Schneider,  
 N. Sergueev,  S. M. Sharada,  W. Skomorowski,  D. W. Small,  C. J. Stein,  
 Yu-Chuan Su,  E. J. Sundstrom,  Zhen Tao,  J. Thirman,  T. Tsuchimochi,  
 N. M. Tubman,  S. P. Veccham,  O. Vydrov,  J. Wenzel,  J. Witte,  A. Yamada,  
 Kun Yao,  S. Yeganeh,  S. R. Yost,  A. Zech,  Igor Ying Zhang,  Xing Zhang,  
 Yu Zhang,  D. Zuev,  A. Aspuru-Guzik,  A. T. Bell,  N. A. Besley,  
 K. B. Bravaya,  B. R. Brooks,  D. Casanova,  Jeng-Da Chai,  S. Coriani,  
 C. J. Cramer,  A. E. DePrince, III,  R. A. DiStasio Jr.,  A. Dreuw,  
 B. D. Dunietz,  T. R. Furlani,  W. A. Goddard III,  S. Grimme,  
 S. Hammes-Schiffer,  T. Head-Gordon,  W. J. Hehre,  Chao-Ping Hsu,  
 T.-C. Jagau,  Yousung Jung,  A. Klamt,  Jing Kong,  D. S. Lambrecht,  
 WanZhen Liang,  N. J. Mayhall,  C. W. McCurdy,  J. B. Neaton,  
 C. Ochsenfeld,  J. A. Parkhill,  R. Peverati,  V. A. Rassolov,  Yihan Shao,  
 L. V. Slipchenko,  T. Stauch,  R. P. Steele,  J. E. Subotnik,  
 A. J. W. Thom,  A. Tkatchenko,  D. G. Truhlar,  T. Van Voorhis,  
 T. A. Wesolowski,  K. B. Whaley,  H. L. Woodcock III,  P. M. Zimmerman,  
 S. Faraji,  P. M. W. Gill,  M. Head-Gordon,  J. M. Herbert,  A. I. Krylov

 Additional authors for Version 5.4.1: 
 S. Kotaru,  Shaozhi Li,  Xiangyuan Li,  F. Matz,  A. Molle,  Haisheng Ren,  
 Yingli Su,  Hung-Yi Tsai,  C. Utku,  Fang Wang

 Contributors to earlier versions of Q-Chem not listed above: 
 R. D. Adamson,  B. Austin,  R. Baer,  J. Baker,  G. J. O. Beran,  
 K. Brandhorst,  S. T. Brown,  E. F. C. Byrd,  A. K. Chakraborty,  
 G. K. L. Chan,  Chun-Min Chang,  Yunqing Chen,  C.-L. Cheng,  
 Siu Hung Chien,  D. M. Chipman,  D. L. Crittenden,  H. Dachsel,  
 R. J. Doerksen,  A. D. Dutoi,  R. G. Edgar,  J. Fosso-Tande,  
 L. Fusti-Molnar,  D. Ghosh,  A. Ghysels,  A. Golubeva-Zadorozhnaya,  
 J. Gonthier,  M. S. Gordon,  S. R. Gwaltney,  G. Hawkins,  J. E. Herr,  
 A. Heyden,  S. Hirata,  E. G. Hohenstein,  G. Kedziora,  F. J. Keil,  
 C. Kelley,  Jihan Kim,  R. A. King,  R. Z. Khaliullin,  P. P. Korambath,  
 W. Kurlancheek,  A. Laurent,  A. M. Lee,  M. S. Lee,  S. V. Levchenko,  
 Ching Yeh Lin,  D. Liotard,  E. Livshits,  R. C. Lochan,  I. Lotan,  
 L. A. Martinez-Martinez,  P. E. Maslen,  N. Nair,  D. P. O'Neill,  
 D. Neuhauser,  E. Neuscamman,  C. M. Oana,  R. Olivares-Amaya,  R. Olson,  
 T. M. Perrine,  B. Peters,  P. A. Pieniazek,  A. Prociuk,  Y. M. Rhee,  
 J. Ritchie,  M. A. Rohrdanz,  E. Rosta,  N. J. Russ,  H. F. Schaefer III,  
 M. W. Schmidt,  N. E. Schultz,  S. Sharma,  N. Shenvi,  C. D. Sherrill,  
 A. C. Simmonett,  A. Sodt,  T. Stein,  D. Stuck,  K. S. Thanthiriwatte,  
 V. Vanovschi,  L. Vogt,  Tao Wang,  A. Warshel,  M. A. Watson,  
 C. F. Williams,  Q. Wu,  X. Xu,  Jun Yang,  W. Zhang,  Yan Zhao

 Please cite Q-Chem as follows:
 Y. Shao et al., Mol. Phys. 113, 184-215 (2015)
 DOI: 10.1080/00268976.2014.952696

 Q-Chem 5.4.1 for Intel X86 EM64T Linux

 Parts of Q-Chem use Armadillo 9.900.5 (Nocturnal Misbehaviour).
 http://arma.sourceforge.net/

 Q-Chem begins on Thu Apr 28 18:38:34 2022  

 Host: node02
0

     Scratch files written to /src/jdavis/qchem.scratch/qchem8939//
 Processing $rem in /src/tsommerfeld/qchem/config/preferences:
 Processing $rem in /home/jdavis/.qchemrc:
 Core orbitals will be frozen

 Checking the input file for inconsistencies... 	...done.

--------------------------------------------------------------
User input:
--------------------------------------------------------------
$comment
	Ethylene CAP-EOM-CCSD
	Basis: C/7H: jun-TZ+4p1d, H: TZ
$end

$molecule
-1 1
C       0.6645000000     0.0000000000    -0.1470587929
C      -0.6645000000     0.0000000044    -0.1470587929
H       1.1590799243     0.9623488970    -0.1470589766
H      -1.1590799243     0.9623488970    -0.1470589766
H       1.1590799243    -0.9623488970    -0.1470589766
H      -1.1590799243    -0.9623488970    -0.1470589766
H       0.0000000000     0.0000000000     2.8529412071
$end


$rem
	method eom-ccsd
	basis gen
        EE_STATES [0,0,10,0]
	complex_ccman 1
	xc_grid 000250000974
	scf_convergence 8
	thresh 14
	mem_total 95000
	threads 12
$end

$complex_ccman
	cap_type 2 
	proj_cap 3
	cap_eta 300 
	cap_x 3500
$end

$basis
C     1
S    8   1.00
   8236.0000000              0.0005310
   1235.0000000              0.0041080
    280.8000000              0.0210870
     79.2700000              0.0818530
     25.5900000              0.2348170
      8.9970000              0.4344010
      3.3190000              0.3461290
      0.3643000             -0.0089830
S    1   1.00
      0.9059000              1.0000000
S    8   1.00
   8236.0000000             -0.0001130
   1235.0000000             -0.0008780
    280.8000000             -0.0045400
     79.2700000             -0.0181330
     25.5900000             -0.0557600
      8.9970000             -0.1268950
      3.3190000             -0.1703520
      0.3643000              0.5986840
S    1   1.00
      0.1285000              1.0000000
S    1   1.00
      0.0440200              1.0000000
P    3   1.00
     18.7100000              0.0140310
      4.1330000              0.0868660
      1.2000000              0.2902160
P    1   1.00
      0.3827000              1.0000000
P    1   1.00
      0.1209000              1.0000000
P    1   1.00
      0.0356900              1.0000000
P    1   1.0
      0.0237933 1.0
P    1   1.0
      0.0158622 1.0
P    1   1.0
      0.0105748 1.0
P    1   1.0
      0.0070498 1.0
D    1   1.00
      1.0970000              1.0000000
D    1   1.00
      0.3180000              1.0000000
D    1   1.00
      0.1000000              1.0000000
D    1   1.00
      0.0500000 1.0
F    1   1.00
      0.7610000              1.0000000
****
C     2
S    8   1.00
   8236.0000000              0.0005310
   1235.0000000              0.0041080
    280.8000000              0.0210870
     79.2700000              0.0818530
     25.5900000              0.2348170
      8.9970000              0.4344010
      3.3190000              0.3461290
      0.3643000             -0.0089830
S    1   1.00
      0.9059000              1.0000000
S    8   1.00
   8236.0000000             -0.0001130
   1235.0000000             -0.0008780
    280.8000000             -0.0045400
     79.2700000             -0.0181330
     25.5900000             -0.0557600
      8.9970000             -0.1268950
      3.3190000             -0.1703520
      0.3643000              0.5986840
S    1   1.00
      0.1285000              1.0000000
S    1   1.00
      0.0440200              1.0000000
P    3   1.00
     18.7100000              0.0140310
      4.1330000              0.0868660
      1.2000000              0.2902160
P    1   1.00
      0.3827000              1.0000000
P    1   1.00
      0.1209000              1.0000000
P    1   1.00
      0.0356900              1.0000000
P    1   1.0
      0.0237933 1.0
P    1   1.0
      0.0158622 1.0
P    1   1.0
      0.0105748 1.0
P    1   1.0
      0.0070498 1.0
D    1   1.00
      1.0970000              1.0000000
D    1   1.00
      0.3180000              1.0000000
D    1   1.00
      0.1000000              1.0000000
D    1   1.00
      0.0500000 1.0
F    1   1.00
      0.7610000              1.0000000
****
H     3
cc-pVTZ
****
H     4
cc-pVTZ
****
H     5
cc-pVTZ
****
H     6
cc-pVTZ
****
H     7
aug-cc-pVTZ
****
$end
--------------------------------------------------------------
 Atom   5: (  1.1590799267, -0.9623488958, -0.1764707278)
         ->(  1.1590799219, -0.9623488982, -0.1764707297)
 Atom   4: ( -1.1590799267,  0.9623488924, -0.1764707297)
         ->( -1.1590799219,  0.9623488982, -0.1764707297)
 ----------------------------------------------------------------
             Standard Nuclear Orientation (Angstroms)
    I     Atom           X                Y                Z
 ----------------------------------------------------------------
    1      C       0.6645000000    -0.0000000001    -0.1764705450
    2      C      -0.6645000000     0.0000000010    -0.1764705450
    3      H       1.1590799219     0.9623488982    -0.1764707297
    4      H      -1.1590799219     0.9623488982    -0.1764707297
    5      H       1.1590799219    -0.9623488982    -0.1764707297
    6      H      -1.1590799219    -0.9623489016    -0.1764707278
    7      H       0.0000000000     0.0000000012     2.8235294550
 ----------------------------------------------------------------
 Molecular Point Group                 C2v   NOp =  4
 Largest Abelian Subgroup              C2v   NOp =  4
 Nuclear Repulsion Energy =          36.28636409 hartrees
 There are        9 alpha and        9 beta electrons
 Requested basis set is non-standard
 There are 66 shells and 182 basis functions
 Total memory of 95000 MB is distributed as follows: 
   MEM_STATIC is set to 192 MB
   QALLOC/CCMAN JOB total memory use is  94808 MB
 Warning: actual memory use might exceed 95000 MB

 Total QAlloc Memory Limit  95000 MB
 Mega-Array Size       188 MB
 MEM_STATIC part       192 MB

                       Distance Matrix (Angstroms)
             C (  1)   C (  2)   H (  3)   H (  4)   H (  5)   H (  6)
   C (  2)  1.329000
   H (  3)  1.082000  2.061931
   H (  4)  2.061931  1.082000  2.318160
   H (  5)  1.082000  2.061931  1.924698  3.013026
   H (  6)  2.061931  1.082000  3.013026  1.924698  2.318160
   H (  7)  3.072712  3.072712  3.357020  3.357020  3.357020  3.357020

 
 A cutoff of  1.0D-14 yielded   2211 shell pairs
 There are     16903 function pairs (     20664 Cartesian)
 Smallest overlap matrix eigenvalue = 2.34E-06

 Scale SEOQF with 1.000000e-02/1.000000e-02/1.000000e-02

 Standard Electronic Orientation quadrupole field applied
 ================ Generating on-the-fly SAD Guess ================
Attempting to make child job directory: /src/jdavis/qchem.scratch/qchem8939//Frg1/
Attempting to make child job directory: /src/jdavis/qchem.scratch/qchem8939//Frg2/
Creating input file /src/jdavis/qchem.scratch/qchem8939/Frg1.input
using default PutDataFrgm: nothing
calling putenv with: QCSCRATCH=/src/jdavis/qchem.scratch/qchem8939/ 
Spawning Job For Fragment 0
Done Job For Fragment 0
calling putenv with: QCSCRATCH=/src/jdavis/qchem.scratch 
calling putenv with: QCTHREADS=1 
Creating input file /src/jdavis/qchem.scratch/qchem8939/Frg2.input
using default PutDataFrgm: nothing
calling putenv with: QCSCRATCH=/src/jdavis/qchem.scratch/qchem8939/ 
Spawning Job For Fragment 1
Done Job For Fragment 1
calling putenv with: QCSCRATCH=/src/jdavis/qchem.scratch 
calling putenv with: QCTHREADS=1 
 Time for running child jobs:  CPU 2.14 s  wall 1.99 s
 ============= Method Specific SAD Guess Constructed =============
 Guess from on-the-fly superposition of atomic densities
 Warning: Energy on first SCF cycle will be non-variational

 -----------------------------------------------------------------------
  General SCF calculation program by
  Eric Jon Sundstrom, Paul Horn, Yuezhi Mao, Dmitri Zuev, Alec White,
  David Stuck, Shaama M.S., Shane Yost, Joonho Lee, David Small,
  Daniel Levine, Susi Lehtola, Hugh Burton, Evgeny Epifanovsky,
  Bang C. Huynh
 -----------------------------------------------------------------------
 Hartree-Fock
 using 12 threads for integral computing
 -------------------------------------------------------
 OpenMP Integral computing Module                
 Release: version 1.0, May 2013, Q-Chem Inc. Pittsburgh 
 -------------------------------------------------------
 A restricted SCF calculation will be
 performed using DIIS
 SCF converges when DIIS error is below 1.0e-08
 ---------------------------------------
  Cycle       Energy         DIIS error
 ---------------------------------------
    1     -78.8127625157      2.74e-02  
    2     -78.4674130808      2.70e-03  
    3     -78.5278983433      7.61e-04  
    4     -78.5312316915      2.39e-04  
    5     -78.5316481641      4.94e-05  
    6     -78.5316829484      1.19e-05  
    7     -78.5316865682      3.96e-06  
    8     -78.5316871257      8.02e-07  
    9     -78.5316871680      2.03e-07  
   10     -78.5316871622      5.60e-08  
   11     -78.5316871697      1.11e-08  
   12     -78.5316871737      4.25e-09  Convergence criterion met
 ---------------------------------------
 SCF time:   CPU 39.92s  wall 3.00s 
 SCF   energy in the final basis set =      -78.5316871737
 Total energy in the final basis set =      -78.5316871737
 CAP matrix will be calculated and saved for subsequent use


 ------------------------------------------------------------------------------

   CCMAN2: suite of methods based on coupled cluster
           and equation of motion theories.

   Components:
   * libvmm-1.3-trunk
     by Evgeny Epifanovsky, Ilya Kaliman.
   * libtensor-2.5-trunk
     by Evgeny Epifanovsky, Michael Wormit, Dmitry Zuev, Sam Manzer, 
        Ilya Kaliman.
   * libcc-2.5-trunk
     by Evgeny Epifanovsky, Arik Landau, Tomasz Kus, Kirill Khistyaev, 
        Dmitry Zuev, Prashant Manohar, Xintian Feng, Anna Krylov, 
        Matthew Goldey, Alec White, Thomas Jagau, Kaushik Nanda, 
        Anastasia Gunina, Alexander Kunitsa, Joonho Lee.

   CCMAN original authors:
   Anna I. Krylov, C. David Sherrill, Steven R. Gwaltney,
   Edward F. C. Byrd (2000)
   Sergey V. Levchenko, Lyudmila V. Slipchenko, Tao Wang,
   Ana-Maria C. Cristian (2003)
   Piotr A. Pieniazek, C. Melania Oana, Evgeny Epifanovsky (2007)
   Prashant Manohar (2009)

 ------------------------------------------------------------------------------


 Allocating and initializing 94808MB of RAM...
 Calculation will run on 12 cores.

 
 Alpha MOs, Restricted
 -- Occupied --                  
-11.078 -11.076  -0.887  -0.632  -0.511  -0.419  -0.368  -0.225
  1 A1    1 B1    2 A1    2 B1    1 B2    3 A1    1 A2    4 A1                 
 -0.035
  5 A1                                                                         
 -- Virtual --                   
  0.056   0.062   0.062   0.063   0.067   0.076   0.092   0.102
  3 B1    2 B2    2 A2    6 A1    4 B1    7 A1    5 B1    3 B2                 
  0.104   0.105   0.113   0.116   0.141   0.145   0.155   0.161
  3 A2    8 A1    6 B1    9 A1    7 B1   10 A1    4 B2    4 A2                 
  0.167   0.172   0.205   0.210   0.232   0.242   0.245   0.246
 11 A1    8 B1   12 A1    9 B1    5 B2    5 A2   10 B1   13 A1                 
  0.248   0.272   0.276   0.299   0.304   0.308   0.311   0.311
 14 A1   11 B1    6 B2    7 B2   12 B1   13 B1    6 A2   15 A1                 
  0.341   0.351   0.352   0.361   0.389   0.391   0.410   0.412
 14 B1   16 A1    7 A2   17 A1    8 B2   15 B1    8 A2   18 A1                 
  0.440   0.462   0.480   0.481   0.510   0.529   0.541   0.571
 19 A1   16 B1   20 A1   17 B1    9 B2   18 B1   10 B2   21 A1                 
  0.579   0.603   0.611   0.628   0.639   0.645   0.699   0.716
 11 B2    9 A2   22 A1   19 B1   10 A2   23 A1   20 B1   11 A2                 
  0.773   0.793   0.836   0.840   0.896   0.906   0.913   0.938
 21 B1   24 A1   12 B2   22 B1   25 A1   13 B2   26 A1   12 A2                 
  0.971   0.980   1.005   1.055   1.104   1.131   1.146   1.188
 23 B1   27 A1   24 B1   28 A1   25 B1   14 B2   13 A2   29 A1                 
  1.212   1.235   1.292   1.297   1.300   1.325   1.351   1.386
 15 B2   26 B1   14 A2   30 A1   27 B1   31 A1   16 B2   28 B1                 
  1.421   1.421   1.456   1.565   1.578   1.655   1.672   1.698
 15 A2   17 B2   32 A1   29 B1   33 A1   30 B1   18 B2   19 B2                 
  1.795   1.806   1.836   1.876   2.018   2.151   2.181   2.247
 34 A1   31 B1   16 A2   17 A2   32 B1   35 A1   33 B1   18 A2                 
  2.736   2.898   2.898   2.918   2.937   2.951   3.037   3.050
 36 A1   37 A1   20 B2   38 A1   34 B1   21 B2   39 A1   19 A2                 
  3.102   3.147   3.148   3.219   3.269   3.286   3.320   3.377
 40 A1   22 B2   35 B1   20 A2   41 A1   23 B2   42 A1   21 A2                 
  3.416   3.419   3.474   3.612   3.616   3.635   3.654   3.661
 36 B1   24 B2   43 A1   37 B1   25 B2   22 A2   38 B1   23 A2                 
  3.677   3.696   3.766   3.792   3.810   3.832   3.836   3.837
 39 B1   40 B1   44 A1   26 B2   45 A1   46 A1   24 A2   27 B2                 
  3.882   3.892   3.951   3.973   4.129   4.158   4.172   4.177
 47 A1   41 B1   28 B2   25 A2   42 B1   43 B1   26 A2   29 B2                 
  4.200   4.219   4.268   4.307   4.362   4.379   4.437   4.464
 48 A1   49 A1   27 A2   30 B2   44 B1   45 B1   50 A1   51 A1                 
  4.467   4.496   4.513   4.571   4.742   4.762   4.815   4.890
 31 B2   28 A2   46 B1   52 A1   47 B1   32 B2   29 A2   53 A1                 
  4.948   5.008   5.100   5.200   5.236   5.315   5.373   5.460
 48 B1   49 B1   54 A1   55 A1   30 A2   33 B2   34 B2   50 B1                 
  5.517   5.576   5.630   5.692   5.826   5.879   6.258   6.339
 56 A1   31 A2   32 A2   51 B1   35 B2   57 A1   33 A2   52 B1                 
  6.467   6.820   7.046  13.111  15.544
 36 B2   53 B1   34 A2   58 A1   54 B1                                         
 
 Beta MOs, Restricted
 -- Occupied --                  
-11.078 -11.076  -0.887  -0.632  -0.511  -0.419  -0.368  -0.225
  1 A1    1 B1    2 A1    2 B1    1 B2    3 A1    1 A2    4 A1                 
 -0.035
  5 A1                                                                         
 -- Virtual --                   
  0.056   0.062   0.062   0.063   0.067   0.076   0.092   0.102
  3 B1    2 B2    2 A2    6 A1    4 B1    7 A1    5 B1    3 B2                 
  0.104   0.105   0.113   0.116   0.141   0.145   0.155   0.161
  3 A2    8 A1    6 B1    9 A1    7 B1   10 A1    4 B2    4 A2                 
  0.167   0.172   0.205   0.210   0.232   0.242   0.245   0.246
 11 A1    8 B1   12 A1    9 B1    5 B2    5 A2   10 B1   13 A1                 
  0.248   0.272   0.276   0.299   0.304   0.308   0.311   0.311
 14 A1   11 B1    6 B2    7 B2   12 B1   13 B1    6 A2   15 A1                 
  0.341   0.351   0.352   0.361   0.389   0.391   0.410   0.412
 14 B1   16 A1    7 A2   17 A1    8 B2   15 B1    8 A2   18 A1                 
  0.440   0.462   0.480   0.481   0.510   0.529   0.541   0.571
 19 A1   16 B1   20 A1   17 B1    9 B2   18 B1   10 B2   21 A1                 
  0.579   0.603   0.611   0.628   0.639   0.645   0.699   0.716
 11 B2    9 A2   22 A1   19 B1   10 A2   23 A1   20 B1   11 A2                 
  0.773   0.793   0.836   0.840   0.896   0.906   0.913   0.938
 21 B1   24 A1   12 B2   22 B1   25 A1   13 B2   26 A1   12 A2                 
  0.971   0.980   1.005   1.055   1.104   1.131   1.146   1.188
 23 B1   27 A1   24 B1   28 A1   25 B1   14 B2   13 A2   29 A1                 
  1.212   1.235   1.292   1.297   1.300   1.325   1.351   1.386
 15 B2   26 B1   14 A2   30 A1   27 B1   31 A1   16 B2   28 B1                 
  1.421   1.421   1.456   1.565   1.578   1.655   1.672   1.698
 15 A2   17 B2   32 A1   29 B1   33 A1   30 B1   18 B2   19 B2                 
  1.795   1.806   1.836   1.876   2.018   2.151   2.181   2.247
 34 A1   31 B1   16 A2   17 A2   32 B1   35 A1   33 B1   18 A2                 
  2.736   2.898   2.898   2.918   2.937   2.951   3.037   3.050
 36 A1   37 A1   20 B2   38 A1   34 B1   21 B2   39 A1   19 A2                 
  3.102   3.147   3.148   3.219   3.269   3.286   3.320   3.377
 40 A1   22 B2   35 B1   20 A2   41 A1   23 B2   42 A1   21 A2                 
  3.416   3.419   3.474   3.612   3.616   3.635   3.654   3.661
 36 B1   24 B2   43 A1   37 B1   25 B2   22 A2   38 B1   23 A2                 
  3.677   3.696   3.766   3.792   3.810   3.832   3.836   3.837
 39 B1   40 B1   44 A1   26 B2   45 A1   46 A1   24 A2   27 B2                 
  3.882   3.892   3.951   3.973   4.129   4.158   4.172   4.177
 47 A1   41 B1   28 B2   25 A2   42 B1   43 B1   26 A2   29 B2                 
  4.200   4.219   4.268   4.307   4.362   4.379   4.437   4.464
 48 A1   49 A1   27 A2   30 B2   44 B1   45 B1   50 A1   51 A1                 
  4.467   4.496   4.513   4.571   4.742   4.762   4.815   4.890
 31 B2   28 A2   46 B1   52 A1   47 B1   32 B2   29 A2   53 A1                 
  4.948   5.008   5.100   5.200   5.236   5.315   5.373   5.460
 48 B1   49 B1   54 A1   55 A1   30 A2   33 B2   34 B2   50 B1                 
  5.517   5.576   5.630   5.692   5.826   5.879   6.258   6.339
 56 A1   31 A2   32 A2   51 B1   35 B2   57 A1   33 A2   52 B1                 
  6.467   6.820   7.046  13.111  15.544
 36 B2   53 B1   34 A2   58 A1   54 B1                                         

 Occupation and symmetry of molecular orbitals

 Point group: C2v (4 irreducible representations).

                           A1   A2   B1   B2    All 
 ----------------------------------------------------
 All molecular orbitals:
  - Alpha                  58   34   54   36    182 
  - Beta                   58   34   54   36    182 
 ----------------------------------------------------
 Alpha orbitals:
  - Frozen occupied        1    0    1    0     2   
  - Active occupied        4    1    1    1     7   
  - Active virtual         53   33   52   35    173 
  - Frozen virtual         0    0    0    0     0   
 ----------------------------------------------------
 Beta orbitals:
  - Frozen occupied        1    0    1    0     2   
  - Active occupied        4    1    1    1     7   
  - Active virtual         53   33   52   35    173 
  - Frozen virtual         0    0    0    0     0   
 ----------------------------------------------------

 Import integrals:   CPU 0.00 s  wall 0.00 s

 Import integrals:   CPU 95.08 s  wall 9.19 s

 MP2 amplitudes:   CPU 3.90 s  wall 3.07 s

Running a double precision version
           CCSD T amplitudes will be solved using DIIS.

           Start     Size      MaxIter   EConv     TConv     
           3         7         100       1.00e-06  1.00e-04  
 ------------------------------------------------------------------------------
           Energy (a.u.)   Ediff      Tdiff       Comment
 ------------------------------------------------------------------------------
           -78.90041817                           
     1     -78.91780813   1.74e-02   6.01e-01     
     2     -78.92882977   1.10e-02   6.88e-02     
     3     -78.93091705   2.09e-03   2.25e-02     
     4     -78.93191098   9.94e-04   9.97e-03     Switched to DIIS steps.
     5     -78.93312472   1.21e-03   1.45e-02     
     6     -78.93347536   3.51e-04   1.17e-02     
     7     -78.93357411   9.88e-05   3.11e-03     
     8     -78.93359391   1.98e-05   4.56e-03     
     9     -78.93360335   9.44e-06   2.59e-03     
    10     -78.93360599   2.64e-06   1.06e-03     
    11     -78.93360749   1.50e-06   9.05e-04     
    12     -78.93360345   4.04e-06   6.90e-04     
    13     -78.93361356   1.01e-05   2.88e-04     
    14     -78.93361438   8.20e-07   1.50e-04     
    15     -78.93361694   2.57e-06   1.92e-04     
    16     -78.93361979   2.84e-06   1.16e-04     
    17     -78.93362094   1.15e-06   6.80e-05     
    18     -78.93362168   7.40e-07   4.38e-05     
 ------------------------------------------------------------------------------
           -78.93362168                           CCSD T converged.

End of double precision
 SCF energy                 = -78.53168717
 MP2 energy                 = -78.90041817
 CCSD correlation energy    =  -0.40193450
 CCSD total energy          = -78.93362168

 CCSD  T1^2 = 0.0201  T2^2 = 0.1987  Leading amplitudes:

 Amplitude    Orbitals with energies
  0.0522       5 (A1) A                  ->    9 (A1) A                   
              -0.0349                          0.1157                     
  0.0522       5 (A1) B                  ->    9 (A1) B                   
              -0.0349                          0.1157                     
  0.0496       5 (A1) A                  ->    7 (A1) A                   
              -0.0349                          0.0763                     
  0.0496       5 (A1) B                  ->    7 (A1) B                   
              -0.0349                          0.0763                     

 Amplitude    Orbitals with energies
 -0.0549       4 (A1) A      4 (A1) B    ->    12 (B1) A     12 (B1) B    
              -0.2248       -0.2248            0.3037        0.3037       
  0.0549       4 (A1) A      4 (A1) B    ->    12 (B1) B     12 (B1) A    
              -0.2248       -0.2248            0.3037        0.3037       
  0.0549       4 (A1) B      4 (A1) A    ->    12 (B1) A     12 (B1) B    
              -0.2248       -0.2248            0.3037        0.3037       
 -0.0549       4 (A1) B      4 (A1) A    ->    12 (B1) B     12 (B1) A    
              -0.2248       -0.2248            0.3037        0.3037       

 Computing CCSD intermediates for later calculations in double precision
 Finished.

Running a double precision version
           CCSD Lambda amplitudes will be solved using DIIS.
           Start     Size      MaxIter   EConv     LConv     
           3         7         100       1.00e-06  1.00e-04  
 ------------------------------------------------------------------------------
            Enorm      Ldiff       Comment
 ------------------------------------------------------------------------------
     1     4.79e-02   3.64e-02     
     2     1.91e-02   5.11e-03     
     3     2.03e-02   3.73e-03     
     4     5.78e-03   6.66e-04     Switched to DIIS steps.
     5     5.02e-03   1.58e-03     
     6     2.72e-03   1.61e-03     
     7     1.90e-03   8.60e-04     
     8     1.05e-03   7.90e-04     
     9     6.67e-04   4.24e-04     
    10     4.54e-04   1.80e-04     
    11     3.08e-04   7.20e-05     
    12     1.76e-04   4.03e-05     
    13     1.19e-04   2.28e-05     
    14     8.88e-05   9.73e-06     
    15     5.82e-05   8.04e-06     
    16     4.07e-05   5.85e-06     
    17     2.89e-05   5.47e-06     
    18     2.35e-05   4.84e-06     
    19     1.70e-05   4.71e-06     
    20     1.14e-05   4.56e-06     
    21     8.80e-06   2.76e-06     
    22     6.66e-06   2.06e-06     
    23     4.76e-06   1.30e-06     
    24     3.59e-06   6.81e-07     
    25     2.69e-06   4.98e-07     
    26     1.98e-06   3.35e-07     
    27     1.30e-06   2.04e-07     
    28     9.50e-07   1.40e-07     
 ------------------------------------------------------------------------------
                                   CCSD Lambda converged.

 CCSD calculation:   CPU 923.47 s  wall 128.33 s

        Solving for EOMEE-CCSD B1 singlet states.

Running a double precision version
        EOMEE-CCSD/MP2 right amplitudes will be solved using Davidson.
        Amplitudes will be solved using standard  algorithm.
     Hard-coded thresholds: 
     LinDepThresh=1.00e-15  NormThresh=1.00e-06  ReorthogonThresh=1.00e-02

      Roots     MaxVec    MaxIter   Precond   Conv      Shift    
      10        120       60        1         1.00e-05  0.00e+00  
 ------------------------------------------------------------------------------
      Iter ConvRoots NVecs ResNorm Current eigenvalues (eV)
 ------------------------------------------------------------------------------
      0    0      10    3.93e-02   2.4366   2.6065   3.0298   3.3419   4.0499   4.5434   5.7742   6.0933   6.7861   8.5131   
      1    0      20    4.57e-02   1.0365   1.2975   1.7473   2.0458   2.8514   3.2823   4.6922   5.2116   5.5720   7.0804   
      2    0      30    2.31e-03   0.6829   0.8715   1.2578   1.5806   2.2415   2.6350   3.8422   3.8830   4.9091   6.5790   
      3    0      40    7.07e-04   0.6484   0.8245   1.2032   1.5233   2.1698   2.5044   3.5372   3.7655   4.8333   6.5239   
      4    2      50    4.26e-03   0.6433*  0.8170*  1.1950   1.5129   2.1581   2.4669   3.3875   3.7378   4.8138   6.1337   
      5    5      58    5.64e-04   0.6433*  0.8170*  1.1948*  1.5129*  2.1574*  2.4566   3.3327   3.7334   4.8092   5.1875   
      6    7      63    6.52e-05   0.6433*  0.8170*  1.1948*  1.5129*  2.1574*  2.4558*  3.3249   3.7326*  4.8086   5.0809   
      7    9      66    1.26e-05   0.6433*  0.8170*  1.1948*  1.5129*  2.1574*  2.4557*  3.3244*  3.7326*  4.8083*  5.0682   
      8    9      67    4.71e-06   0.6433*  0.8170*  1.1948*  1.5129*  2.1574*  2.4557*  3.3243*  3.7326*  4.8083*  5.0659   
      9    10     68    3.48e-06   0.6433*  0.8170*  1.1948*  1.5129*  2.1575*  2.4557*  3.3243*  3.7326*  4.8083*  5.0657*  

     Davidson procedure converged

 EOMEE transition 1/B1
 Total energy = -78.90998157 a.u.  Excitation energy = 0.6433 eV.
 R0^2 = 0.0000  R1^2 = 0.8397  R2^2 = 0.1603  Res^2 = 5.02e-06
 Conv-d = yes

 Amplitude    Transitions between orbitals
  0.5017       5 (A1) A                  ->    3 (B1) A                   
  0.5017       5 (A1) B                  ->    3 (B1) B                   
 -0.3149       5 (A1) A                  ->    4 (B1) A                   
 -0.3149       5 (A1) B                  ->    4 (B1) B                   
 -0.1991       5 (A1) A                  ->    5 (B1) A                   
 -0.1991       5 (A1) B                  ->    5 (B1) B                   
  0.1474       5 (A1) A                  ->    6 (B1) A                   
  0.1474       5 (A1) B                  ->    6 (B1) B                   

              Summary of significant orbitals:

               Number  Type             Irrep      Energy
               9       Occ  Alpha       5 (A1)     -0.0349
               9       Occ  Beta        5 (A1)     -0.0349
               10      Vir  Alpha       3 (B1)      0.0563
               14      Vir  Alpha       4 (B1)      0.0670
               16      Vir  Alpha       5 (B1)      0.0919
               20      Vir  Alpha       6 (B1)      0.1126
               10      Vir  Beta        3 (B1)      0.0563
               14      Vir  Beta        4 (B1)      0.0670
               16      Vir  Beta        5 (B1)      0.0919
               20      Vir  Beta        6 (B1)      0.1126


 EOMEE transition 2/B1
 Total energy = -78.90359768 a.u.  Excitation energy = 0.8170 eV.
 R0^2 = 0.0000  R1^2 = 0.8396  R2^2 = 0.1604  Res^2 = 8.03e-06
 Conv-d = yes

 Amplitude    Transitions between orbitals
  0.5160       5 (A1) A                  ->    4 (B1) A                   
  0.5160       5 (A1) B                  ->    4 (B1) B                   
  0.3453       5 (A1) A                  ->    3 (B1) A                   
  0.3453       5 (A1) B                  ->    3 (B1) B                   
 -0.1629       5 (A1) A                  ->    6 (B1) A                   
 -0.1629       5 (A1) B                  ->    6 (B1) B                   

              Summary of significant orbitals:

               Number  Type             Irrep      Energy
               9       Occ  Alpha       5 (A1)     -0.0349
               9       Occ  Beta        5 (A1)     -0.0349
               10      Vir  Alpha       3 (B1)      0.0563
               14      Vir  Alpha       4 (B1)      0.0670
               20      Vir  Alpha       6 (B1)      0.1126
               10      Vir  Beta        3 (B1)      0.0563
               14      Vir  Beta        4 (B1)      0.0670
               20      Vir  Beta        6 (B1)      0.1126


 EOMEE transition 3/B1
 Total energy = -78.88971413 a.u.  Excitation energy = 1.1948 eV.
 R0^2 = 0.0000  R1^2 = 0.8395  R2^2 = 0.1605  Res^2 = 8.16e-07
 Conv-d = yes

 Amplitude    Transitions between orbitals
  0.4659       5 (A1) A                  ->    5 (B1) A                   
  0.4659       5 (A1) B                  ->    5 (B1) B                   
 -0.2456       5 (A1) A                  ->    6 (B1) A                   
 -0.2456       5 (A1) B                  ->    6 (B1) B                   
  0.2188       5 (A1) A                  ->    7 (B1) A                   
  0.2188       5 (A1) B                  ->    7 (B1) B                   
  0.2059       5 (A1) A                  ->    3 (B1) A                   
  0.2059       5 (A1) B                  ->    3 (B1) B                   
 -0.1553       5 (A1) A                  ->    4 (B1) A                   
 -0.1553       5 (A1) B                  ->    4 (B1) B                   
 -0.1421       5 (A1) A                  ->    8 (B1) A                   
 -0.1421       5 (A1) B                  ->    8 (B1) B                   

              Summary of significant orbitals:

               Number  Type             Irrep      Energy
               9       Occ  Alpha       5 (A1)     -0.0349
               9       Occ  Beta        5 (A1)     -0.0349
               10      Vir  Alpha       3 (B1)      0.0563
               14      Vir  Alpha       4 (B1)      0.0670
               16      Vir  Alpha       5 (B1)      0.0919
               20      Vir  Alpha       6 (B1)      0.1126
               22      Vir  Alpha       7 (B1)      0.1405
               27      Vir  Alpha       8 (B1)      0.1724
               10      Vir  Beta        3 (B1)      0.0563
               14      Vir  Beta        4 (B1)      0.0670
               16      Vir  Beta        5 (B1)      0.0919
               20      Vir  Beta        6 (B1)      0.1126
               22      Vir  Beta        7 (B1)      0.1405
               27      Vir  Beta        8 (B1)      0.1724


 EOMEE transition 4/B1
 Total energy = -78.87802506 a.u.  Excitation energy = 1.5129 eV.
 R0^2 = 0.0000  R1^2 = 0.8393  R2^2 = 0.1607  Res^2 = 6.33e-07
 Conv-d = yes

 Amplitude    Transitions between orbitals
 -0.4832       5 (A1) A                  ->    6 (B1) A                   
 -0.4832       5 (A1) B                  ->    6 (B1) B                   
 -0.3130       5 (A1) A                  ->    5 (B1) A                   
 -0.3130       5 (A1) B                  ->    5 (B1) B                   
 -0.2061       5 (A1) A                  ->    8 (B1) A                   
 -0.2061       5 (A1) B                  ->    8 (B1) B                   
 -0.1680       5 (A1) A                  ->    4 (B1) A                   
 -0.1680       5 (A1) B                  ->    4 (B1) B                   

              Summary of significant orbitals:

               Number  Type             Irrep      Energy
               9       Occ  Alpha       5 (A1)     -0.0349
               9       Occ  Beta        5 (A1)     -0.0349
               14      Vir  Alpha       4 (B1)      0.0670
               16      Vir  Alpha       5 (B1)      0.0919
               20      Vir  Alpha       6 (B1)      0.1126
               27      Vir  Alpha       8 (B1)      0.1724
               14      Vir  Beta        4 (B1)      0.0670
               16      Vir  Beta        5 (B1)      0.0919
               20      Vir  Beta        6 (B1)      0.1126
               27      Vir  Beta        8 (B1)      0.1724


 EOMEE transition 5/B1
 Total energy = -78.85433670 a.u.  Excitation energy = 2.1575 eV.
 R0^2 = 0.0000  R1^2 = 0.8398  R2^2 = 0.1602  Res^2 = 1.98e-06
 Conv-d = yes

 Amplitude    Transitions between orbitals
  0.4996       5 (A1) A                  ->    7 (B1) A                   
  0.4996       5 (A1) B                  ->    7 (B1) B                   
 -0.2299       5 (A1) A                  ->    5 (B1) A                   
 -0.2299       5 (A1) B                  ->    5 (B1) B                   
 -0.1974       5 (A1) A                  ->    8 (B1) A                   
 -0.1974       5 (A1) B                  ->    8 (B1) B                   
 -0.1793       5 (A1) A                  ->    9 (B1) A                   
 -0.1793       5 (A1) B                  ->    9 (B1) B                   
  0.1604       5 (A1) A                  ->    6 (B1) A                   
  0.1604       5 (A1) B                  ->    6 (B1) B                   
  0.1174       5 (A1) A                  ->    10 (B1) A                  
  0.1174       5 (A1) B                  ->    10 (B1) B                  

              Summary of significant orbitals:

               Number  Type             Irrep      Energy
               9       Occ  Alpha       5 (A1)     -0.0349
               9       Occ  Beta        5 (A1)     -0.0349
               16      Vir  Alpha       5 (B1)      0.0919
               20      Vir  Alpha       6 (B1)      0.1126
               22      Vir  Alpha       7 (B1)      0.1405
               27      Vir  Alpha       8 (B1)      0.1724
               29      Vir  Alpha       9 (B1)      0.2101
               32      Vir  Alpha      10 (B1)      0.2451
               16      Vir  Beta        5 (B1)      0.0919
               20      Vir  Beta        6 (B1)      0.1126
               22      Vir  Beta        7 (B1)      0.1405
               27      Vir  Beta        8 (B1)      0.1724
               29      Vir  Beta        9 (B1)      0.2101
               32      Vir  Beta       10 (B1)      0.2451


 EOMEE transition 6/B1
 Total energy = -78.84337547 a.u.  Excitation energy = 2.4557 eV.
 R0^2 = 0.0000  R1^2 = 0.8406  R2^2 = 0.1594  Res^2 = 1.87e-06
 Conv-d = yes

 Amplitude    Transitions between orbitals
 -0.4190       5 (A1) A                  ->    8 (B1) A                   
 -0.4190       5 (A1) B                  ->    8 (B1) B                   
  0.2849       5 (A1) A                  ->    10 (B1) A                  
  0.2849       5 (A1) B                  ->    10 (B1) B                  
 -0.2348       5 (A1) A                  ->    7 (B1) A                   
 -0.2348       5 (A1) B                  ->    7 (B1) B                   
  0.2085       5 (A1) A                  ->    6 (B1) A                   
  0.2085       5 (A1) B                  ->    6 (B1) B                   
 -0.1810       5 (A1) A                  ->    12 (B1) A                  
 -0.1810       5 (A1) B                  ->    12 (B1) B                  
  0.1048       5 (A1) A                  ->    9 (B1) A                   
  0.1048       5 (A1) B                  ->    9 (B1) B                   

              Summary of significant orbitals:

               Number  Type             Irrep      Energy
               9       Occ  Alpha       5 (A1)     -0.0349
               9       Occ  Beta        5 (A1)     -0.0349
               20      Vir  Alpha       6 (B1)      0.1126
               22      Vir  Alpha       7 (B1)      0.1405
               27      Vir  Alpha       8 (B1)      0.1724
               29      Vir  Alpha       9 (B1)      0.2101
               32      Vir  Alpha      10 (B1)      0.2451
               38      Vir  Alpha      12 (B1)      0.3037
               20      Vir  Beta        6 (B1)      0.1126
               22      Vir  Beta        7 (B1)      0.1405
               27      Vir  Beta        8 (B1)      0.1724
               29      Vir  Beta        9 (B1)      0.2101
               32      Vir  Beta       10 (B1)      0.2451
               38      Vir  Beta       12 (B1)      0.3037


 EOMEE transition 7/B1
 Total energy = -78.81145595 a.u.  Excitation energy = 3.3243 eV.
 R0^2 = 0.0000  R1^2 = 0.8433  R2^2 = 0.1567  Res^2 = 2.75e-06
 Conv-d = yes

 Amplitude    Transitions between orbitals
 -0.3416       5 (A1) A                  ->    10 (B1) A                  
 -0.3416       5 (A1) B                  ->    10 (B1) B                  
 -0.3258       5 (A1) A                  ->    8 (B1) A                   
 -0.3258       5 (A1) B                  ->    8 (B1) B                   
  0.3230       5 (A1) A                  ->    12 (B1) A                  
  0.3230       5 (A1) B                  ->    12 (B1) B                  
 -0.1828       5 (A1) A                  ->    14 (B1) A                  
 -0.1828       5 (A1) B                  ->    14 (B1) B                  
 -0.1580       5 (A1) A                  ->    9 (B1) A                   
 -0.1580       5 (A1) B                  ->    9 (B1) B                   
 -0.1246       5 (A1) A                  ->    7 (B1) A                   
 -0.1246       5 (A1) B                  ->    7 (B1) B                   

              Summary of significant orbitals:

               Number  Type             Irrep      Energy
               9       Occ  Alpha       5 (A1)     -0.0349
               9       Occ  Beta        5 (A1)     -0.0349
               22      Vir  Alpha       7 (B1)      0.1405
               27      Vir  Alpha       8 (B1)      0.1724
               29      Vir  Alpha       9 (B1)      0.2101
               32      Vir  Alpha      10 (B1)      0.2451
               38      Vir  Alpha      12 (B1)      0.3037
               42      Vir  Alpha      14 (B1)      0.3408
               22      Vir  Beta        7 (B1)      0.1405
               27      Vir  Beta        8 (B1)      0.1724
               29      Vir  Beta        9 (B1)      0.2101
               32      Vir  Beta       10 (B1)      0.2451
               38      Vir  Beta       12 (B1)      0.3037
               42      Vir  Beta       14 (B1)      0.3408


 EOMEE transition 8/B1
 Total energy = -78.79645143 a.u.  Excitation energy = 3.7326 eV.
 R0^2 = 0.0000  R1^2 = 0.8403  R2^2 = 0.1597  Res^2 = 4.95e-06
 Conv-d = yes

 Amplitude    Transitions between orbitals
  0.5342       5 (A1) A                  ->    9 (B1) A                   
  0.5342       5 (A1) B                  ->    9 (B1) B                   
 -0.2276       5 (A1) A                  ->    10 (B1) A                  
 -0.2276       5 (A1) B                  ->    10 (B1) B                  
  0.2036       5 (A1) A                  ->    7 (B1) A                   
  0.2036       5 (A1) B                  ->    7 (B1) B                   
 -0.1198       5 (A1) A                  ->    8 (B1) A                   
 -0.1198       5 (A1) B                  ->    8 (B1) B                   
 -0.1181       5 (A1) A                  ->    14 (B1) A                  
 -0.1181       5 (A1) B                  ->    14 (B1) B                  

              Summary of significant orbitals:

               Number  Type             Irrep      Energy
               9       Occ  Alpha       5 (A1)     -0.0349
               9       Occ  Beta        5 (A1)     -0.0349
               22      Vir  Alpha       7 (B1)      0.1405
               27      Vir  Alpha       8 (B1)      0.1724
               29      Vir  Alpha       9 (B1)      0.2101
               32      Vir  Alpha      10 (B1)      0.2451
               42      Vir  Alpha      14 (B1)      0.3408
               22      Vir  Beta        7 (B1)      0.1405
               27      Vir  Beta        8 (B1)      0.1724
               29      Vir  Beta        9 (B1)      0.2101
               32      Vir  Beta       10 (B1)      0.2451
               42      Vir  Beta       14 (B1)      0.3408


 EOMEE transition 9/B1
 Total energy = -78.75691892 a.u.  Excitation energy = 4.8083 eV.
 R0^2 = 0.0000  R1^2 = 0.8406  R2^2 = 0.1594  Res^2 = 5.76e-06
 Conv-d = yes

 Amplitude    Transitions between orbitals
  0.6314       5 (A1) A                  ->    11 (B1) A                  
  0.6314       5 (A1) B                  ->    11 (B1) B                  
  0.0823       5 (A1) A                  ->    13 (B1) A                  
  0.0823       5 (A1) B                  ->    13 (B1) B                  

              Summary of significant orbitals:

               Number  Type             Irrep      Energy
               9       Occ  Alpha       5 (A1)     -0.0349
               9       Occ  Beta        5 (A1)     -0.0349
               35      Vir  Alpha      11 (B1)      0.2722
               39      Vir  Alpha      13 (B1)      0.3084
               35      Vir  Beta       11 (B1)      0.2722
               39      Vir  Beta       13 (B1)      0.3084


 EOMEE transition 10/B1
 Total energy = -78.74746180 a.u.  Excitation energy = 5.0657 eV.
 R0^2 = 0.0000  R1^2 = 0.8386  R2^2 = 0.1614  Res^2 = 2.98e-06
 Conv-d = yes

 Amplitude    Transitions between orbitals
 -0.3961       5 (A1) A                  ->    12 (B1) A                  
 -0.3961       5 (A1) B                  ->    12 (B1) B                  
 -0.3477       5 (A1) A                  ->    10 (B1) A                  
 -0.3477       5 (A1) B                  ->    10 (B1) B                  
 -0.1967       5 (A1) A                  ->    9 (B1) A                   
 -0.1967       5 (A1) B                  ->    9 (B1) B                   
  0.1945       5 (A1) A                  ->    13 (B1) A                  
  0.1945       5 (A1) B                  ->    13 (B1) B                  
  0.1733       5 (A1) A                  ->    14 (B1) A                  
  0.1733       5 (A1) B                  ->    14 (B1) B                  
 -0.1136       5 (A1) A                  ->    17 (B1) A                  
 -0.1136       5 (A1) B                  ->    17 (B1) B                  

              Summary of significant orbitals:

               Number  Type             Irrep      Energy
               9       Occ  Alpha       5 (A1)     -0.0349
               9       Occ  Beta        5 (A1)     -0.0349
               29      Vir  Alpha       9 (B1)      0.2101
               32      Vir  Alpha      10 (B1)      0.2451
               38      Vir  Alpha      12 (B1)      0.3037
               39      Vir  Alpha      13 (B1)      0.3084
               42      Vir  Alpha      14 (B1)      0.3408
               53      Vir  Alpha      17 (B1)      0.4805
               29      Vir  Beta        9 (B1)      0.2101
               32      Vir  Beta       10 (B1)      0.2451
               38      Vir  Beta       12 (B1)      0.3037
               39      Vir  Beta       13 (B1)      0.3084
               42      Vir  Beta       14 (B1)      0.3408
               53      Vir  Beta       17 (B1)      0.4805


Running a double precision version
      EOM-CCSD/MP2 left amplitudes will be solved using Davidson.
        Amplitudes will be solved using MOM  algorithm.
     Hard-coded thresholds: 
     LinDepThresh=1.00e-15  NormThresh=1.00e-06  ReorthogonThresh=1.00e-02

      Roots     MaxVec    MaxIter   Precond   Conv      Shift    
      10        120       60        1         1.00e-05  0.00e+00  
 ------------------------------------------------------------------------------
      Iter ConvRoots NVecs ResNorm Current eigenvalues (eV)
 ------------------------------------------------------------------------------
      0    0      10    1.91e-03   0.6433   0.8170   1.1948   1.5129   2.1575   2.4557   3.3243   3.7326   4.8083   5.0657   
      1    0      20    1.89e-03   0.6432   0.8170   1.1948   1.5129   2.1575   2.4557   3.3241   3.7326   4.8079   5.0655   
      2    0      30    5.72e-05   0.6435   0.8175   1.1948   1.5129   2.1576   2.4557   3.3241   3.7325   4.8080   5.0655   
      3    7      40    1.51e-05   0.6436*  0.8175*  1.1948*  1.5129*  2.1575*  2.4557*  3.3242*  3.7325   4.8080   5.0655   
      4    10     43    4.53e-06   0.6436*  0.8175*  1.1948*  1.5129*  2.1575*  2.4557*  3.3242*  3.7325*  4.8080*  5.0655*  

     Davidson procedure converged

 Excited state properties for  EOMEE-CCSD transition 1/B1
 Dipole moment (a.u.): 0.106960 (X 0.000000, Y 0.000000, Z 0.106960)
 R-squared (a.u.): 480.745049 (XX 268.869371, YY 95.739738, ZZ 116.135940)
 Gauge origin (a.u.): (0.000000, 0.000000, 0.000000)
 Angular momentum (a.u.) against gauge origin: 
 (X 0.000000i, Y 0.000000i, Z 0.000000i)
 Traces of the OPDMs: Tr(AA) 9.000000, Tr(BB) 9.000000

 Excited state properties for  EOMEE-CCSD transition 2/B1
 Dipole moment (a.u.): 0.691553 (X 0.000000, Y 0.000000, Z 0.691553)
 R-squared (a.u.): 553.623820 (XX 236.679590, YY 85.672822, ZZ 231.271408)
 Gauge origin (a.u.): (0.000000, 0.000000, 0.000000)
 Angular momentum (a.u.) against gauge origin: 
 (X 0.000000i, Y 0.000000i, Z 0.000000i)
 Traces of the OPDMs: Tr(AA) 9.000000, Tr(BB) 9.000000

 Excited state properties for  EOMEE-CCSD transition 3/B1
 Dipole moment (a.u.): 0.121750 (X 0.000000, Y 0.000000, Z 0.121750)
 R-squared (a.u.): 423.938335 (XX 232.435525, YY 85.747502, ZZ 105.755308)
 Gauge origin (a.u.): (0.000000, 0.000000, 0.000000)
 Angular momentum (a.u.) against gauge origin: 
 (X 0.000000i, Y 0.000000i, Z 0.000000i)
 Traces of the OPDMs: Tr(AA) 9.000000, Tr(BB) 9.000000

 Excited state properties for  EOMEE-CCSD transition 4/B1
 Dipole moment (a.u.): 0.662997 (X 0.000000, Y 0.000000, Z 0.662997)
 R-squared (a.u.): 423.508662 (XX 181.295615, YY 67.013886, ZZ 175.199161)
 Gauge origin (a.u.): (0.000000, 0.000000, 0.000000)
 Angular momentum (a.u.) against gauge origin: 
 (X 0.000000i, Y 0.000000i, Z 0.000000i)
 Traces of the OPDMs: Tr(AA) 9.000000, Tr(BB) 9.000000

 Excited state properties for  EOMEE-CCSD transition 5/B1
 Dipole moment (a.u.): 0.061650 (X 0.000000, Y 0.000001, Z 0.061650)
 R-squared (a.u.): 376.318514 (XX 204.491164, YY 75.816901, ZZ 96.010448)
 Gauge origin (a.u.): (0.000000, 0.000000, 0.000000)
 Angular momentum (a.u.) against gauge origin: 
 (X 0.000000i, Y 0.000000i, Z 0.000000i)
 Traces of the OPDMs: Tr(AA) 9.000000, Tr(BB) 9.000000

 Excited state properties for  EOMEE-CCSD transition 6/B1
 Dipole moment (a.u.): 0.667571 (X 0.000000, Y 0.000001, Z 0.667571)
 R-squared (a.u.): 289.257420 (XX 122.363865, YY 48.445790, ZZ 118.447765)
 Gauge origin (a.u.): (0.000000, 0.000000, 0.000000)
 Angular momentum (a.u.) against gauge origin: 
 (X 0.000000i, Y 0.000000i, Z 0.000000i)
 Traces of the OPDMs: Tr(AA) 9.000000, Tr(BB) 9.000000

 Excited state properties for  EOMEE-CCSD transition 7/B1
 Dipole moment (a.u.): 0.086574 (X 0.000000, Y 0.000001, Z 0.086574)
 R-squared (a.u.): 255.713949 (XX 108.149205, YY 44.008046, ZZ 103.556699)
 Gauge origin (a.u.): (0.000000, 0.000000, 0.000000)
 Angular momentum (a.u.) against gauge origin: 
 (X 0.000000i, Y 0.000000i, Z 0.000000i)
 Traces of the OPDMs: Tr(AA) 9.000000, Tr(BB) 9.000000

 Excited state properties for  EOMEE-CCSD transition 8/B1
 Dipole moment (a.u.): 0.556749 (X 0.000000, Y 0.000002, Z 0.556749)
 R-squared (a.u.): 318.068582 (XX 166.997862, YY 65.884456, ZZ 85.186265)
 Gauge origin (a.u.): (0.000000, 0.000000, 0.000000)
 Angular momentum (a.u.) against gauge origin: 
 (X 0.000000i, Y 0.000000i, Z 0.000000i)
 Traces of the OPDMs: Tr(AA) 9.000000, Tr(BB) 9.000000

 Excited state properties for  EOMEE-CCSD transition 9/B1
 Dipole moment (a.u.): 0.350635 (X 0.000000, Y 0.000001, Z 0.350635)
 R-squared (a.u.): 186.241862 (XX 81.983809, YY 49.182928, ZZ 55.075125)
 Gauge origin (a.u.): (0.000000, 0.000000, 0.000000)
 Angular momentum (a.u.) against gauge origin: 
 (X 0.000000i, Y 0.000000i, Z 0.000000i)
 Traces of the OPDMs: Tr(AA) 9.000000, Tr(BB) 9.000000

 Excited state properties for  EOMEE-CCSD transition 10/B1
 Dipole moment (a.u.): 0.529075 (X 0.000000, Y 0.000004, Z 0.529075)
 R-squared (a.u.): 266.142937 (XX 115.775851, YY 44.360032, ZZ 106.007054)
 Gauge origin (a.u.): (0.000000, 0.000000, 0.000000)
 Angular momentum (a.u.) against gauge origin: 
 (X 0.000000i, Y 0.000000i, Z 0.000000i)
 Traces of the OPDMs: Tr(AA) 9.000000, Tr(BB) 9.000000

 EOMEE-CCSD calculation:   CPU 2952.55 s  wall 385.13 s


 Start computing the transition properties

 ------------------------------------------------------------------------------
 State A: eomee_ccsd/rhfref/singlets: 1/B1
 State B: eomee_ccsd/rhfref/singlets: 2/B1
 Energy GAP = 0.006384 a.u. = 0.173715 eV
 Transition dipole moment (a.u.):
   A->B: 8.466360 (X 0.000000, Y 0.000000, Z 8.466360)
   B->A: 8.467334 (X 0.000000, Y 0.000000, Z 8.467334)
 Oscillator strength (a.u.): 0.305097
 Transition angular momentum against gauge origin (a.u.):
   A->B:  (X 0.000000i, Y 0.000000i, Z 0.000000i)
   B->A:  (X 0.000000i, Y 0.000000i, Z 0.000000i)

 Electronic circular dichroism (ECD):
 Transition dipole moment/angular momentum:
   A->B->A:  (X 0.000000, Y 0.000000, Z 0.000000)
   Rotatory strength, length gauge (a.u.): -0.000000
   Rotatory strength, length gauge (1.0e-40 cgs): -0.000006
 Transition linear momentum/angular momentum:
   A->B->A:  (X 0.000000, Y 0.000000, Z 0.000000)
   Rotatory strength, velocity gauge (a.u.): -0.000000
   Rotatory strength, velocity gauge (1.0e-40 cgs): -0.000006

 Norm of one-particle transition density matrix:
   A->B: 0.706907;   B->A: 0.706917
   ||gamma^AB||*||gamma^BA||: 0.499725

 ------------------------------------------------------------------------------
 State A: eomee_ccsd/rhfref/singlets: 1/B1
 State B: eomee_ccsd/rhfref/singlets: 3/B1
 Energy GAP = 0.020267 a.u. = 0.551506 eV
 Transition dipole moment (a.u.):
   A->B: 0.059473 (X 0.000000, Y 0.000000, Z -0.059473)
   B->A: 0.060442 (X 0.000000, Y 0.000000, Z -0.060442)
 Oscillator strength (a.u.): 0.000049
 Transition angular momentum against gauge origin (a.u.):
   A->B:  (X 0.000000i, Y 0.000000i, Z 0.000000i)
   B->A:  (X 0.000000i, Y 0.000000i, Z 0.000000i)

 Electronic circular dichroism (ECD):
 Transition dipole moment/angular momentum:
   A->B->A:  (X 0.000000, Y 0.000000, Z 0.000000)
   Rotatory strength, length gauge (a.u.): 0.000000
   Rotatory strength, length gauge (1.0e-40 cgs): 0.000000
 Transition linear momentum/angular momentum:
   A->B->A:  (X 0.000000, Y 0.000000, Z 0.000000)
   Rotatory strength, velocity gauge (a.u.): 0.000000
   Rotatory strength, velocity gauge (1.0e-40 cgs): 0.000000

 Norm of one-particle transition density matrix:
   A->B: 0.706270;   B->A: 0.706138
   ||gamma^AB||*||gamma^BA||: 0.498724

 ------------------------------------------------------------------------------
 State A: eomee_ccsd/rhfref/singlets: 1/B1
 State B: eomee_ccsd/rhfref/singlets: 4/B1
 Energy GAP = 0.031957 a.u. = 0.869581 eV
 Transition dipole moment (a.u.):
   A->B: 0.340523 (X 0.000000, Y 0.000000, Z -0.340523)
   B->A: 0.341643 (X 0.000000, Y 0.000000, Z -0.341643)
 Oscillator strength (a.u.): 0.002478
 Transition angular momentum against gauge origin (a.u.):
   A->B:  (X 0.000000i, Y 0.000000i, Z 0.000000i)
   B->A:  (X 0.000000i, Y 0.000000i, Z 0.000000i)

 Electronic circular dichroism (ECD):
 Transition dipole moment/angular momentum:
   A->B->A:  (X 0.000000, Y 0.000000, Z 0.000000)
   Rotatory strength, length gauge (a.u.): -0.000000
   Rotatory strength, length gauge (1.0e-40 cgs): -0.000000
 Transition linear momentum/angular momentum:
   A->B->A:  (X 0.000000, Y 0.000000, Z 0.000000)
   Rotatory strength, velocity gauge (a.u.): -0.000000
   Rotatory strength, velocity gauge (1.0e-40 cgs): -0.000001

 Norm of one-particle transition density matrix:
   A->B: 0.706427;   B->A: 0.706367
   ||gamma^AB||*||gamma^BA||: 0.498996

 ------------------------------------------------------------------------------
 State A: eomee_ccsd/rhfref/singlets: 1/B1
 State B: eomee_ccsd/rhfref/singlets: 5/B1
 Energy GAP = 0.055645 a.u. = 1.514175 eV
 Transition dipole moment (a.u.):
   A->B: 0.005432 (X 0.000000, Y 0.000000, Z 0.005432)
   B->A: 0.004915 (X 0.000000, Y 0.000000, Z 0.004915)
 Oscillator strength (a.u.): 0.000001
 Transition angular momentum against gauge origin (a.u.):
   A->B:  (X 0.000000i, Y 0.000000i, Z 0.000000i)
   B->A:  (X 0.000000i, Y 0.000000i, Z 0.000000i)

 Electronic circular dichroism (ECD):
 Transition dipole moment/angular momentum:
   A->B->A:  (X 0.000000, Y 0.000000, Z 0.000000)
   Rotatory strength, length gauge (a.u.): 0.000000
   Rotatory strength, length gauge (1.0e-40 cgs): 0.000000
 Transition linear momentum/angular momentum:
   A->B->A:  (X 0.000000, Y 0.000000, Z 0.000000)
   Rotatory strength, velocity gauge (a.u.): 0.000000
   Rotatory strength, velocity gauge (1.0e-40 cgs): 0.000000

 Norm of one-particle transition density matrix:
   A->B: 0.705652;   B->A: 0.705159
   ||gamma^AB||*||gamma^BA||: 0.497597

 ------------------------------------------------------------------------------
 State A: eomee_ccsd/rhfref/singlets: 1/B1
 State B: eomee_ccsd/rhfref/singlets: 6/B1
 Energy GAP = 0.066606 a.u. = 1.812445 eV
 Transition dipole moment (a.u.):
   A->B: 0.057613 (X 0.000000, Y 0.000000, Z -0.057613)
   B->A: 0.056823 (X 0.000000, Y 0.000000, Z -0.056823)
 Oscillator strength (a.u.): 0.000145
 Transition angular momentum against gauge origin (a.u.):
   A->B:  (X 0.000000i, Y 0.000000i, Z 0.000000i)
   B->A:  (X 0.000000i, Y 0.000000i, Z 0.000000i)

 Electronic circular dichroism (ECD):
 Transition dipole moment/angular momentum:
   A->B->A:  (X 0.000000, Y 0.000000, Z 0.000000)
   Rotatory strength, length gauge (a.u.): 0.000000
   Rotatory strength, length gauge (1.0e-40 cgs): 0.000000
 Transition linear momentum/angular momentum:
   A->B->A:  (X 0.000000, Y 0.000000, Z 0.000000)
   Rotatory strength, velocity gauge (a.u.): -0.000000
   Rotatory strength, velocity gauge (1.0e-40 cgs): -0.000000

 Norm of one-particle transition density matrix:
   A->B: 0.701984;   B->A: 0.699941
   ||gamma^AB||*||gamma^BA||: 0.491348

 ------------------------------------------------------------------------------
 State A: eomee_ccsd/rhfref/singlets: 1/B1
 State B: eomee_ccsd/rhfref/singlets: 7/B1
 Energy GAP = 0.098526 a.u. = 2.681020 eV
 Transition dipole moment (a.u.):
   A->B: 0.126188 (X 0.000000, Y 0.000000, Z 0.126188)
   B->A: 0.127312 (X 0.000000, Y 0.000000, Z 0.127312)
 Oscillator strength (a.u.): 0.001055
 Transition angular momentum against gauge origin (a.u.):
   A->B:  (X 0.000000i, Y 0.000000i, Z 0.000000i)
   B->A:  (X 0.000000i, Y 0.000000i, Z 0.000000i)

 Electronic circular dichroism (ECD):
 Transition dipole moment/angular momentum:
   A->B->A:  (X 0.000000, Y 0.000000, Z 0.000000)
   Rotatory strength, length gauge (a.u.): -0.000000
   Rotatory strength, length gauge (1.0e-40 cgs): -0.000000
 Transition linear momentum/angular momentum:
   A->B->A:  (X 0.000000, Y 0.000000, Z 0.000000)
   Rotatory strength, velocity gauge (a.u.): -0.000000
   Rotatory strength, velocity gauge (1.0e-40 cgs): -0.000000

 Norm of one-particle transition density matrix:
   A->B: 0.697383;   B->A: 0.693411
   ||gamma^AB||*||gamma^BA||: 0.483573

 ------------------------------------------------------------------------------
 State A: eomee_ccsd/rhfref/singlets: 1/B1
 State B: eomee_ccsd/rhfref/singlets: 8/B1
 Energy GAP = 0.113530 a.u. = 3.089314 eV
 Transition dipole moment (a.u.):
   A->B: 0.008651 (X 0.000000, Y 0.000000, Z -0.008651)
   B->A: 0.009854 (X 0.000000, Y 0.000000, Z -0.009854)
 Oscillator strength (a.u.): 0.000006
 Transition angular momentum against gauge origin (a.u.):
   A->B:  (X 0.000000i, Y 0.000000i, Z 0.000000i)
   B->A:  (X 0.000000i, Y 0.000000i, Z 0.000000i)

 Electronic circular dichroism (ECD):
 Transition dipole moment/angular momentum:
   A->B->A:  (X 0.000000, Y 0.000000, Z 0.000000)
   Rotatory strength, length gauge (a.u.): 0.000000
   Rotatory strength, length gauge (1.0e-40 cgs): 0.000000
 Transition linear momentum/angular momentum:
   A->B->A:  (X 0.000000, Y 0.000000, Z 0.000000)
   Rotatory strength, velocity gauge (a.u.): 0.000000
   Rotatory strength, velocity gauge (1.0e-40 cgs): 0.000000

 Norm of one-particle transition density matrix:
   A->B: 0.704752;   B->A: 0.703788
   ||gamma^AB||*||gamma^BA||: 0.495996

 ------------------------------------------------------------------------------
 State A: eomee_ccsd/rhfref/singlets: 1/B1
 State B: eomee_ccsd/rhfref/singlets: 9/B1
 Energy GAP = 0.153063 a.u. = 4.165049 eV
 Transition dipole moment (a.u.):
   A->B: 0.004004 (X 0.000000, Y 0.000000, Z 0.004004)
   B->A: 0.003498 (X 0.000000, Y 0.000000, Z 0.003498)
 Oscillator strength (a.u.): 0.000001
 Transition angular momentum against gauge origin (a.u.):
   A->B:  (X 0.000000i, Y 0.000000i, Z 0.000000i)
   B->A:  (X 0.000000i, Y 0.000000i, Z 0.000000i)

 Electronic circular dichroism (ECD):
 Transition dipole moment/angular momentum:
   A->B->A:  (X 0.000000, Y 0.000000, Z 0.000000)
   Rotatory strength, length gauge (a.u.): -0.000000
   Rotatory strength, length gauge (1.0e-40 cgs): -0.000000
 Transition linear momentum/angular momentum:
   A->B->A:  (X 0.000000, Y 0.000000, Z 0.000000)
   Rotatory strength, velocity gauge (a.u.): 0.000000
   Rotatory strength, velocity gauge (1.0e-40 cgs): 0.000000

 Norm of one-particle transition density matrix:
   A->B: 0.704953;   B->A: 0.704173
   ||gamma^AB||*||gamma^BA||: 0.496409

 ------------------------------------------------------------------------------
 State A: eomee_ccsd/rhfref/singlets: 1/B1
 State B: eomee_ccsd/rhfref/singlets: 10/B1
 Energy GAP = 0.162520 a.u. = 4.422390 eV
 Transition dipole moment (a.u.):
   A->B: 0.002176 (X 0.000000, Y 0.000000, Z 0.002176)
   B->A: 0.002222 (X 0.000000, Y 0.000000, Z 0.002222)
 Oscillator strength (a.u.): 0.000001
 Transition angular momentum against gauge origin (a.u.):
   A->B:  (X 0.000000i, Y 0.000000i, Z 0.000000i)
   B->A:  (X 0.000000i, Y 0.000000i, Z 0.000000i)

 Electronic circular dichroism (ECD):
 Transition dipole moment/angular momentum:
   A->B->A:  (X 0.000000, Y 0.000000, Z 0.000000)
   Rotatory strength, length gauge (a.u.): -0.000000
   Rotatory strength, length gauge (1.0e-40 cgs): -0.000000
 Transition linear momentum/angular momentum:
   A->B->A:  (X 0.000000, Y 0.000000, Z 0.000000)
   Rotatory strength, velocity gauge (a.u.): -0.000000
   Rotatory strength, velocity gauge (1.0e-40 cgs): -0.000000

 Norm of one-particle transition density matrix:
   A->B: 0.700412;   B->A: 0.698131
   ||gamma^AB||*||gamma^BA||: 0.488979

 ------------------------------------------------------------------------------
 State A: eomee_ccsd/rhfref/singlets: 2/B1
 State B: eomee_ccsd/rhfref/singlets: 3/B1
 Energy GAP = 0.013884 a.u. = 0.377791 eV
 Transition dipole moment (a.u.):
   A->B: 3.737646 (X 0.000000, Y 0.000000, Z 3.737646)
   B->A: 3.735210 (X 0.000000, Y 0.000000, Z 3.735210)
 Oscillator strength (a.u.): 0.129218
 Transition angular momentum against gauge origin (a.u.):
   A->B:  (X 0.000000i, Y 0.000000i, Z 0.000000i)
   B->A:  (X 0.000000i, Y 0.000000i, Z 0.000000i)

 Electronic circular dichroism (ECD):
 Transition dipole moment/angular momentum:
   A->B->A:  (X 0.000000, Y 0.000000, Z 0.000000)
   Rotatory strength, length gauge (a.u.): 0.000000
   Rotatory strength, length gauge (1.0e-40 cgs): 0.000007
 Transition linear momentum/angular momentum:
   A->B->A:  (X 0.000000, Y 0.000000, Z 0.000000)
   Rotatory strength, velocity gauge (a.u.): 0.000000
   Rotatory strength, velocity gauge (1.0e-40 cgs): 0.000005

 Norm of one-particle transition density matrix:
   A->B: 0.706386;   B->A: 0.706246
   ||gamma^AB||*||gamma^BA||: 0.498882

 ------------------------------------------------------------------------------
 State A: eomee_ccsd/rhfref/singlets: 2/B1
 State B: eomee_ccsd/rhfref/singlets: 4/B1
 Energy GAP = 0.025573 a.u. = 0.695867 eV
 Transition dipole moment (a.u.):
   A->B: 0.064198 (X 0.000000, Y 0.000000, Z -0.064198)
   B->A: 0.060990 (X 0.000000, Y 0.000000, Z -0.060990)
 Oscillator strength (a.u.): 0.000067
 Transition angular momentum against gauge origin (a.u.):
   A->B:  (X 0.000000i, Y 0.000000i, Z 0.000000i)
   B->A:  (X 0.000000i, Y 0.000000i, Z 0.000000i)

 Electronic circular dichroism (ECD):
 Transition dipole moment/angular momentum:
   A->B->A:  (X 0.000000, Y 0.000000, Z 0.000000)
   Rotatory strength, length gauge (a.u.): 0.000000
   Rotatory strength, length gauge (1.0e-40 cgs): 0.000000
 Transition linear momentum/angular momentum:
   A->B->A:  (X 0.000000, Y 0.000000, Z 0.000000)
   Rotatory strength, velocity gauge (a.u.): 0.000000
   Rotatory strength, velocity gauge (1.0e-40 cgs): 0.000000

 Norm of one-particle transition density matrix:
   A->B: 0.706517;   B->A: 0.706447
   ||gamma^AB||*||gamma^BA||: 0.499117

 ------------------------------------------------------------------------------
 State A: eomee_ccsd/rhfref/singlets: 2/B1
 State B: eomee_ccsd/rhfref/singlets: 5/B1
 Energy GAP = 0.049261 a.u. = 1.340460 eV
 Transition dipole moment (a.u.):
   A->B: 0.627405 (X 0.000000, Y 0.000000, Z -0.627405)
   B->A: 0.627261 (X 0.000000, Y 0.000000, Z -0.627261)
 Oscillator strength (a.u.): 0.012924
 Transition angular momentum against gauge origin (a.u.):
   A->B:  (X 0.000000i, Y 0.000000i, Z 0.000000i)
   B->A:  (X 0.000000i, Y 0.000000i, Z 0.000000i)

 Electronic circular dichroism (ECD):
 Transition dipole moment/angular momentum:
   A->B->A:  (X 0.000000, Y 0.000000, Z 0.000000)
   Rotatory strength, length gauge (a.u.): 0.000000
   Rotatory strength, length gauge (1.0e-40 cgs): 0.000001
 Transition linear momentum/angular momentum:
   A->B->A:  (X 0.000000, Y 0.000000, Z 0.000000)
   Rotatory strength, velocity gauge (a.u.): 0.000000
   Rotatory strength, velocity gauge (1.0e-40 cgs): 0.000001

 Norm of one-particle transition density matrix:
   A->B: 0.705753;   B->A: 0.705255
   ||gamma^AB||*||gamma^BA||: 0.497736

 ------------------------------------------------------------------------------
 State A: eomee_ccsd/rhfref/singlets: 2/B1
 State B: eomee_ccsd/rhfref/singlets: 6/B1
 Energy GAP = 0.060222 a.u. = 1.638731 eV
 Transition dipole moment (a.u.):
   A->B: 0.010927 (X 0.000000, Y 0.000000, Z 0.010927)
   B->A: 0.009430 (X 0.000000, Y 0.000000, Z 0.009430)
 Oscillator strength (a.u.): 0.000004
 Transition angular momentum against gauge origin (a.u.):
   A->B:  (X 0.000000i, Y 0.000000i, Z 0.000000i)
   B->A:  (X 0.000000i, Y 0.000000i, Z 0.000000i)

 Electronic circular dichroism (ECD):
 Transition dipole moment/angular momentum:
   A->B->A:  (X 0.000000, Y 0.000000, Z 0.000000)
   Rotatory strength, length gauge (a.u.): -0.000000
   Rotatory strength, length gauge (1.0e-40 cgs): -0.000000
 Transition linear momentum/angular momentum:
   A->B->A:  (X 0.000000, Y 0.000000, Z 0.000000)
   Rotatory strength, velocity gauge (a.u.): -0.000000
   Rotatory strength, velocity gauge (1.0e-40 cgs): -0.000000

 Norm of one-particle transition density matrix:
   A->B: 0.702067;   B->A: 0.700029
   ||gamma^AB||*||gamma^BA||: 0.491468

 ------------------------------------------------------------------------------
 State A: eomee_ccsd/rhfref/singlets: 2/B1
 State B: eomee_ccsd/rhfref/singlets: 7/B1
 Energy GAP = 0.092142 a.u. = 2.507305 eV
 Transition dipole moment (a.u.):
   A->B: 0.000019 (X 0.000000, Y 0.000000, Z 0.000019)
   B->A: 0.000633 (X 0.000000, Y 0.000000, Z 0.000633)
 Oscillator strength (a.u.): 0.000000
 Transition angular momentum against gauge origin (a.u.):
   A->B:  (X 0.000000i, Y 0.000000i, Z 0.000000i)
   B->A:  (X 0.000000i, Y 0.000000i, Z 0.000000i)

 Electronic circular dichroism (ECD):
 Transition dipole moment/angular momentum:
   A->B->A:  (X 0.000000, Y 0.000000, Z 0.000000)
   Rotatory strength, length gauge (a.u.): 0.000000
   Rotatory strength, length gauge (1.0e-40 cgs): 0.000000
 Transition linear momentum/angular momentum:
   A->B->A:  (X 0.000000, Y 0.000000, Z 0.000000)
   Rotatory strength, velocity gauge (a.u.): -0.000000
   Rotatory strength, velocity gauge (1.0e-40 cgs): -0.000000

 Norm of one-particle transition density matrix:
   A->B: 0.697454;   B->A: 0.693486
   ||gamma^AB||*||gamma^BA||: 0.483675

 ------------------------------------------------------------------------------
 State A: eomee_ccsd/rhfref/singlets: 2/B1
 State B: eomee_ccsd/rhfref/singlets: 8/B1
 Energy GAP = 0.107146 a.u. = 2.915600 eV
 Transition dipole moment (a.u.):
   A->B: 0.181853 (X 0.000000, Y 0.000000, Z -0.181853)
   B->A: 0.180962 (X 0.000000, Y 0.000000, Z -0.180962)
 Oscillator strength (a.u.): 0.002351
 Transition angular momentum against gauge origin (a.u.):
   A->B:  (X 0.000000i, Y 0.000000i, Z 0.000000i)
   B->A:  (X 0.000000i, Y 0.000000i, Z 0.000000i)

 Electronic circular dichroism (ECD):
 Transition dipole moment/angular momentum:
   A->B->A:  (X 0.000000, Y 0.000000, Z 0.000000)
   Rotatory strength, length gauge (a.u.): 0.000000
   Rotatory strength, length gauge (1.0e-40 cgs): 0.000000
 Transition linear momentum/angular momentum:
   A->B->A:  (X 0.000000, Y 0.000000, Z 0.000000)
   Rotatory strength, velocity gauge (a.u.): 0.000000
   Rotatory strength, velocity gauge (1.0e-40 cgs): 0.000000

 Norm of one-particle transition density matrix:
   A->B: 0.704848;   B->A: 0.703879
   ||gamma^AB||*||gamma^BA||: 0.496128

 ------------------------------------------------------------------------------
 State A: eomee_ccsd/rhfref/singlets: 2/B1
 State B: eomee_ccsd/rhfref/singlets: 9/B1
 Energy GAP = 0.146679 a.u. = 3.991334 eV
 Transition dipole moment (a.u.):
   A->B: 0.342273 (X 0.000000, Y 0.000000, Z -0.342273)
   B->A: 0.341220 (X 0.000000, Y 0.000000, Z -0.341220)
 Oscillator strength (a.u.): 0.011420
 Transition angular momentum against gauge origin (a.u.):
   A->B:  (X 0.000000i, Y 0.000000i, Z 0.000000i)
   B->A:  (X 0.000000i, Y 0.000000i, Z 0.000000i)

 Electronic circular dichroism (ECD):
 Transition dipole moment/angular momentum:
   A->B->A:  (X 0.000000, Y 0.000000, Z 0.000000)
   Rotatory strength, length gauge (a.u.): -0.000000
   Rotatory strength, length gauge (1.0e-40 cgs): -0.000004
 Transition linear momentum/angular momentum:
   A->B->A:  (X 0.000000, Y 0.000000, Z 0.000000)
   Rotatory strength, velocity gauge (a.u.): 0.000000
   Rotatory strength, velocity gauge (1.0e-40 cgs): 0.000000

 Norm of one-particle transition density matrix:
   A->B: 0.705048;   B->A: 0.704264
   ||gamma^AB||*||gamma^BA||: 0.496540

 ------------------------------------------------------------------------------
 State A: eomee_ccsd/rhfref/singlets: 2/B1
 State B: eomee_ccsd/rhfref/singlets: 10/B1
 Energy GAP = 0.156136 a.u. = 4.248676 eV
 Transition dipole moment (a.u.):
   A->B: 0.020709 (X 0.000000, Y 0.000001, Z -0.020709)
   B->A: 0.020735 (X 0.000000, Y 0.000001, Z -0.020735)
 Oscillator strength (a.u.): 0.000045
 Transition angular momentum against gauge origin (a.u.):
   A->B:  (X 0.000000i, Y 0.000000i, Z 0.000000i)
   B->A:  (X 0.000000i, Y 0.000000i, Z 0.000000i)

 Electronic circular dichroism (ECD):
 Transition dipole moment/angular momentum:
   A->B->A:  (X 0.000000, Y 0.000000, Z 0.000000)
   Rotatory strength, length gauge (a.u.): 0.000000
   Rotatory strength, length gauge (1.0e-40 cgs): 0.000000
 Transition linear momentum/angular momentum:
   A->B->A:  (X 0.000000, Y 0.000000, Z 0.000000)
   Rotatory strength, velocity gauge (a.u.): -0.000000
   Rotatory strength, velocity gauge (1.0e-40 cgs): -0.000000

 Norm of one-particle transition density matrix:
   A->B: 0.700488;   B->A: 0.698201
   ||gamma^AB||*||gamma^BA||: 0.489081

 ------------------------------------------------------------------------------
 State A: eomee_ccsd/rhfref/singlets: 3/B1
 State B: eomee_ccsd/rhfref/singlets: 4/B1
 Energy GAP = 0.011689 a.u. = 0.318076 eV
 Transition dipole moment (a.u.):
   A->B: 6.795631 (X 0.000000, Y 0.000000, Z -6.795631)
   B->A: 6.797049 (X 0.000000, Y 0.000000, Z -6.797049)
 Oscillator strength (a.u.): 0.359947
 Transition angular momentum against gauge origin (a.u.):
   A->B:  (X 0.000000i, Y 0.000000i, Z 0.000000i)
   B->A:  (X 0.000000i, Y 0.000000i, Z 0.000000i)

 Electronic circular dichroism (ECD):
 Transition dipole moment/angular momentum:
   A->B->A:  (X 0.000000, Y 0.000000, Z 0.000000)
   Rotatory strength, length gauge (a.u.): 0.000000
   Rotatory strength, length gauge (1.0e-40 cgs): 0.000023
 Transition linear momentum/angular momentum:
   A->B->A:  (X 0.000000, Y 0.000000, Z 0.000000)
   Rotatory strength, velocity gauge (a.u.): 0.000000
   Rotatory strength, velocity gauge (1.0e-40 cgs): 0.000025

 Norm of one-particle transition density matrix:
   A->B: 0.705908;   B->A: 0.705985
   ||gamma^AB||*||gamma^BA||: 0.498360

 ------------------------------------------------------------------------------
 State A: eomee_ccsd/rhfref/singlets: 3/B1
 State B: eomee_ccsd/rhfref/singlets: 5/B1
 Energy GAP = 0.035377 a.u. = 0.962669 eV
 Transition dipole moment (a.u.):
   A->B: 0.081066 (X 0.000000, Y 0.000000, Z 0.081066)
   B->A: 0.088997 (X 0.000000, Y 0.000000, Z 0.088997)
 Oscillator strength (a.u.): 0.000170
 Transition angular momentum against gauge origin (a.u.):
   A->B:  (X 0.000000i, Y 0.000000i, Z 0.000000i)
   B->A:  (X 0.000000i, Y 0.000000i, Z 0.000000i)

 Electronic circular dichroism (ECD):
 Transition dipole moment/angular momentum:
   A->B->A:  (X 0.000000, Y 0.000000, Z 0.000000)
   Rotatory strength, length gauge (a.u.): -0.000000
   Rotatory strength, length gauge (1.0e-40 cgs): -0.000000
 Transition linear momentum/angular momentum:
   A->B->A:  (X 0.000000, Y 0.000000, Z 0.000000)
   Rotatory strength, velocity gauge (a.u.): -0.000000
   Rotatory strength, velocity gauge (1.0e-40 cgs): -0.000000

 Norm of one-particle transition density matrix:
   A->B: 0.705118;   B->A: 0.704752
   ||gamma^AB||*||gamma^BA||: 0.496933

 ------------------------------------------------------------------------------
 State A: eomee_ccsd/rhfref/singlets: 3/B1
 State B: eomee_ccsd/rhfref/singlets: 6/B1
 Energy GAP = 0.046339 a.u. = 1.260940 eV
 Transition dipole moment (a.u.):
   A->B: 0.864864 (X 0.000000, Y 0.000000, Z 0.864864)
   B->A: 0.868199 (X 0.000000, Y 0.000000, Z 0.868199)
 Oscillator strength (a.u.): 0.023196
 Transition angular momentum against gauge origin (a.u.):
   A->B:  (X 0.000000i, Y 0.000000i, Z 0.000000i)
   B->A:  (X 0.000000i, Y 0.000000i, Z 0.000000i)

 Electronic circular dichroism (ECD):
 Transition dipole moment/angular momentum:
   A->B->A:  (X 0.000000, Y 0.000000, Z 0.000000)
   Rotatory strength, length gauge (a.u.): 0.000000
   Rotatory strength, length gauge (1.0e-40 cgs): 0.000003
 Transition linear momentum/angular momentum:
   A->B->A:  (X 0.000000, Y 0.000000, Z 0.000000)
   Rotatory strength, velocity gauge (a.u.): 0.000000
   Rotatory strength, velocity gauge (1.0e-40 cgs): 0.000004

 Norm of one-particle transition density matrix:
   A->B: 0.701579;   B->A: 0.699657
   ||gamma^AB||*||gamma^BA||: 0.490865

 ------------------------------------------------------------------------------
 State A: eomee_ccsd/rhfref/singlets: 3/B1
 State B: eomee_ccsd/rhfref/singlets: 7/B1
 Energy GAP = 0.078258 a.u. = 2.129514 eV
 Transition dipole moment (a.u.):
   A->B: 0.260617 (X 0.000000, Y 0.000000, Z -0.260617)
   B->A: 0.263657 (X 0.000000, Y 0.000000, Z -0.263657)
 Oscillator strength (a.u.): 0.003585
 Transition angular momentum against gauge origin (a.u.):
   A->B:  (X 0.000000i, Y 0.000000i, Z 0.000000i)
   B->A:  (X 0.000000i, Y 0.000000i, Z 0.000000i)

 Electronic circular dichroism (ECD):
 Transition dipole moment/angular momentum:
   A->B->A:  (X 0.000000, Y 0.000000, Z 0.000000)
   Rotatory strength, length gauge (a.u.): -0.000000
   Rotatory strength, length gauge (1.0e-40 cgs): -0.000002
 Transition linear momentum/angular momentum:
   A->B->A:  (X 0.000000, Y 0.000000, Z 0.000000)
   Rotatory strength, velocity gauge (a.u.): -0.000000
   Rotatory strength, velocity gauge (1.0e-40 cgs): -0.000001

 Norm of one-particle transition density matrix:
   A->B: 0.697004;   B->A: 0.693136
   ||gamma^AB||*||gamma^BA||: 0.483118

 ------------------------------------------------------------------------------
 State A: eomee_ccsd/rhfref/singlets: 3/B1
 State B: eomee_ccsd/rhfref/singlets: 8/B1
 Energy GAP = 0.093263 a.u. = 2.537809 eV
 Transition dipole moment (a.u.):
   A->B: 0.023487 (X 0.000000, Y 0.000000, Z 0.023487)
   B->A: 0.024863 (X 0.000000, Y 0.000000, Z 0.024863)
 Oscillator strength (a.u.): 0.000036
 Transition angular momentum against gauge origin (a.u.):
   A->B:  (X 0.000000i, Y 0.000000i, Z 0.000000i)
   B->A:  (X 0.000000i, Y 0.000000i, Z 0.000000i)

 Electronic circular dichroism (ECD):
 Transition dipole moment/angular momentum:
   A->B->A:  (X 0.000000, Y 0.000000, Z 0.000000)
   Rotatory strength, length gauge (a.u.): 0.000000
   Rotatory strength, length gauge (1.0e-40 cgs): 0.000000
 Transition linear momentum/angular momentum:
   A->B->A:  (X 0.000000, Y 0.000000, Z 0.000000)
   Rotatory strength, velocity gauge (a.u.): 0.000000
   Rotatory strength, velocity gauge (1.0e-40 cgs): 0.000000

 Norm of one-particle transition density matrix:
   A->B: 0.704241;   B->A: 0.703404
   ||gamma^AB||*||gamma^BA||: 0.495366

 ------------------------------------------------------------------------------
 State A: eomee_ccsd/rhfref/singlets: 3/B1
 State B: eomee_ccsd/rhfref/singlets: 9/B1
 Energy GAP = 0.132795 a.u. = 3.613543 eV
 Transition dipole moment (a.u.):
   A->B: 0.007385 (X 0.000000, Y 0.000001, Z 0.007385)
   B->A: 0.009552 (X 0.000000, Y 0.000001, Z 0.009552)
 Oscillator strength (a.u.): 0.000006
 Transition angular momentum against gauge origin (a.u.):
   A->B:  (X 0.000000i, Y 0.000000i, Z 0.000000i)
   B->A:  (X 0.000000i, Y 0.000000i, Z 0.000000i)

 Electronic circular dichroism (ECD):
 Transition dipole moment/angular momentum:
   A->B->A:  (X 0.000000, Y 0.000000, Z 0.000000)
   Rotatory strength, length gauge (a.u.): 0.000000
   Rotatory strength, length gauge (1.0e-40 cgs): 0.000000
 Transition linear momentum/angular momentum:
   A->B->A:  (X 0.000000, Y 0.000000, Z 0.000000)
   Rotatory strength, velocity gauge (a.u.): 0.000000
   Rotatory strength, velocity gauge (1.0e-40 cgs): 0.000000

 Norm of one-particle transition density matrix:
   A->B: 0.704418;   B->A: 0.703768
   ||gamma^AB||*||gamma^BA||: 0.495747

 ------------------------------------------------------------------------------
 State A: eomee_ccsd/rhfref/singlets: 3/B1
 State B: eomee_ccsd/rhfref/singlets: 10/B1
 Energy GAP = 0.142252 a.u. = 3.870885 eV
 Transition dipole moment (a.u.):
   A->B: 0.118758 (X 0.000000, Y 0.000000, Z 0.118758)
   B->A: 0.118833 (X 0.000000, Y 0.000000, Z 0.118833)
 Oscillator strength (a.u.): 0.001338
 Transition angular momentum against gauge origin (a.u.):
   A->B:  (X 0.000000i, Y 0.000000i, Z 0.000000i)
   B->A:  (X 0.000000i, Y 0.000000i, Z 0.000000i)

 Electronic circular dichroism (ECD):
 Transition dipole moment/angular momentum:
   A->B->A:  (X 0.000000, Y 0.000000, Z 0.000000)
[...]
   Rotatory strength, length gauge (1.0e-40 cgs): -0.000006
 Transition linear momentum/angular momentum:
   A->B->A:  (X 0.000000, Y 0.000000, Z 0.000000)
   Rotatory strength, velocity gauge (a.u.): -0.000001
   Rotatory strength, velocity gauge (1.0e-40 cgs): -0.000393

 Norm of one-particle transition density matrix:
   A->B: 0.698184;   B->A: 0.696666
   ||gamma^AB||*||gamma^BA||: 0.486401


 All requested transition properties have been computed

 Transition Properties:   CPU 492.27 s  wall 73.91 s

Starting Projected CAP calculation.
Generating CAP matrix for 10 roots.
Performing Projected CAP-EOM calculation for B1 states.
Number of states: 10
Zeroth order Hamiltonian:
-7.89099815712313841e+01 0.00000000000000000e+00 0.00000000000000000e+00 0.00000000000000000e+00 0.00000000000000000e+00 0.00000000000000000e+00 0.00000000000000000e+00 0.00000000000000000e+00 0.00000000000000000e+00 0.00000000000000000e+00
0.00000000000000000e+00 -7.89035976799435019e+01 0.00000000000000000e+00 0.00000000000000000e+00 0.00000000000000000e+00 0.00000000000000000e+00 0.00000000000000000e+00 0.00000000000000000e+00 0.00000000000000000e+00 0.00000000000000000e+00
0.00000000000000000e+00 0.00000000000000000e+00 -7.88897141259876804e+01 0.00000000000000000e+00 0.00000000000000000e+00 0.00000000000000000e+00 0.00000000000000000e+00 0.00000000000000000e+00 0.00000000000000000e+00 0.00000000000000000e+00
0.00000000000000000e+00 0.00000000000000000e+00 0.00000000000000000e+00 -7.88780250598743322e+01 0.00000000000000000e+00 0.00000000000000000e+00 0.00000000000000000e+00 0.00000000000000000e+00 0.00000000000000000e+00 0.00000000000000000e+00
0.00000000000000000e+00 0.00000000000000000e+00 0.00000000000000000e+00 0.00000000000000000e+00 -7.88543366969317958e+01 0.00000000000000000e+00 0.00000000000000000e+00 0.00000000000000000e+00 0.00000000000000000e+00 0.00000000000000000e+00
0.00000000000000000e+00 0.00000000000000000e+00 0.00000000000000000e+00 0.00000000000000000e+00 0.00000000000000000e+00 -7.88433754679450658e+01 0.00000000000000000e+00 0.00000000000000000e+00 0.00000000000000000e+00 0.00000000000000000e+00
0.00000000000000000e+00 0.00000000000000000e+00 0.00000000000000000e+00 0.00000000000000000e+00 0.00000000000000000e+00 0.00000000000000000e+00 -7.88114559529556118e+01 0.00000000000000000e+00 0.00000000000000000e+00 0.00000000000000000e+00
0.00000000000000000e+00 0.00000000000000000e+00 0.00000000000000000e+00 0.00000000000000000e+00 0.00000000000000000e+00 0.00000000000000000e+00 0.00000000000000000e+00 -7.87964514267938370e+01 0.00000000000000000e+00 0.00000000000000000e+00
0.00000000000000000e+00 0.00000000000000000e+00 0.00000000000000000e+00 0.00000000000000000e+00 0.00000000000000000e+00 0.00000000000000000e+00 0.00000000000000000e+00 0.00000000000000000e+00 -7.87569189211592828e+01 0.00000000000000000e+00
0.00000000000000000e+00 0.00000000000000000e+00 0.00000000000000000e+00 0.00000000000000000e+00 0.00000000000000000e+00 0.00000000000000000e+00 0.00000000000000000e+00 0.00000000000000000e+00 0.00000000000000000e+00 -7.87474618003022186e+01
CAP matrix:
-5.63976415223498790e+01 1.59519671766392790e+00 1.29384353229630982e+01 -3.52322214642287124e+00 -4.20593249072926056e+01 1.02870308868507943e+00 -2.53507956885314734e+00 -1.89101589642815711e+01 -4.80364383178276988e+00 -2.91014560962114510e+00
1.59674971566893253e+00 -5.09652941250324716e+01 3.44464133509631232e+00 -2.51690127939066706e+01 -9.07649153929974251e-01 2.99264761791274978e+01 2.07775495387860865e+01 1.55841828306734342e+00 -6.60654908294637133e-01 9.49439450984906586e+00
1.29455559470738422e+01 3.43344074369512864e+00 -2.21485890536488412e+01 1.93746953644334585e+00 7.13622616366380491e+00 -7.34213409556538688e-01 -7.90213731014177245e-01 -1.55095261274286500e+01 8.81944721443092550e-01 -6.17344423713945822e-01
-3.49074743237383345e+00 -2.51695802327265099e+01 1.93523630664241075e+00 -3.91658696633284222e+01 -2.07752895610408661e+00 1.76429141608644500e+01 1.07707181243072991e+00 9.81600161946424160e-02 2.81522234390567672e-01 -1.09443047405575520e+01
-4.20267240417412751e+01 -7.66754720357311181e-01 7.11875221020680815e+00 -2.00437335378714199e+00 -4.67905247411413967e+01 3.01626526608647261e+00 -3.38229315760269988e-01 -2.32090564309359593e+01 -7.80959396543961404e+00 -7.25038835456646380e-01
8.02487277026451729e-01 3.00114600035739798e+01 -7.44473818676927634e-01 1.76835214759580026e+01 2.89458619789171490e+00 -3.25478518309185887e+01 -2.46491518420309959e+01 1.79825271119704944e+00 1.35873941047173208e+00 -6.68176878994708723e+00
-2.38148889578408340e+00 2.09428174698597260e+01 -6.89124592722250573e-01 1.08136421668401583e+00 -2.86767628112476920e-02 -2.47851493029574250e+01 -2.79154632580942916e+01 4.71970948504863763e-01 1.06753963119594020e+00 -1.86110759110172950e+01
-1.88785673901352524e+01 1.44831066351938298e+00 -1.54966356845029765e+01 1.29943972052719792e-01 -2.32145844823225787e+01 2.10724379745534796e+00 3.13448786586406847e-01 -4.27972526709072554e+01 -3.00458319628583936e+00 1.55812893218590132e+00
-4.80638003131973690e+00 -6.41052435761834571e-01 8.77623760904792105e-01 2.54231419440059558e-01 -7.81476634857078523e+00 1.38510607853248735e+00 9.93061930684843275e-01 -3.00040649074421673e+00 -9.62916592134955707e+00 2.26047636441405242e-01
-2.91483545747607486e+00 9.51736920851447721e+00 -5.89062224772352039e-01 -1.09672542146907031e+01 -7.09642899780619896e-01 -6.69062532400787724e+00 -1.84812821763497368e+01 1.45296676751623699e+00 2.67218903639304839e-01 -2.89268644308843434e+01
Trajectory will be saved to B1_traj.out
Done with B1 states.
 Trajectory ran in:   CPU 0.00 s  wall 0.02 s
Total Projected CAP Hamiltonian:
Number of states: 10
Zeroth order Hamiltonian:
-7.89099815712313841e+01 0.00000000000000000e+00 0.00000000000000000e+00 0.00000000000000000e+00 0.00000000000000000e+00 0.00000000000000000e+00 0.00000000000000000e+00 0.00000000000000000e+00 0.00000000000000000e+00 0.00000000000000000e+00
0.00000000000000000e+00 -7.89035976799435019e+01 0.00000000000000000e+00 0.00000000000000000e+00 0.00000000000000000e+00 0.00000000000000000e+00 0.00000000000000000e+00 0.00000000000000000e+00 0.00000000000000000e+00 0.00000000000000000e+00
0.00000000000000000e+00 0.00000000000000000e+00 -7.88897141259876804e+01 0.00000000000000000e+00 0.00000000000000000e+00 0.00000000000000000e+00 0.00000000000000000e+00 0.00000000000000000e+00 0.00000000000000000e+00 0.00000000000000000e+00
0.00000000000000000e+00 0.00000000000000000e+00 0.00000000000000000e+00 -7.88780250598743322e+01 0.00000000000000000e+00 0.00000000000000000e+00 0.00000000000000000e+00 0.00000000000000000e+00 0.00000000000000000e+00 0.00000000000000000e+00
0.00000000000000000e+00 0.00000000000000000e+00 0.00000000000000000e+00 0.00000000000000000e+00 -7.88543366969317958e+01 0.00000000000000000e+00 0.00000000000000000e+00 0.00000000000000000e+00 0.00000000000000000e+00 0.00000000000000000e+00
0.00000000000000000e+00 0.00000000000000000e+00 0.00000000000000000e+00 0.00000000000000000e+00 0.00000000000000000e+00 -7.88433754679450658e+01 0.00000000000000000e+00 0.00000000000000000e+00 0.00000000000000000e+00 0.00000000000000000e+00
0.00000000000000000e+00 0.00000000000000000e+00 0.00000000000000000e+00 0.00000000000000000e+00 0.00000000000000000e+00 0.00000000000000000e+00 -7.88114559529556118e+01 0.00000000000000000e+00 0.00000000000000000e+00 0.00000000000000000e+00
0.00000000000000000e+00 0.00000000000000000e+00 0.00000000000000000e+00 0.00000000000000000e+00 0.00000000000000000e+00 0.00000000000000000e+00 0.00000000000000000e+00 -7.87964514267938370e+01 0.00000000000000000e+00 0.00000000000000000e+00
0.00000000000000000e+00 0.00000000000000000e+00 0.00000000000000000e+00 0.00000000000000000e+00 0.00000000000000000e+00 0.00000000000000000e+00 0.00000000000000000e+00 0.00000000000000000e+00 -7.87569189211592828e+01 0.00000000000000000e+00
0.00000000000000000e+00 0.00000000000000000e+00 0.00000000000000000e+00 0.00000000000000000e+00 0.00000000000000000e+00 0.00000000000000000e+00 0.00000000000000000e+00 0.00000000000000000e+00 0.00000000000000000e+00 -7.87474618003022186e+01
CAP matrix:
-5.63976415223498790e+01 1.59519671766392790e+00 1.29384353229630982e+01 -3.52322214642287124e+00 -4.20593249072926056e+01 1.02870308868507943e+00 -2.53507956885314734e+00 -1.89101589642815711e+01 -4.80364383178276988e+00 -2.91014560962114510e+00
1.59674971566893253e+00 -5.09652941250324716e+01 3.44464133509631232e+00 -2.51690127939066706e+01 -9.07649153929974251e-01 2.99264761791274978e+01 2.07775495387860865e+01 1.55841828306734342e+00 -6.60654908294637133e-01 9.49439450984906586e+00
1.29455559470738422e+01 3.43344074369512864e+00 -2.21485890536488412e+01 1.93746953644334585e+00 7.13622616366380491e+00 -7.34213409556538688e-01 -7.90213731014177245e-01 -1.55095261274286500e+01 8.81944721443092550e-01 -6.17344423713945822e-01
-3.49074743237383345e+00 -2.51695802327265099e+01 1.93523630664241075e+00 -3.91658696633284222e+01 -2.07752895610408661e+00 1.76429141608644500e+01 1.07707181243072991e+00 9.81600161946424160e-02 2.81522234390567672e-01 -1.09443047405575520e+01
-4.20267240417412751e+01 -7.66754720357311181e-01 7.11875221020680815e+00 -2.00437335378714199e+00 -4.67905247411413967e+01 3.01626526608647261e+00 -3.38229315760269988e-01 -2.32090564309359593e+01 -7.80959396543961404e+00 -7.25038835456646380e-01
8.02487277026451729e-01 3.00114600035739798e+01 -7.44473818676927634e-01 1.76835214759580026e+01 2.89458619789171490e+00 -3.25478518309185887e+01 -2.46491518420309959e+01 1.79825271119704944e+00 1.35873941047173208e+00 -6.68176878994708723e+00
-2.38148889578408340e+00 2.09428174698597260e+01 -6.89124592722250573e-01 1.08136421668401583e+00 -2.86767628112476920e-02 -2.47851493029574250e+01 -2.79154632580942916e+01 4.71970948504863763e-01 1.06753963119594020e+00 -1.86110759110172950e+01
-1.88785673901352524e+01 1.44831066351938298e+00 -1.54966356845029765e+01 1.29943972052719792e-01 -2.32145844823225787e+01 2.10724379745534796e+00 3.13448786586406847e-01 -4.27972526709072554e+01 -3.00458319628583936e+00 1.55812893218590132e+00
-4.80638003131973690e+00 -6.41052435761834571e-01 8.77623760904792105e-01 2.54231419440059558e-01 -7.81476634857078523e+00 1.38510607853248735e+00 9.93061930684843275e-01 -3.00040649074421673e+00 -9.62916592134955707e+00 2.26047636441405242e-01
-2.91483545747607486e+00 9.51736920851447721e+00 -5.89062224772352039e-01 -1.09672542146907031e+01 -7.09642899780619896e-01 -6.69062532400787724e+00 -1.84812821763497368e+01 1.45296676751623699e+00 2.67218903639304839e-01 -2.89268644308843434e+01
 Total ccman2 time:   CPU 4511.56 s  wall 604.93 s

 
 --------------------------------------------------------------
             Orbital Energies (a.u.) and Symmetries
 --------------------------------------------------------------
 
 Alpha MOs, Restricted
 -- Occupied --                  
-11.078 -11.076  -0.887  -0.632  -0.511  -0.419  -0.368  -0.225
  1 A1    1 B1    2 A1    2 B1    1 B2    3 A1    1 A2    4 A1                 
 -0.035
  5 A1                                                                         
 -- Virtual --                   
  0.056   0.062   0.062   0.063   0.067   0.076   0.092   0.102
  3 B1    2 B2    2 A2    6 A1    4 B1    7 A1    5 B1    3 B2                 
  0.104   0.105   0.113   0.116   0.141   0.145   0.155   0.161
  3 A2    8 A1    6 B1    9 A1    7 B1   10 A1    4 B2    4 A2                 
  0.167   0.172   0.205   0.210   0.232   0.242   0.245   0.246
 11 A1    8 B1   12 A1    9 B1    5 B2    5 A2   10 B1   13 A1                 
  0.248   0.272   0.276   0.299   0.304   0.308   0.311   0.311
 14 A1   11 B1    6 B2    7 B2   12 B1   13 B1    6 A2   15 A1                 
  0.341   0.351   0.352   0.361   0.389   0.391   0.410   0.412
 14 B1   16 A1    7 A2   17 A1    8 B2   15 B1    8 A2   18 A1                 
  0.440   0.462   0.480   0.481   0.510   0.529   0.541   0.571
 19 A1   16 B1   20 A1   17 B1    9 B2   18 B1   10 B2   21 A1                 
  0.579   0.603   0.611   0.628   0.639   0.645   0.699   0.716
 11 B2    9 A2   22 A1   19 B1   10 A2   23 A1   20 B1   11 A2                 
  0.773   0.793   0.836   0.840   0.896   0.906   0.913   0.938
 21 B1   24 A1   12 B2   22 B1   25 A1   13 B2   26 A1   12 A2                 
  0.971   0.980   1.005   1.055   1.104   1.131   1.146   1.188
 23 B1   27 A1   24 B1   28 A1   25 B1   14 B2   13 A2   29 A1                 
  1.212   1.235   1.292   1.297   1.300   1.325   1.351   1.386
 15 B2   26 B1   14 A2   30 A1   27 B1   31 A1   16 B2   28 B1                 
  1.421   1.421   1.456   1.565   1.578   1.655   1.672   1.698
 15 A2   17 B2   32 A1   29 B1   33 A1   30 B1   18 B2   19 B2                 
  1.795   1.806   1.836   1.876   2.018   2.151   2.181   2.247
 34 A1   31 B1   16 A2   17 A2   32 B1   35 A1   33 B1   18 A2                 
  2.736   2.898   2.898   2.918   2.937   2.951   3.037   3.050
 36 A1   37 A1   20 B2   38 A1   34 B1   21 B2   39 A1   19 A2                 
  3.102   3.147   3.148   3.219   3.269   3.286   3.320   3.377
 40 A1   22 B2   35 B1   20 A2   41 A1   23 B2   42 A1   21 A2                 
  3.416   3.419   3.474   3.612   3.616   3.635   3.654   3.661
 36 B1   24 B2   43 A1   37 B1   25 B2   22 A2   38 B1   23 A2                 
  3.677   3.696   3.766   3.792   3.810   3.832   3.836   3.837
 39 B1   40 B1   44 A1   26 B2   45 A1   46 A1   24 A2   27 B2                 
  3.882   3.892   3.951   3.973   4.129   4.158   4.172   4.177
 47 A1   41 B1   28 B2   25 A2   42 B1   43 B1   26 A2   29 B2                 
  4.200   4.219   4.268   4.307   4.362   4.379   4.437   4.464
 48 A1   49 A1   27 A2   30 B2   44 B1   45 B1   50 A1   51 A1                 
  4.467   4.496   4.513   4.571   4.742   4.762   4.815   4.890
 31 B2   28 A2   46 B1   52 A1   47 B1   32 B2   29 A2   53 A1                 
  4.948   5.008   5.100   5.200   5.236   5.315   5.373   5.460
 48 B1   49 B1   54 A1   55 A1   30 A2   33 B2   34 B2   50 B1                 
  5.517   5.576   5.630   5.692   5.826   5.879   6.258   6.339
 56 A1   31 A2   32 A2   51 B1   35 B2   57 A1   33 A2   52 B1                 
  6.467   6.820   7.046  13.111  15.544
 36 B2   53 B1   34 A2   58 A1   54 B1                                         
 
 Beta MOs, Restricted
 -- Occupied --                  
-11.078 -11.076  -0.887  -0.632  -0.511  -0.419  -0.368  -0.225
  1 A1    1 B1    2 A1    2 B1    1 B2    3 A1    1 A2    4 A1                 
 -0.035
  5 A1                                                                         
 -- Virtual --                   
  0.056   0.062   0.062   0.063   0.067   0.076   0.092   0.102
  3 B1    2 B2    2 A2    6 A1    4 B1    7 A1    5 B1    3 B2                 
  0.104   0.105   0.113   0.116   0.141   0.145   0.155   0.161
  3 A2    8 A1    6 B1    9 A1    7 B1   10 A1    4 B2    4 A2                 
  0.167   0.172   0.205   0.210   0.232   0.242   0.245   0.246
 11 A1    8 B1   12 A1    9 B1    5 B2    5 A2   10 B1   13 A1                 
  0.248   0.272   0.276   0.299   0.304   0.308   0.311   0.311
 14 A1   11 B1    6 B2    7 B2   12 B1   13 B1    6 A2   15 A1                 
  0.341   0.351   0.352   0.361   0.389   0.391   0.410   0.412
 14 B1   16 A1    7 A2   17 A1    8 B2   15 B1    8 A2   18 A1                 
  0.440   0.462   0.480   0.481   0.510   0.529   0.541   0.571
 19 A1   16 B1   20 A1   17 B1    9 B2   18 B1   10 B2   21 A1                 
  0.579   0.603   0.611   0.628   0.639   0.645   0.699   0.716
 11 B2    9 A2   22 A1   19 B1   10 A2   23 A1   20 B1   11 A2                 
  0.773   0.793   0.836   0.840   0.896   0.906   0.913   0.938
 21 B1   24 A1   12 B2   22 B1   25 A1   13 B2   26 A1   12 A2                 
  0.971   0.980   1.005   1.055   1.104   1.131   1.146   1.188
 23 B1   27 A1   24 B1   28 A1   25 B1   14 B2   13 A2   29 A1                 
  1.212   1.235   1.292   1.297   1.300   1.325   1.351   1.386
 15 B2   26 B1   14 A2   30 A1   27 B1   31 A1   16 B2   28 B1                 
  1.421   1.421   1.456   1.565   1.578   1.655   1.672   1.698
 15 A2   17 B2   32 A1   29 B1   33 A1   30 B1   18 B2   19 B2                 
  1.795   1.806   1.836   1.876   2.018   2.151   2.181   2.247
 34 A1   31 B1   16 A2   17 A2   32 B1   35 A1   33 B1   18 A2                 
  2.736   2.898   2.898   2.918   2.937   2.951   3.037   3.050
 36 A1   37 A1   20 B2   38 A1   34 B1   21 B2   39 A1   19 A2                 
  3.102   3.147   3.148   3.219   3.269   3.286   3.320   3.377
 40 A1   22 B2   35 B1   20 A2   41 A1   23 B2   42 A1   21 A2                 
  3.416   3.419   3.474   3.612   3.616   3.635   3.654   3.661
 36 B1   24 B2   43 A1   37 B1   25 B2   22 A2   38 B1   23 A2                 
  3.677   3.696   3.766   3.792   3.810   3.832   3.836   3.837
 39 B1   40 B1   44 A1   26 B2   45 A1   46 A1   24 A2   27 B2                 
  3.882   3.892   3.951   3.973   4.129   4.158   4.172   4.177
 47 A1   41 B1   28 B2   25 A2   42 B1   43 B1   26 A2   29 B2                 
  4.200   4.219   4.268   4.307   4.362   4.379   4.437   4.464
 48 A1   49 A1   27 A2   30 B2   44 B1   45 B1   50 A1   51 A1                 
  4.467   4.496   4.513   4.571   4.742   4.762   4.815   4.890
 31 B2   28 A2   46 B1   52 A1   47 B1   32 B2   29 A2   53 A1                 
  4.948   5.008   5.100   5.200   5.236   5.315   5.373   5.460
 48 B1   49 B1   54 A1   55 A1   30 A2   33 B2   34 B2   50 B1                 
  5.517   5.576   5.630   5.692   5.826   5.879   6.258   6.339
 56 A1   31 A2   32 A2   51 B1   35 B2   57 A1   33 A2   52 B1                 
  6.467   6.820   7.046  13.111  15.544
 36 B2   53 B1   34 A2   58 A1   54 B1                                         
 --------------------------------------------------------------
 
          Ground-State Mulliken Net Atomic Charges

     Atom                 Charge (a.u.)
  ----------------------------------------
      1 C                    -0.471833
      2 C                    -0.471821
      3 H                     0.116195
      4 H                     0.116193
      5 H                     0.116195
      6 H                     0.116193
      7 H                    -0.521121
  ----------------------------------------
  Sum of atomic charges =    -1.000000

 -----------------------------------------------------------------
                    Cartesian Multipole Moments
 -----------------------------------------------------------------
    Charge (ESU x 10^10)
                -4.8032
    Dipole Moment (Debye)
         X       0.0000      Y      -0.0000      Z     -12.1495
       Tot      12.1495
    Quadrupole Moments (Debye-Ang)
        XX     -26.2026     XY       0.0000     YY     -22.5494
        XZ      -0.0000     YZ       0.0000     ZZ     -63.6172
    Octopole Moments (Debye-Ang^2)
       XXX       0.0000    XXY      -0.0000    XYY       0.0000
       YYY       0.0000    XXZ     -13.8952    XYZ      -0.0000
       YYZ     -22.0382    XZZ       0.0000    YZZ      -0.0000
       ZZZ    -152.5052
    Hexadecapole Moments (Debye-Ang^3)
      XXXX    -644.5619   XXXY      -0.0000   XXYY     -96.8866
      XYYY      -0.0000   YYYY    -162.3995   XXXZ      -0.0000
      XXYZ       0.0000   XYYZ       0.0000   YYYZ      -0.0000
      XXZZ    -162.4169   XYZZ      -0.0000   YYZZ    -115.5064
      XZZZ      -0.0000   YZZZ       0.0000   ZZZZ    -762.5928
 -----------------------------------------------------------------
 Total job time:  638.64s(wall), 4601.27s(cpu) 
 Thu Apr 28 18:49:13 2022

        *************************************************************
        *                                                           *
        *  Thank you very much for using Q-Chem.  Have a nice day.  *
        *                                                           *
        *************************************************************


