                  Welcome to Q-Chem
     A Quantum Leap Into The Future Of Chemistry


 Q-Chem 5.4 (devel), Q-Chem, Inc., Pleasanton, CA (2021)

 E. Epifanovsky,  A. T. B. Gilbert,  Xintian Feng,  Joonho Lee,  Yuezhi Mao,  
 N. Mardirossian,  P. Pokhilko,  A. White,  M. Wormit,  M. P. Coons,  
 A. L. Dempwolff,  Zhengting Gan,  D. Hait,  P. R. Horn,  L. D. Jacobson,  
 I. Kaliman,  J. Kussmann,  A. W. Lange,  Ka Un Lao,  D. S. Levine,  Jie Liu,  
 S. C. McKenzie,  A. F. Morrison,  K. Nanda,  F. Plasser,  D. R. Rehn,  
 M. L. Vidal,  Zhi-Qiang You,  Ying Zhu,  B. Alam,  B. Albrecht,  
 A. Aldossary,  E. Alguire,  J. H. Andersen,  D. Barton,  K. Begam,  A. Behn,  
 Y. A. Bernard,  E. J. Berquist,  H. Burton,  A. Carreras,  K. Carter-Fenk,  
 R. Chakraborty,  A. D. Chien,  K. D. Closser,  V. Cofer-Shabica,  
 S. Dasgupta,  Jia Deng,  M. de Wergifosse,  M. Diedenhofen,  Hainam Do,  
 S. Ehlert,  Po-Tung Fang,  S. Fatehi,  Qingguo Feng,  T. Friedhoff,  
 J. Gayvert,  Qinghui Ge,  G. Gidofalvi,  M. Goldey,  J. Gomes,  
 C. Gonzalez-Espinoza,  S. Gulania,  A. Gunina,  M. W. D. Hanson-Heine,  
 P. H. P. Harbach,  A. W. Hauser,  M. F. Herbst,  M. Hernandez Vera,  
 M. Hodecker,  Z. C. Holden,  S. Houck,  Xunkun Huang,  Kerwin Hui,  
 B. C. Huynh,  M. Ivanov,  Hyunjun Ji,  Hanjie Jiang,  B. Kaduk,  S. Kaehler,  
 K. Khistyaev,  Jaehoon Kim,  P. Klunzinger,  Z. Koczor-Benda,  
 Joong Hoon Koh,  D. Kosenkov,  L. Koulias,  T. Kowalczyk,  C. M. Krauter,  
 K. Kue,  A. Kunitsa,  T. Kus,  A. Landau,  K. V. Lawler,  D. Lefrancois,  
 S. Lehtola,  Rain Li,  Yi-Pei Li,  Jiashu Liang,  M. Liebenthal,  
 Hung-Hsuan Lin,  You-Sheng Lin,  Fenglai Liu,  Kuan-Yu Liu,  
 M. Loipersberger,  A. Luenser,  A. Manjanath,  P. Manohar,  E. Mansoor,  
 S. F. Manzer,  Shan-Ping Mao,  A. V. Marenich,  T. Markovich,  S. Mason,  
 S. A. Maurer,  P. F. McLaughlin,  M. F. S. J. Menger,  J.-M. Mewes,  
 S. A. Mewes,  P. Morgante,  J. W. Mullinax,  K. J. Oosterbaan,  G. Paran,  
 Alexander C. Paul,  Suranjan K. Paul,  F. Pavosevic,  Zheng Pei,  S. Prager,  
 E. I. Proynov,  E. Ramos,  B. Rana,  A. E. Rask,  A. Rettig,  R. M. Richard,  
 F. Rob,  E. Rossomme,  T. Scheele,  M. Scheurer,  M. Schneider,  
 N. Sergueev,  S. M. Sharada,  W. Skomorowski,  D. W. Small,  C. J. Stein,  
 Yu-Chuan Su,  E. J. Sundstrom,  Zhen Tao,  J. Thirman,  T. Tsuchimochi,  
 N. M. Tubman,  S. P. Veccham,  O. Vydrov,  J. Wenzel,  J. Witte,  A. Yamada,  
 Kun Yao,  S. Yeganeh,  S. R. Yost,  A. Zech,  Igor Ying Zhang,  Xing Zhang,  
 Yu Zhang,  D. Zuev,  A. Aspuru-Guzik,  A. T. Bell,  N. A. Besley,  
 K. B. Bravaya,  B. R. Brooks,  D. Casanova,  Jeng-Da Chai,  S. Coriani,  
 C. J. Cramer,  A. E. DePrince, III,  R. A. DiStasio Jr.,  A. Dreuw,  
 B. D. Dunietz,  T. R. Furlani,  W. A. Goddard III,  S. Grimme,  
 S. Hammes-Schiffer,  T. Head-Gordon,  W. J. Hehre,  Chao-Ping Hsu,  
 T.-C. Jagau,  Yousung Jung,  A. Klamt,  Jing Kong,  D. S. Lambrecht,  
 WanZhen Liang,  N. J. Mayhall,  C. W. McCurdy,  J. B. Neaton,  
 C. Ochsenfeld,  J. A. Parkhill,  R. Peverati,  V. A. Rassolov,  Yihan Shao,  
 L. V. Slipchenko,  T. Stauch,  R. P. Steele,  J. E. Subotnik,  
 A. J. W. Thom,  A. Tkatchenko,  D. G. Truhlar,  T. Van Voorhis,  
 T. A. Wesolowski,  K. B. Whaley,  H. L. Woodcock III,  P. M. Zimmerman,  
 S. Faraji,  P. M. W. Gill,  M. Head-Gordon,  J. M. Herbert,  A. I. Krylov

 Additional authors for Version 5.4.1: 
 S. Kotaru,  Shaozhi Li,  Xiangyuan Li,  F. Matz,  A. Molle,  Haisheng Ren,  
 Yingli Su,  Hung-Yi Tsai,  C. Utku,  Fang Wang

 Contributors to earlier versions of Q-Chem not listed above: 
 R. D. Adamson,  B. Austin,  R. Baer,  J. Baker,  G. J. O. Beran,  
 K. Brandhorst,  S. T. Brown,  E. F. C. Byrd,  A. K. Chakraborty,  
 G. K. L. Chan,  Chun-Min Chang,  Yunqing Chen,  C.-L. Cheng,  
 Siu Hung Chien,  D. M. Chipman,  D. L. Crittenden,  H. Dachsel,  
 R. J. Doerksen,  A. D. Dutoi,  R. G. Edgar,  J. Fosso-Tande,  
 L. Fusti-Molnar,  D. Ghosh,  A. Ghysels,  A. Golubeva-Zadorozhnaya,  
 J. Gonthier,  M. S. Gordon,  S. R. Gwaltney,  G. Hawkins,  J. E. Herr,  
 A. Heyden,  S. Hirata,  E. G. Hohenstein,  G. Kedziora,  F. J. Keil,  
 C. Kelley,  Jihan Kim,  R. A. King,  R. Z. Khaliullin,  P. P. Korambath,  
 W. Kurlancheek,  A. Laurent,  A. M. Lee,  M. S. Lee,  S. V. Levchenko,  
 Ching Yeh Lin,  D. Liotard,  E. Livshits,  R. C. Lochan,  I. Lotan,  
 L. A. Martinez-Martinez,  P. E. Maslen,  N. Nair,  D. P. O'Neill,  
 D. Neuhauser,  E. Neuscamman,  C. M. Oana,  R. Olivares-Amaya,  R. Olson,  
 T. M. Perrine,  B. Peters,  P. A. Pieniazek,  A. Prociuk,  Y. M. Rhee,  
 J. Ritchie,  M. A. Rohrdanz,  E. Rosta,  N. J. Russ,  H. F. Schaefer III,  
 M. W. Schmidt,  N. E. Schultz,  S. Sharma,  N. Shenvi,  C. D. Sherrill,  
 A. C. Simmonett,  A. Sodt,  T. Stein,  D. Stuck,  K. S. Thanthiriwatte,  
 V. Vanovschi,  L. Vogt,  Tao Wang,  A. Warshel,  M. A. Watson,  
 C. F. Williams,  Q. Wu,  X. Xu,  Jun Yang,  W. Zhang,  Yan Zhao

 Please cite Q-Chem as follows:
 Y. Shao et al., Mol. Phys. 113, 184-215 (2015)
 DOI: 10.1080/00268976.2014.952696

 Q-Chem 5.4.1 for Intel X86 EM64T Linux

 Parts of Q-Chem use Armadillo 9.900.5 (Nocturnal Misbehaviour).
 http://arma.sourceforge.net/

 Q-Chem begins on Fri Mar 11 11:34:24 2022  

 Host: node01
0

     Scratch files written to /src/jdavis/qchem.scratch/qchem25999//
 Processing $rem in /src/tsommerfeld/qchem/config/preferences:
 Processing $rem in /home/jdavis/.qchemrc:
 Core orbitals will be frozen

 Checking the input file for inconsistencies... 	...done.

--------------------------------------------------------------
User input:
--------------------------------------------------------------
$molecule
-1 1
O         0.0000000000    0.0000000000    3.792
H         0.0000000000    0.0000000000    4.792
$end

$rem
   JOBTYPE opt
   METHOD MP2
   BASIS gen
   PURECART 11
   THRESH 14
   S2THRESH 14
   THREADS 4
   MEM_TOTAL 95000
$end
$basis
H     0
cc-pvtz
****
O     0
aug-cc-pvtz
****
$end
--------------------------------------------------------------
 ----------------------------------------------------------------
             Standard Nuclear Orientation (Angstroms)
    I     Atom           X                Y                Z
 ----------------------------------------------------------------
    1      O       0.0000000000     0.0000000000    -0.1111111111
    2      H       0.0000000000     0.0000000000     0.8888888889
 ----------------------------------------------------------------
 Molecular Point Group                 C*v   NOp =***
 Largest Abelian Subgroup              C2v   NOp =  1
 Nuclear Repulsion Energy =           4.23341769 hartrees
 There are        5 alpha and        5 beta electrons
 Requested basis set is non-standard
 There are 20 shells and 60 basis functions

 Total QAlloc Memory Limit  95000 MB
 Mega-Array Size       188 MB
 MEM_STATIC part       192 MB
 A cutoff of  1.0D-14 yielded    210 shell pairs
 There are      1930 function pairs (      2653 Cartesian)
 Smallest overlap matrix eigenvalue = 1.08E-03

 Scale SEOQF with 1.000000e-01/1.000000e-01/1.000000e-01

 Standard Electronic Orientation quadrupole field applied
 ================ Generating on-the-fly SAD Guess ================
Attempting to make child job directory: /src/jdavis/qchem.scratch/qchem25999//Frg1/
Attempting to make child job directory: /src/jdavis/qchem.scratch/qchem25999//Frg2/
Creating input file /src/jdavis/qchem.scratch/qchem25999/Frg1.input
using default PutDataFrgm: nothing
calling putenv with: QCSCRATCH=/src/jdavis/qchem.scratch/qchem25999/ 
Spawning Job For Fragment 0
Done Job For Fragment 0
calling putenv with: QCSCRATCH=/src/jdavis/qchem.scratch 
calling putenv with: QCTHREADS=1 
Creating input file /src/jdavis/qchem.scratch/qchem25999/Frg2.input
using default PutDataFrgm: nothing
calling putenv with: QCSCRATCH=/src/jdavis/qchem.scratch/qchem25999/ 
Spawning Job For Fragment 1
Done Job For Fragment 1
calling putenv with: QCSCRATCH=/src/jdavis/qchem.scratch 
calling putenv with: QCTHREADS=1 
 Time for running child jobs:  CPU 0.59 s  wall 1.29 s
 ============= Method Specific SAD Guess Constructed =============
 Guess from on-the-fly superposition of atomic densities
 Warning: Energy on first SCF cycle will be non-variational

 -----------------------------------------------------------------------
  General SCF calculation program by
  Eric Jon Sundstrom, Paul Horn, Yuezhi Mao, Dmitri Zuev, Alec White,
  David Stuck, Shaama M.S., Shane Yost, Joonho Lee, David Small,
  Daniel Levine, Susi Lehtola, Hugh Burton, Evgeny Epifanovsky,
  Bang C. Huynh
 -----------------------------------------------------------------------
 Hartree-Fock
 using 4 threads for integral computing
 -------------------------------------------------------
 OpenMP Integral computing Module                
 Release: version 1.0, May 2013, Q-Chem Inc. Pittsburgh 
 -------------------------------------------------------
 A restricted SCF calculation will be
 performed using DIIS
 SCF converges when DIIS error is below 1.0e-08
 ---------------------------------------
  Cycle       Energy         DIIS error
 ---------------------------------------
    1     -75.0363925303      3.23e-02  
    2     -75.2791125660      1.76e-02  
    3     -75.3788448301      1.05e-02  
    4     -75.4090776580      9.63e-04  
    5     -75.4093721396      1.79e-04  
    6     -75.4093883699      2.69e-05  
    7     -75.4093889758      6.02e-06  
    8     -75.4093890130      1.45e-06  
    9     -75.4093890161      4.65e-07  
   10     -75.4093890165      7.46e-08  
   11     -75.4093890165      6.27e-09  Convergence criterion met
 ---------------------------------------
 SCF time:   CPU 4.42s  wall 1.00s 
 SCF   energy in the final basis set =      -75.4093890165
 Total energy in the final basis set =      -75.4093890165
 
 Components of the MP2 correlation energy:
        aaaa  correlation energy =        -0.0373052453 au
        abab  correlation energy =        -0.2162380983 au
        bbbb  correlation energy =        -0.0373052453 au
        non-Brillouin singles    =        -0.0000000000 au

 Total  MP2   correlation energy =                    -0.29084859 au
        MP2         total energy =                   -75.70023761 au
  Entering Z-vector solver.
 Full subspace dimension requested for CIS/TDDFT
 MAX_CIS_SUBSPACE fits in available memory
   1         0           1      0.000758    0.000758
   2         0           1      0.000424    0.000424
   3         0           1      0.000098    0.000098
   4         0           1      0.000010    0.000010
   5         0           1      0.000002    0.000002
   6         1           0      0.000000    0.000000    Roots Converged
 
 --------------------------------------------------------------
 
                    Orbital Energies (a.u.)
 --------------------------------------------------------------
 
 Alpha MOs
 -- Occupied --
-20.1924  -0.8940  -0.2438  -0.1097  -0.1097
 -- Virtual --
  0.3370   0.3866   0.3866   0.4030   0.4965   0.9206   0.9206   0.9247
  0.9587   0.9587   1.0935   1.1605   1.2854   1.2854   1.4917   1.4917
  1.7878   1.9329   2.3901   2.3901   2.4255   2.4255   2.4940   2.4940
  2.5433   2.5433   2.6578   2.7649   2.7776   2.7776   3.8130   4.2713
  4.2713   4.4240   4.4240   4.5128   4.5128   4.6117   5.3459   5.5477
  5.5477   6.4194   6.8646   6.8646   6.8951   6.8951   7.3803   7.3803
  7.4349   7.4349   7.4480   7.5231   7.5231   8.0373  11.4280
 --------------------------------------------------------------
 
          Ground-State Mulliken Net Atomic Charges

     Atom                 Charge (a.u.)
  ----------------------------------------
      1 O                    -1.155322
      2 H                     0.155322
  ----------------------------------------
  Sum of atomic charges =    -1.000000

 -----------------------------------------------------------------
                    Cartesian Multipole Moments
 -----------------------------------------------------------------
    Charge (ESU x 10^10)
                -4.8032
    Dipole Moment (Debye)
         X       0.0000      Y      -0.0000      Z       1.5206
       Tot       1.5206
    Quadrupole Moments (Debye-Ang)
        XX     -11.3469     XY       0.0000     YY     -11.3469
        XZ      -0.0000     YZ       0.0000     ZZ      -8.4002
    Octopole Moments (Debye-Ang^2)
       XXX      -0.0000    XXY       0.0000    XYY      -0.0000
       YYY       0.0000    XXZ       0.4233    XYZ       0.0000
       YYZ       0.4233    XZZ       0.0000    YZZ      -0.0000
       ZZZ       1.5411
    Hexadecapole Moments (Debye-Ang^3)
      XXXX     -22.6987   XXXY       0.0000   XXYY      -7.5662
      XYYY       0.0000   YYYY     -22.6987   XXXZ      -0.0000
      XXYZ       0.0000   XYYZ      -0.0000   YYYZ       0.0000
      XXZZ      -6.6977   XYZZ       0.0000   YYZZ      -6.6977
      XZZZ      -0.0000   YZZZ      -0.0000   ZZZZ     -16.3408
 -----------------------------------------------------------------
 DrvMan is completing analytic gradient of the MP2 energy
 MP2 relaxed dipole moment
            1
    1   0.0000000
    2  -0.0000000
    3   0.5982406
	Magnitude:	 0.598 au	 1.521 Debye
 MP2 energy read as -75.700238
 Full Analytical Gradient of MP2 Energy (in au.)
             1             2
    1    0.00000000   -0.00000000
    2    0.00000000   -0.00000000
    3   -0.02901968    0.02901968
 Gradient time:  CPU 0.53 s  wall 0.13 s
 Geometry Optimization Parameters
   NAtoms,    NIC,     NZ,  NCons,   NDum,   NFix, NCnnct, MaxDiis
        2       5       0       0       0       0       0       0


** GEOMETRY OPTIMIZATION IN DELOCALIZED INTERNAL COORDINATES **
   Searching for a Minimum

   Optimization Cycle:   1

                       Coordinates (Angstroms)
     ATOM                X               Y               Z
      1  O         0.0000000000    0.0000000000   -0.1111111111
      2  H         0.0000000000    0.0000000000    0.8888888889
   Point Group: c*v   Number of degrees of freedom:     1


   Energy is    -75.700237605


 Attempting to generate delocalized internal coordinates
 Initial Hessian constructed with Jon Baker's OPTIMIZE code

  1 Hessian modes will be used to form the next step
  Hessian Eigenvalues:
     0.476883

 Minimum search - taking simple RFO step
 Searching for Lamda that Minimizes Along All modes
 Value Taken    Lamda =  -0.00175944
 Step Taken.  Stepsize is  0.060629

                             Maximum     Tolerance    Cnvgd?
         Gradient           0.029020      0.000300      NO
         Displacement       0.060629      0.001200      NO
         Energy change     *********      0.000001      NO


 New Cartesian Coordinates Obtained by Inverse Iteration

 Displacement from previous Coordinates is:  0.042871
 ----------------------------------------------------------------
             Standard Nuclear Orientation (Angstroms)
    I     Atom           X                Y                Z
 ----------------------------------------------------------------
    1      O       0.0000000000     0.0000000000    -0.0950693385
    2      H       0.0000000000     0.0000000000     0.8728471163
 ----------------------------------------------------------------
 Molecular Point Group                 C*v   NOp =***
 Largest Abelian Subgroup              C2v   NOp =  1
 Nuclear Repulsion Energy =           4.37374286 hartrees
 There are        5 alpha and        5 beta electrons
 Applying Cartesian multipole field
    Component          Value
    ---------          -----
     (2,0,0)        1.00000E-11
     (0,2,0)        2.00000E-11
     (0,0,2)       -3.00000E-11
 Read the previous MOs as SCF guess

 -----------------------------------------------------------------------
  General SCF calculation program by
  Eric Jon Sundstrom, Paul Horn, Yuezhi Mao, Dmitri Zuev, Alec White,
  David Stuck, Shaama M.S., Shane Yost, Joonho Lee, David Small,
  Daniel Levine, Susi Lehtola, Hugh Burton, Evgeny Epifanovsky,
  Bang C. Huynh
 -----------------------------------------------------------------------
 Requested basis set is non-standard
 There are 20 shells and 60 basis functions
 Hartree-Fock
 A cutoff of  1.0D-14 yielded    210 shell pairs
 There are      1930 function pairs (      2653 Cartesian)
 Smallest overlap matrix eigenvalue = 9.75E-04
 A restricted SCF calculation will be
 performed using DIIS
 SCF converges when DIIS error is below 1.0e-08
 ---------------------------------------
  Cycle       Energy         DIIS error
 ---------------------------------------
    1     -75.1377203730      4.17e-03  
    2     -75.4108990280      1.40e-03  
    3     -75.4113836901      9.32e-04  
    4     -75.4117022397      2.32e-04  
    5     -75.4117411311      5.75e-05  
    6     -75.4117467039      1.63e-05  
    7     -75.4117471430      3.65e-06  
    8     -75.4117471554      2.47e-07  
    9     -75.4117471554      3.17e-08  
   10     -75.4117471554      5.29e-09  Convergence criterion met
 ---------------------------------------
 SCF time:   CPU 4.29s  wall 1.00s 
 SCF   energy in the final basis set =      -75.4117471554
 Total energy in the final basis set =      -75.4117471554
 
 Components of the MP2 correlation energy:
        aaaa  correlation energy =        -0.0371463989 au
        abab  correlation energy =        -0.2151353302 au
        bbbb  correlation energy =        -0.0371463989 au
        non-Brillouin singles    =        -0.0000000000 au

 Total  MP2   correlation energy =                    -0.28942813 au
        MP2         total energy =                   -75.70117528 au
  Entering Z-vector solver.
 Full subspace dimension requested for CIS/TDDFT
 MAX_CIS_SUBSPACE fits in available memory
   1         0           1      0.000696    0.000696
   2         0           1      0.000380    0.000380
   3         0           1      0.000088    0.000088
   4         0           1      0.000009    0.000009
   5         0           1      0.000002    0.000002
   6         1           0      0.000000    0.000000    Roots Converged
 
 --------------------------------------------------------------
 
                    Orbital Energies (a.u.)
 --------------------------------------------------------------
 
 Alpha MOs
 -- Occupied --
-20.1872  -0.9018  -0.2507  -0.1088  -0.1088
 -- Virtual --
  0.3336   0.3867   0.3867   0.4046   0.5015   0.9202   0.9202   0.9387
  0.9586   0.9586   1.0980   1.1564   1.2856   1.2856   1.5021   1.5021
  1.7750   1.9699   2.3905   2.3905   2.4254   2.4254   2.4945   2.4945
  2.5434   2.5434   2.6486   2.7512   2.7928   2.7928   3.8698   4.3133
  4.3133   4.4396   4.4396   4.5186   4.5186   4.6598   5.4427   5.6213
  5.6213   6.3878   6.8651   6.8651   6.8956   6.8956   7.4371   7.4371
  7.4417   7.4417   7.4827   7.5417   7.5417   8.1052  11.7915
 --------------------------------------------------------------
 
          Ground-State Mulliken Net Atomic Charges

     Atom                 Charge (a.u.)
  ----------------------------------------
      1 O                    -1.151664
      2 H                     0.151664
  ----------------------------------------
  Sum of atomic charges =    -1.000000

 -----------------------------------------------------------------
                    Cartesian Multipole Moments
 -----------------------------------------------------------------
    Charge (ESU x 10^10)
                -4.8032
    Dipole Moment (Debye)
         X      -0.0000      Y       0.0000      Z       1.4775
       Tot       1.4775
    Quadrupole Moments (Debye-Ang)
        XX     -11.2914     XY       0.0000     YY     -11.2914
        XZ      -0.0000     YZ       0.0000     ZZ      -8.3473
    Octopole Moments (Debye-Ang^2)
       XXX      -0.0000    XXY       0.0000    XYY      -0.0000
       YYY       0.0000    XXZ       0.3143    XYZ       0.0000
       YYZ       0.3143    XZZ      -0.0000    YZZ       0.0000
       ZZZ       1.2977
    Hexadecapole Moments (Debye-Ang^3)
      XXXX     -22.5587   XXXY       0.0000   XXYY      -7.5196
      XYYY       0.0000   YYYY     -22.5587   XXXZ      -0.0000
      XXYZ       0.0000   XYYZ       0.0000   YYYZ       0.0000
      XXZZ      -6.5699   XYZZ       0.0000   YYZZ      -6.5699
      XZZZ      -0.0000   YZZZ       0.0000   ZZZZ     -15.8146
 -----------------------------------------------------------------
 DrvMan is completing analytic gradient of the MP2 energy
 MP2 relaxed dipole moment
            1
    1  -0.0000000
    2   0.0000000
    3   0.5813054
	Magnitude:	 0.581 au	 1.478 Debye
 MP2 energy read as -75.701175
 Full Analytical Gradient of MP2 Energy (in au.)
             1             2
    1    0.00000000   -0.00000000
    2    0.00000000   -0.00000000
    3   -0.00091272    0.00091272
 Gradient time:  CPU 0.51 s  wall 0.13 s
 Geometry Optimization Parameters
   NAtoms,    NIC,     NZ,  NCons,   NDum,   NFix, NCnnct, MaxDiis
        2       5       0       0       0       0       0       0

 Cartesian Hessian Update
 Hessian updated using BFGS update


** GEOMETRY OPTIMIZATION IN DELOCALIZED INTERNAL COORDINATES **
   Searching for a Minimum

   Optimization Cycle:   2

                       Coordinates (Angstroms)
     ATOM                X               Y               Z
      1  O         0.0000000000    0.0000000000   -0.0950693385
      2  H         0.0000000000    0.0000000000    0.8728471163
   Point Group: c*v   Number of degrees of freedom:     1


   Energy is    -75.701175284

 Hessian updated using BFGS update

  1 Hessian modes will be used to form the next step
  Hessian Eigenvalues:
     0.463589

 Minimum search - taking simple RFO step
 Searching for Lamda that Minimizes Along All modes
 Value Taken    Lamda =  -0.00000180
 Step Taken.  Stepsize is  0.001969

                             Maximum     Tolerance    Cnvgd?
         Gradient           0.000913      0.000300      NO
         Displacement       0.001969      0.001200      NO
         Energy change     -0.000938      0.000001      NO


 New Cartesian Coordinates Obtained by Inverse Iteration

 Displacement from previous Coordinates is:  0.001392
 ----------------------------------------------------------------
             Standard Nuclear Orientation (Angstroms)
    I     Atom           X                Y                Z
 ----------------------------------------------------------------
    1      O       0.0000000000     0.0000000000    -0.0945484167
    2      H       0.0000000000     0.0000000000     0.8723261945
 ----------------------------------------------------------------
 Molecular Point Group                 C*v   NOp =***
 Largest Abelian Subgroup              C2v   NOp =  1
 Nuclear Repulsion Energy =           4.37845573 hartrees
 There are        5 alpha and        5 beta electrons
 Applying Cartesian multipole field
    Component          Value
    ---------          -----
     (2,0,0)        1.00000E-11
     (0,2,0)        2.00000E-11
     (0,0,2)       -3.00000E-11
 Read the previous MOs as SCF guess

 -----------------------------------------------------------------------
  General SCF calculation program by
  Eric Jon Sundstrom, Paul Horn, Yuezhi Mao, Dmitri Zuev, Alec White,
  David Stuck, Shaama M.S., Shane Yost, Joonho Lee, David Small,
  Daniel Levine, Susi Lehtola, Hugh Burton, Evgeny Epifanovsky,
  Bang C. Huynh
 -----------------------------------------------------------------------
 Requested basis set is non-standard
 There are 20 shells and 60 basis functions
 Hartree-Fock
 A cutoff of  1.0D-14 yielded    210 shell pairs
 There are      1930 function pairs (      2653 Cartesian)
 Smallest overlap matrix eigenvalue = 9.72E-04
 A restricted SCF calculation will be
 performed using DIIS
 SCF converges when DIIS error is below 1.0e-08
 ---------------------------------------
  Cycle       Energy         DIIS error
 ---------------------------------------
    1     -75.1260172752      3.48e-03  
    2     -75.4110078237      1.29e-03  
    3     -75.4114370437      9.13e-04  
    4     -75.4117441357      2.21e-04  
    5     -75.4117897128      5.39e-05  
    6     -75.4117952145      1.16e-05  
    7     -75.4117953531      1.39e-06  
    8     -75.4117953542      1.90e-07  
    9     -75.4117953543      9.82e-09  Convergence criterion met
 ---------------------------------------
 SCF time:   CPU 3.95s  wall 1.00s 
 SCF   energy in the final basis set =      -75.4117953543
 Total energy in the final basis set =      -75.4117953543
 
 Components of the MP2 correlation energy:
        aaaa  correlation energy =        -0.0371408732 au
        abab  correlation energy =        -0.2150989585 au
        bbbb  correlation energy =        -0.0371408732 au
        non-Brillouin singles    =        -0.0000000000 au

 Total  MP2   correlation energy =                    -0.28938070 au
        MP2         total energy =                   -75.70117606 au
  Entering Z-vector solver.
 Full subspace dimension requested for CIS/TDDFT
 MAX_CIS_SUBSPACE fits in available memory
   1         0           1      0.000695    0.000695
   2         0           1      0.000379    0.000379
   3         0           1      0.000088    0.000088
   4         0           1      0.000009    0.000009
   5         0           1      0.000002    0.000002
   6         1           0      0.000000    0.000000    Roots Converged
 
 --------------------------------------------------------------
 
                    Orbital Energies (a.u.)
 --------------------------------------------------------------
 
 Alpha MOs
 -- Occupied --
-20.1871  -0.9020  -0.2510  -0.1088  -0.1088
 -- Virtual --
  0.3335   0.3867   0.3867   0.4046   0.5017   0.9202   0.9202   0.9391
  0.9586   0.9586   1.0981   1.1564   1.2856   1.2856   1.5025   1.5025
  1.7745   1.9712   2.3905   2.3905   2.4254   2.4254   2.4945   2.4945
  2.5434   2.5434   2.6483   2.7510   2.7933   2.7933   3.8716   4.3147
  4.3147   4.4401   4.4401   4.5187   4.5187   4.6613   5.4460   5.6236
  5.6236   6.3870   6.8651   6.8651   6.8956   6.8956   7.4372   7.4372
  7.4429   7.4429   7.4842   7.5433   7.5433   8.1075  11.8039
 --------------------------------------------------------------
 
          Ground-State Mulliken Net Atomic Charges

     Atom                 Charge (a.u.)
  ----------------------------------------
      1 O                    -1.151530
      2 H                     0.151530
  ----------------------------------------
  Sum of atomic charges =    -1.000000

 -----------------------------------------------------------------
                    Cartesian Multipole Moments
 -----------------------------------------------------------------
    Charge (ESU x 10^10)
                -4.8032
    Dipole Moment (Debye)
         X       0.0000      Y      -0.0000      Z       1.4761
       Tot       1.4761
    Quadrupole Moments (Debye-Ang)
        XX     -11.2896     XY      -0.0000     YY     -11.2896
        XZ       0.0000     YZ      -0.0000     ZZ      -8.3456
    Octopole Moments (Debye-Ang^2)
       XXX       0.0000    XXY      -0.0000    XYY       0.0000
       YYY      -0.0000    XXZ       0.3108    XYZ       0.0000
       YYZ       0.3108    XZZ       0.0000    YZZ      -0.0000
       ZZZ       1.2898
    Hexadecapole Moments (Debye-Ang^3)
      XXXX     -22.5539   XXXY      -0.0000   XXYY      -7.5180
      XYYY      -0.0000   YYYY     -22.5539   XXXZ      -0.0000
      XXYZ      -0.0000   XYYZ      -0.0000   YYYZ      -0.0000
      XXZZ      -6.5657   XYZZ      -0.0000   YYZZ      -6.5657
      XZZZ      -0.0000   YZZZ      -0.0000   ZZZZ     -15.7978
 -----------------------------------------------------------------
 DrvMan is completing analytic gradient of the MP2 energy
 MP2 relaxed dipole moment
            1
    1   0.0000000
    2  -0.0000000
    3   0.5807519
	Magnitude:	 0.581 au	 1.476 Debye
 MP2 energy read as -75.701176
 Full Analytical Gradient of MP2 Energy (in au.)
             1             2
    1    0.00000000   -0.00000000
    2    0.00000000   -0.00000000
    3    0.00010679   -0.00010679
 Gradient time:  CPU 0.51 s  wall 0.13 s
 Geometry Optimization Parameters
   NAtoms,    NIC,     NZ,  NCons,   NDum,   NFix, NCnnct, MaxDiis
        2       5       0       0       0       0       0       0

 Cartesian Hessian Update
 Hessian updated using BFGS update


** GEOMETRY OPTIMIZATION IN DELOCALIZED INTERNAL COORDINATES **
   Searching for a Minimum

   Optimization Cycle:   3

                       Coordinates (Angstroms)
     ATOM                X               Y               Z
      1  O         0.0000000000    0.0000000000   -0.0945484167
      2  H         0.0000000000    0.0000000000    0.8723261945
   Point Group: c*v   Number of degrees of freedom:     1


   Energy is    -75.701176059

 Hessian updated using BFGS update

  1 Hessian modes will be used to form the next step
  Hessian Eigenvalues:
     0.517833

 Minimum search - taking simple RFO step
 Searching for Lamda that Minimizes Along All modes
 Value Taken    Lamda =  -0.00000002
 Step Taken.  Stepsize is  0.000206

                             Maximum     Tolerance    Cnvgd?
         Gradient           0.000107      0.000300     YES
         Displacement       0.000206      0.001200     YES
         Energy change     -0.000001      0.000001     YES


                       Distance Matrix (Angstroms)
             O (  1)
   H (  2)  0.966875
 
 Final energy is   -75.7011760590663     


 ******************************
 **  OPTIMIZATION CONVERGED  **
 ******************************

                       Coordinates (Angstroms)
     ATOM                X               Y               Z
      1  O         0.0000000000    0.0000000000   -0.0945484167
      2  H         0.0000000000    0.0000000000    0.8723261945

Z-matrix Print:
$molecule
-1 1
O 
H  1 0.966875
$end

 
 --------------------------------------------------------------
 
                    Orbital Energies (a.u.)
 --------------------------------------------------------------
 
 Alpha MOs
 -- Occupied --
-20.1871  -0.9020  -0.2510  -0.1088  -0.1088
 -- Virtual --
  0.3335   0.3867   0.3867   0.4046   0.5017   0.9202   0.9202   0.9391
  0.9586   0.9586   1.0981   1.1564   1.2856   1.2856   1.5025   1.5025
  1.7745   1.9712   2.3905   2.3905   2.4254   2.4254   2.4945   2.4945
  2.5434   2.5434   2.6483   2.7510   2.7933   2.7933   3.8716   4.3147
  4.3147   4.4401   4.4401   4.5187   4.5187   4.6613   5.4460   5.6236
  5.6236   6.3870   6.8651   6.8651   6.8956   6.8956   7.4372   7.4372
  7.4429   7.4429   7.4842   7.5433   7.5433   8.1075  11.8039
 --------------------------------------------------------------
 
          Ground-State Mulliken Net Atomic Charges

     Atom                 Charge (a.u.)
  ----------------------------------------
      1 O                    -1.151530
      2 H                     0.151530
  ----------------------------------------
  Sum of atomic charges =    -1.000000

 -----------------------------------------------------------------
                    Cartesian Multipole Moments
 -----------------------------------------------------------------
    Charge (ESU x 10^10)
                -4.8032
    Dipole Moment (Debye)
         X       0.0000      Y      -0.0000      Z       1.4761
       Tot       1.4761
    Quadrupole Moments (Debye-Ang)
        XX     -11.2896     XY      -0.0000     YY     -11.2896
        XZ       0.0000     YZ      -0.0000     ZZ      -8.3456
    Octopole Moments (Debye-Ang^2)
       XXX       0.0000    XXY      -0.0000    XYY       0.0000
       YYY      -0.0000    XXZ       0.3108    XYZ       0.0000
       YYZ       0.3108    XZZ       0.0000    YZZ      -0.0000
       ZZZ       1.2898
    Hexadecapole Moments (Debye-Ang^3)
      XXXX     -22.5539   XXXY      -0.0000   XXYY      -7.5180
      XYYY      -0.0000   YYYY     -22.5539   XXXZ      -0.0000
      XXYZ      -0.0000   XYYZ      -0.0000   YYYZ      -0.0000
      XXZZ      -6.5657   XYZZ      -0.0000   YYZZ      -6.5657
      XZZZ      -0.0000   YZZZ      -0.0000   ZZZZ     -15.7978
 -----------------------------------------------------------------
 Total job time:  10.26s(wall), 32.94s(cpu) 
 Fri Mar 11 11:34:35 2022

        *************************************************************
        *                                                           *
        *  Thank you very much for using Q-Chem.  Have a nice day.  *
        *                                                           *
        *************************************************************


