/src/tsommerfeld/qchem/exe/qcprog.exe .input1.166667.20112.qcin.1 /src/jdavis/qchem.scratch/qchem20112/

                  Welcome to Q-Chem
     A Quantum Leap Into The Future Of Chemistry


 Q-Chem 5.4 (devel), Q-Chem, Inc., Pleasanton, CA (2021)

 E. Epifanovsky,  A. T. B. Gilbert,  Xintian Feng,  Joonho Lee,  Yuezhi Mao,  
 N. Mardirossian,  P. Pokhilko,  A. White,  M. Wormit,  M. P. Coons,  
 A. L. Dempwolff,  Zhengting Gan,  D. Hait,  P. R. Horn,  L. D. Jacobson,  
 I. Kaliman,  J. Kussmann,  A. W. Lange,  Ka Un Lao,  D. S. Levine,  Jie Liu,  
 S. C. McKenzie,  A. F. Morrison,  K. Nanda,  F. Plasser,  D. R. Rehn,  
 M. L. Vidal,  Zhi-Qiang You,  Ying Zhu,  B. Alam,  B. Albrecht,  
 A. Aldossary,  E. Alguire,  J. H. Andersen,  D. Barton,  K. Begam,  A. Behn,  
 Y. A. Bernard,  E. J. Berquist,  H. Burton,  A. Carreras,  K. Carter-Fenk,  
 R. Chakraborty,  A. D. Chien,  K. D. Closser,  V. Cofer-Shabica,  
 S. Dasgupta,  Jia Deng,  M. de Wergifosse,  M. Diedenhofen,  Hainam Do,  
 S. Ehlert,  Po-Tung Fang,  S. Fatehi,  Qingguo Feng,  T. Friedhoff,  
 J. Gayvert,  Qinghui Ge,  G. Gidofalvi,  M. Goldey,  J. Gomes,  
 C. Gonzalez-Espinoza,  S. Gulania,  A. Gunina,  M. W. D. Hanson-Heine,  
 P. H. P. Harbach,  A. W. Hauser,  M. F. Herbst,  M. Hernandez Vera,  
 M. Hodecker,  Z. C. Holden,  S. Houck,  Xunkun Huang,  Kerwin Hui,  
 B. C. Huynh,  M. Ivanov,  Hyunjun Ji,  Hanjie Jiang,  B. Kaduk,  S. Kaehler,  
 K. Khistyaev,  Jaehoon Kim,  P. Klunzinger,  Z. Koczor-Benda,  
 Joong Hoon Koh,  D. Kosenkov,  L. Koulias,  T. Kowalczyk,  C. M. Krauter,  
 K. Kue,  A. Kunitsa,  T. Kus,  A. Landau,  K. V. Lawler,  D. Lefrancois,  
 S. Lehtola,  Rain Li,  Yi-Pei Li,  Jiashu Liang,  M. Liebenthal,  
 Hung-Hsuan Lin,  You-Sheng Lin,  Fenglai Liu,  Kuan-Yu Liu,  
 M. Loipersberger,  A. Luenser,  A. Manjanath,  P. Manohar,  E. Mansoor,  
 S. F. Manzer,  Shan-Ping Mao,  A. V. Marenich,  T. Markovich,  S. Mason,  
 S. A. Maurer,  P. F. McLaughlin,  M. F. S. J. Menger,  J.-M. Mewes,  
 S. A. Mewes,  P. Morgante,  J. W. Mullinax,  K. J. Oosterbaan,  G. Paran,  
 Alexander C. Paul,  Suranjan K. Paul,  F. Pavosevic,  Zheng Pei,  S. Prager,  
 E. I. Proynov,  E. Ramos,  B. Rana,  A. E. Rask,  A. Rettig,  R. M. Richard,  
 F. Rob,  E. Rossomme,  T. Scheele,  M. Scheurer,  M. Schneider,  
 N. Sergueev,  S. M. Sharada,  W. Skomorowski,  D. W. Small,  C. J. Stein,  
 Yu-Chuan Su,  E. J. Sundstrom,  Zhen Tao,  J. Thirman,  T. Tsuchimochi,  
 N. M. Tubman,  S. P. Veccham,  O. Vydrov,  J. Wenzel,  J. Witte,  A. Yamada,  
 Kun Yao,  S. Yeganeh,  S. R. Yost,  A. Zech,  Igor Ying Zhang,  Xing Zhang,  
 Yu Zhang,  D. Zuev,  A. Aspuru-Guzik,  A. T. Bell,  N. A. Besley,  
 K. B. Bravaya,  B. R. Brooks,  D. Casanova,  Jeng-Da Chai,  S. Coriani,  
 C. J. Cramer,  A. E. DePrince, III,  R. A. DiStasio Jr.,  A. Dreuw,  
 B. D. Dunietz,  T. R. Furlani,  W. A. Goddard III,  S. Grimme,  
 S. Hammes-Schiffer,  T. Head-Gordon,  W. J. Hehre,  Chao-Ping Hsu,  
 T.-C. Jagau,  Yousung Jung,  A. Klamt,  Jing Kong,  D. S. Lambrecht,  
 WanZhen Liang,  N. J. Mayhall,  C. W. McCurdy,  J. B. Neaton,  
 C. Ochsenfeld,  J. A. Parkhill,  R. Peverati,  V. A. Rassolov,  Yihan Shao,  
 L. V. Slipchenko,  T. Stauch,  R. P. Steele,  J. E. Subotnik,  
 A. J. W. Thom,  A. Tkatchenko,  D. G. Truhlar,  T. Van Voorhis,  
 T. A. Wesolowski,  K. B. Whaley,  H. L. Woodcock III,  P. M. Zimmerman,  
 S. Faraji,  P. M. W. Gill,  M. Head-Gordon,  J. M. Herbert,  A. I. Krylov

 Additional authors for Version 5.4.1: 
 S. Kotaru,  Shaozhi Li,  Xiangyuan Li,  F. Matz,  A. Molle,  Haisheng Ren,  
 Yingli Su,  Hung-Yi Tsai,  C. Utku,  Fang Wang

 Contributors to earlier versions of Q-Chem not listed above: 
 R. D. Adamson,  B. Austin,  R. Baer,  J. Baker,  G. J. O. Beran,  
 K. Brandhorst,  S. T. Brown,  E. F. C. Byrd,  A. K. Chakraborty,  
 G. K. L. Chan,  Chun-Min Chang,  Yunqing Chen,  C.-L. Cheng,  
 Siu Hung Chien,  D. M. Chipman,  D. L. Crittenden,  H. Dachsel,  
 R. J. Doerksen,  A. D. Dutoi,  R. G. Edgar,  J. Fosso-Tande,  
 L. Fusti-Molnar,  D. Ghosh,  A. Ghysels,  A. Golubeva-Zadorozhnaya,  
 J. Gonthier,  M. S. Gordon,  S. R. Gwaltney,  G. Hawkins,  J. E. Herr,  
 A. Heyden,  S. Hirata,  E. G. Hohenstein,  G. Kedziora,  F. J. Keil,  
 C. Kelley,  Jihan Kim,  R. A. King,  R. Z. Khaliullin,  P. P. Korambath,  
 W. Kurlancheek,  A. Laurent,  A. M. Lee,  M. S. Lee,  S. V. Levchenko,  
 Ching Yeh Lin,  D. Liotard,  E. Livshits,  R. C. Lochan,  I. Lotan,  
 L. A. Martinez-Martinez,  P. E. Maslen,  N. Nair,  D. P. O'Neill,  
 D. Neuhauser,  E. Neuscamman,  C. M. Oana,  R. Olivares-Amaya,  R. Olson,  
 T. M. Perrine,  B. Peters,  P. A. Pieniazek,  A. Prociuk,  Y. M. Rhee,  
 J. Ritchie,  M. A. Rohrdanz,  E. Rosta,  N. J. Russ,  H. F. Schaefer III,  
 M. W. Schmidt,  N. E. Schultz,  S. Sharma,  N. Shenvi,  C. D. Sherrill,  
 A. C. Simmonett,  A. Sodt,  T. Stein,  D. Stuck,  K. S. Thanthiriwatte,  
 V. Vanovschi,  L. Vogt,  Tao Wang,  A. Warshel,  M. A. Watson,  
 C. F. Williams,  Q. Wu,  X. Xu,  Jun Yang,  W. Zhang,  Yan Zhao

 Please cite Q-Chem as follows:
 Y. Shao et al., Mol. Phys. 113, 184-215 (2015)
 DOI: 10.1080/00268976.2014.952696

 Q-Chem 5.4.1 for Intel X86 EM64T Linux

 Parts of Q-Chem use Armadillo 9.900.5 (Nocturnal Misbehaviour).
 http://arma.sourceforge.net/

 Q-Chem begins on Sat Mar 26 16:09:17 2022  

 Host: node01
0

     Scratch files written to /src/jdavis/qchem.scratch/qchem20112//
 Processing $rem in /src/tsommerfeld/qchem/config/preferences:
 Processing $rem in /home/jdavis/.qchemrc:

 Checking the input file for inconsistencies... 	...done.

--------------------------------------------------------------
User input:
--------------------------------------------------------------
$molecule
-1 1
C         0.0000000000    0.0000000000    0.8417902907
C         0.0000000000    0.0000000000   -0.4872097093
H         0.9623488518    0.0000000000    1.3363703127
H         0.9623489048    0.0000000000   -0.9817896873
H        -0.9623488518    0.0000000000    1.3363703127
H        -0.9623489048    0.0000000000   -0.9817896873
H         0.0000000000    0.0000000000   -10.4872097093
$end

$rem
   METHOD adc(3)
   BASIS gen
   PURECART 11
   EE_STATES [0,0,0,10]
   scf_convergence 8
   ADC_DAVIDSON_MAXITER 120
   ADC_DAVIDSON_MAXSUBSPACE 200
   adc_nguess_singles 100
   THRESH 14
   S2THRESH 14
   adc_davidson_conv 5
   adc_davidson_thresh 14
   THREADS 10
   MEM_TOTAL 95000
   STATE_ANALYSIS TRUE
$end
$basis
C 1
S   9   1.00
      6.665000D+03           6.920000D-04
      1.000000D+03           5.329000D-03
      2.280000D+02           2.707700D-02
      6.471000D+01           1.017180D-01
      2.106000D+01           2.747400D-01
      7.495000D+00           4.485640D-01
      2.797000D+00           2.850740D-01
      5.215000D-01           1.520400D-02
      1.596000D-01          -3.191000D-03
S   9   1.00
      6.665000D+03          -1.460000D-04
      1.000000D+03          -1.154000D-03
      2.280000D+02          -5.725000D-03
      6.471000D+01          -2.331200D-02
      2.106000D+01          -6.395500D-02
      7.495000D+00          -1.499810D-01
      2.797000D+00          -1.272620D-01
      5.215000D-01           5.445290D-01
      1.596000D-01           5.804960D-01
S   1   1.00
      1.596000D-01           1.000000D+00
S   1   1.00
      0.0469000              1.0000000
P   4   1.00
      9.439000D+00           3.810900D-02
      2.002000D+00           2.094800D-01
      5.456000D-01           5.085570D-01
      1.517000D-01           4.688420D-01
P   1   1.00
      1.517000D-01           1.000000D+00
P   1   1.00
      0.0707933      1.0000000
P   1   1.00
      0.0353967      1.0000000
D   1   1.00
      5.500000D-01           1.0000000
****
C 2
S   9   1.00
      6.665000D+03           6.920000D-04
      1.000000D+03           5.329000D-03
      2.280000D+02           2.707700D-02
      6.471000D+01           1.017180D-01
      2.106000D+01           2.747400D-01
      7.495000D+00           4.485640D-01
      2.797000D+00           2.850740D-01
      5.215000D-01           1.520400D-02
      1.596000D-01          -3.191000D-03
S   9   1.00
      6.665000D+03          -1.460000D-04
      1.000000D+03          -1.154000D-03
      2.280000D+02          -5.725000D-03
      6.471000D+01          -2.331200D-02
      2.106000D+01          -6.395500D-02
      7.495000D+00          -1.499810D-01
      2.797000D+00          -1.272620D-01
      5.215000D-01           5.445290D-01
      1.596000D-01           5.804960D-01
S   1   1.00
      1.596000D-01           1.000000D+00
S   1   1.00
      0.0469000              1.0000000
P   4   1.00
      9.439000D+00           3.810900D-02
      2.002000D+00           2.094800D-01
      5.456000D-01           5.085570D-01
      1.517000D-01           4.688420D-01
P   1   1.00
      1.517000D-01           1.000000D+00
P   1   1.00
      0.0707933      1.0000000
P   1   1.00
      0.0353967      1.0000000
D   1   1.00
      5.500000D-01           1.0000000
****
H 3
cc-pVDZ
****
H 4
cc-pVDZ
****
H 5
cc-pVDZ
****
H 6
cc-pVDZ
****
H 7
aug-cc-pVDZ
****
$end
--------------------------------------------------------------
 ----------------------------------------------------------------
             Standard Nuclear Orientation (Angstroms)
    I     Atom           X                Y                Z
 ----------------------------------------------------------------
    1      C       0.0000000000     0.0000000000     1.2918235242
    2      C       0.0000000000     0.0000000000    -0.0371764758
    3      H       0.9623488518     0.0000000000     1.7864035462
    4      H       0.9623489048     0.0000000000    -0.5317564538
    5      H      -0.9623488518     0.0000000000     1.7864035462
    6      H      -0.9623489048     0.0000000000    -0.5317564538
    7      H       0.0000000000     0.0000000000   -10.0371764758
 ----------------------------------------------------------------
 Molecular Point Group                 C2v   NOp =  4
 Largest Abelian Subgroup              C2v   NOp =  4
 Nuclear Repulsion Energy =          34.38697142 hartrees
 There are        9 alpha and        9 beta electrons
 Requested basis set is non-standard
 There are 33 shells and 67 basis functions
 Total memory of 95000 MB is distributed as follows: 
   MEM_STATIC is set to 192 MB
   QALLOC/CCMAN JOB total memory use is  94808 MB
 Warning: actual memory use might exceed 95000 MB

 Total QAlloc Memory Limit  95000 MB
 Mega-Array Size       188 MB
 MEM_STATIC part       192 MB

                       Distance Matrix (Angstroms)
             C (  1)   C (  2)   H (  3)   H (  4)   H (  5)   H (  6)
   C (  2)  1.329000
   H (  3)  1.082000  2.061931
   H (  4)  2.061931  1.082000  2.318160
   H (  5)  1.082000  2.061931  1.924698  3.013026
   H (  6)  2.061931  1.082000  3.013026  1.924698  2.318160
   H (  7) 11.329000 10.000000 11.862679  9.554011 11.862679  9.554011

 
 A cutoff of  1.0D-14 yielded    494 shell pairs
 There are      2098 function pairs (      2235 Cartesian)
 Smallest overlap matrix eigenvalue = 2.57E-04

 Scale SEOQF with 1.000000e-01/1.000000e-01/1.000000e-02

 Standard Electronic Orientation quadrupole field applied
 Nucleus-field energy     =    -0.0000000011 hartrees
 ================ Generating on-the-fly SAD Guess ================
Attempting to make child job directory: /src/jdavis/qchem.scratch/qchem20112//Frg1/
Attempting to make child job directory: /src/jdavis/qchem.scratch/qchem20112//Frg2/
Creating input file /src/jdavis/qchem.scratch/qchem20112/Frg1.input
using default PutDataFrgm: nothing
calling putenv with: QCSCRATCH=/src/jdavis/qchem.scratch/qchem20112/ 
Spawning Job For Fragment 0
Done Job For Fragment 0
calling putenv with: QCSCRATCH=/src/jdavis/qchem.scratch 
calling putenv with: QCTHREADS=1 
Creating input file /src/jdavis/qchem.scratch/qchem20112/Frg2.input
using default PutDataFrgm: nothing
calling putenv with: QCSCRATCH=/src/jdavis/qchem.scratch/qchem20112/ 
Spawning Job For Fragment 1
Done Job For Fragment 1
calling putenv with: QCSCRATCH=/src/jdavis/qchem.scratch 
calling putenv with: QCTHREADS=1 
 Time for running child jobs:  CPU 1.76 s  wall 54.39 s
 ============= Method Specific SAD Guess Constructed =============
 Guess from on-the-fly superposition of atomic densities
 Warning: Energy on first SCF cycle will be non-variational
 A restricted Hartree-Fock SCF calculation will be
 performed using Pulay DIIS extrapolation
 SCF converges when DIIS error is below 1.0E-08
 using 10 threads for integral computing
 -------------------------------------------------------
 OpenMP Integral computing Module                
 Release: version 1.0, May 2013, Q-Chem Inc. Pittsburgh 
 -------------------------------------------------------
 ---------------------------------------
  Cycle       Energy         DIIS Error
 ---------------------------------------
    1     -78.8007268998      7.36E-02
    2     -78.4466441276      6.48E-03
    3     -78.4845938849      1.48E-03
    4     -78.4865316550      4.79E-04
    5     -78.4867073783      7.71E-05
    6     -78.4867157067      1.81E-05
    7     -78.4867161784      8.84E-06
    8     -78.4867162762      1.72E-06
    9     -78.4867162834      5.64E-07
   10     -78.4867162841      1.16E-07
   11     -78.4867162842      1.34E-08
   12     -78.4867162842      3.18E-09 Convergence criterion met
 ---------------------------------------
 SCF time:  CPU 11.67 s  wall 1.17 s
 SCF   energy in the final basis set = -78.48671628
 Total energy in the final basis set = -78.48671628
================================================================================
|                                                                              |
|                                 A D C  M A N                                 |
|                                                                              |
 ------------------------------------------------------------------------------ 
|                                                                              |
| Components:                                                                  |
|                                                                              |
| - libvmm - 1.3-trunk                                                         |
|   Authors:                                                                   |
|   Evgeny Epifanovsky, Ilya Kaliman                                           |
|                                                                              |
| - libtensor - 2.5-trunk                                                      |
|   Authors:                                                                   |
|   Evgeny Epifanovsky, Michael Wormit, Dmitry Zuev, Sam Manzer,               |
|   Ilya Kaliman                                                               |
|                                                                              |
| - libwfa - 1.1-trunk                                                         |
|   Authors:                                                                   |
|   Felix Plasser, Stefanie Mewes (Baeppler), Benjamin Thomitzni,              |
|   Michael Wormit, Feng Chen, Anna I. Krylov, Pavel Pokhilko                  |
|                                                                              |
| - libadc - 1.1-trunk                                                         |
|   Authors:                                                                   |
|   Michael Wormit, Adrian L. Dempwolff, Philipp H. P. Harbach,                |
|   Caroline Krauter, Dirk Rehn, Matthias Schneider, Jan Wenzel                |
|                                                                              |
| - adcman - 2.6-trunk                                                         |
|   Authors:                                                                   |
|   Michael Wormit, Adrian L. Dempwolff, Philipp H. P. Harbach,                |
|   Caroline Krauter, Daniel Lefrancois, Jan-Michael Mewes, Dirk Rehn,         |
|   Matthias Schneider, Jan Wenzel, Andreas Dreuw                              |
|                                                                              |
| Authors of earlier versions of ADCMAN:                                       |
| Andreas Dreuw, Jan Hendrik Starcke, Dirk Rehn, Michael Wormit                |
|                                                                              |
================================================================================

 
 Alpha MOs, Restricted
 -- Occupied --                  
-11.187 -11.185  -0.992  -0.732  -0.611  -0.517  -0.465  -0.327
  1 A1    2 A1    3 A1    4 A1    1 B1    5 A1    2 B1    1 B2                 
  0.022
  6 A1                                                                         
 -- Virtual --                   
  0.109   0.120   0.128   0.144   0.145   0.152   0.178   0.221
  7 A1    3 B1    2 B2    3 B2    8 A1    4 B1    9 A1    4 B2                 
  0.255   0.312   0.338   0.351   0.367   0.368   0.368   0.390
 10 A1   11 A1    5 B1   12 A1   13 A1    6 B1    5 B2    7 B1                 
  0.419   0.451   0.604   0.659   0.874   0.906   0.965   0.983
 14 A1    6 B2    8 B1   15 A1   16 A1    9 B1   17 A1   18 A1                 
  1.036   1.058   1.088   1.093   1.111   1.155   1.164   1.164
 10 B1   19 A1   11 B1   20 A1    7 B2    8 B2    1 A2   21 A1                 
  1.319   1.334   1.337   1.461   1.668   1.691   1.774   1.920
 22 A1    2 A2    9 B2   12 B1   23 A1   13 B1   14 B1   10 B2                 
  1.967   1.967   1.967   1.993   2.003   2.067   2.106   2.138
 24 A1   15 B1   11 B2   12 B2   25 A1    3 A2   26 A1   16 B1                 
  2.229   2.376   2.462   2.516   2.627   2.631   2.869   2.877
 13 B2   27 A1    4 A2   28 A1   29 A1   17 B1   18 B1   30 A1                 
  3.302   3.389
 31 A1   19 B1                                                                 
 
 Beta MOs, Restricted
 -- Occupied --                  
-11.187 -11.185  -0.992  -0.732  -0.611  -0.517  -0.465  -0.327
  1 A1    2 A1    3 A1    4 A1    1 B1    5 A1    2 B1    1 B2                 
  0.022
  6 A1                                                                         
 -- Virtual --                   
  0.109   0.120   0.128   0.144   0.145   0.152   0.178   0.221
  7 A1    3 B1    2 B2    3 B2    8 A1    4 B1    9 A1    4 B2                 
  0.255   0.312   0.338   0.351   0.367   0.368   0.368   0.390
 10 A1   11 A1    5 B1   12 A1   13 A1    6 B1    5 B2    7 B1                 
  0.419   0.451   0.604   0.659   0.874   0.906   0.965   0.983
 14 A1    6 B2    8 B1   15 A1   16 A1    9 B1   17 A1   18 A1                 
  1.036   1.058   1.088   1.093   1.111   1.155   1.164   1.164
 10 B1   19 A1   11 B1   20 A1    7 B2    8 B2    1 A2   21 A1                 
  1.319   1.334   1.337   1.461   1.668   1.691   1.774   1.920
 22 A1    2 A2    9 B2   12 B1   23 A1   13 B1   14 B1   10 B2                 
  1.967   1.967   1.967   1.993   2.003   2.067   2.106   2.138
 24 A1   15 B1   11 B2   12 B2   25 A1    3 A2   26 A1   16 B1                 
  2.229   2.376   2.462   2.516   2.627   2.631   2.869   2.877
 13 B2   27 A1    4 A2   28 A1   29 A1   17 B1   18 B1   30 A1                 
  3.302   3.389
 31 A1   19 B1                                                                 

--------------------------------------------------------------------------------
                                   HF Summary                                   
--------------------------------------------------------------------------------
  Energy:                                                  -78.4867162842 a.u.
  Dip. moment [a.u.]:                  [  -0.000000,    0.000000,   18.880564]
  Total dipole [Debye]:                                              47.989617
  <r^2> [a.u.]:                        [  25.066717,   14.940238,  792.842100]
  Total <r^2> [a.u.]:                                               832.849054
--------------------------------------------------------------------------------

--------------------------------------------------------------------------------
                                 MP(2) Summary                                  
--------------------------------------------------------------------------------
  MP energy contribution:                                   -0.2987985061 a.u.
  Total energy:                                            -78.7855147903 a.u.
  Dip. moment [a.u.]:                  [   0.000000,    0.000000,   18.886321]
  Total dipole [Debye]:                                              48.004248
  <r^2> [a.u.]:                        [  25.055268,   14.748436,  792.891698]
  Total <r^2> [a.u.]:                                               832.695402

  Density matrix analysis:
  ------------------------
  NOs
    Occupation of frontier NOs:
       0.0447   1.9371
    Number of electrons: 18.000000
    Number of unpaired electrons: n_u =  0.43213, n_u,nl =  0.04675
    NO participation ratio (PR_NO): 15.331354
  
  
  Mulliken Population Analysis
  Atom      Charge (e)              h+              e-           Del q
  --------------------------------------------------------------------
   1 C       -0.199913        0.090318       -0.101595       -0.011277
   2 C       -0.193417        0.085100       -0.103481       -0.018381
   3 H        0.091803        0.018005       -0.010555        0.007450
   4 H        0.104830        0.017764       -0.010386        0.007378
   5 H        0.091803        0.018005       -0.010555        0.007450
   6 H        0.104830        0.017764       -0.010386        0.007378
   7 H       -0.999935        0.021957       -0.021953        0.000004
  --------------------------------------------------------------------
  Sum:       -1.000000        0.268912       -0.268912        0.000000
  
  Multipole moment analysis of the density matrix
    Molecular charge:                      -1.000000
    Number of electrons:                   18.000000
      Center of electronic charge [Ang]: [ -0.000000,  -0.000000,  -0.555234]
    Total nuclear charge:                  17.000000
      Center of nuclear charge [Ang]:    [ -0.000000,   0.000000,  -0.000000]
    Dipole moment [D]:                     48.004234
      Cartesian components [D]:          [  0.000000,   0.000000,  48.004234]
    RMS size of the density [Ang]:         3.556132
      Cartesian components [Ang]:        [  0.624330,   0.479003,   3.467974]
  
  Exciton analysis of the difference density matrix
    <r_h> [Ang]:                  [  0.000000,   0.000000,  -0.231132]
    <r_e> [Ang]:                  [ -0.000000,  -0.000000,  -0.242459]
    |<r_e - r_h>| [Ang]:            0.011328
    Hole size [Ang]:                3.250826
      Cartesian components [Ang]: [  0.734164,   0.754331,   3.075688]
    Electron size [Ang]:            3.225291
      Cartesian components [Ang]: [  0.725999,   0.607688,   3.083203]
--------------------------------------------------------------------------------

--------------------------------------------------------------------------------
                                 MP(3) Summary                                  
--------------------------------------------------------------------------------
  MP energy contribution:                                   -0.0281779394 a.u.
  Total energy:                                            -78.8136927297 a.u.
--------------------------------------------------------------------------------
  Starting Davidson for singlet states of irrep B2 ... 
--------------------------------------------------------------------------------
   It NVec Conv  Avg. Norm  Max. Norm  Conv. states           Remark
--------------------------------------------------------------------------------
       100    0  9.312e-02  4.277e-01  0.0793 n n n n n n n n Guess.
    1  110    0  1.936e-02  9.369e-02  0.0483 n n n n n n n n 
    2  120    0  2.024e-02  1.646e-01  0.0479 n n n n n n n n 
    3  130    0  2.344e-02  1.357e-01  0.0479 n n n n n n n n 
    4  140    0  1.645e-02  1.156e-01  0.0479 n n n n n n n n 
    5  150    0  9.945e-03  7.897e-02  0.0479 n n n n n n n n 
    6  160    0  3.693e-03  2.714e-02  0.0479 n n n n n n n n 
    7  170    2  1.420e-03  9.872e-03  0.0479 y y n n n n n n 
    8  180    3  5.638e-04  4.026e-03  0.0479 y y y n n n n n 
    9  190    3  2.353e-04  1.824e-03  0.0479 y y y n n n n n 
   10  200    3  9.402e-05  7.538e-04  0.0479 y y y n n n n n 
   11   20    5  3.395e-05  2.709e-04  0.0479 y y y y y n n n Subspace collapsed.
   12   30    5  1.725e-05  1.406e-04  0.0479 y y y y y n n n 
   13   40    7  8.941e-06  7.415e-05  0.0479 y y y y y y n n 
   14   50    8  5.832e-06  4.904e-05  0.0479 y y y y y y n y 
   15   60    8  3.757e-06  3.076e-05  0.0479 y y y y y y n y 
   16   70    9  1.908e-06  1.501e-05  0.0479 y y y y y y n y 
   17   80   10  9.742e-07  6.702e-06  0.0479 y y y y y y y y Converged.
--------------------------------------------------------------------------------
  Davidson Summary: 
 ------------------------------------------------------------
  State  0: excitation energy =   0.0479 a.u.   (converged)
  State  1: excitation energy =   0.0491 a.u.   (converged)
  State  2: excitation energy =   0.1091 a.u.   (converged)
  State  3: excitation energy =   0.2036 a.u.   (converged)
  State  4: excitation energy =   0.2057 a.u.   (converged)
  State  5: excitation energy =   0.2658 a.u.   (converged)
  State  6: excitation energy =   0.2788 a.u.   (converged)
  State  7: excitation energy =   0.2799 a.u.   (converged)
  State  8: excitation energy =   0.2803 a.u.   (converged)
  State  9: excitation energy =   0.2963 a.u.   (converged)
 ------------------------------------------------------------


--------------------------------------------------------------------------------
                   State-averaged natural transition orbitals
--------------------------------------------------------------------------------
--------------------------------------------------------------------------------

--------------------------------------------------------------------------------
                             Excited State Summary
--------------------------------------------------------------------------------
--------------------------------------------------------------------------------

  Excited state 1 (singlet, B2)                                    [converged]
  ----------------------------------------------------------------------------
  Term symbol:  1 (1) B2                                    R^2 =  3.00019e-12

  Total energy:                                            -78.7657822283 a.u.
  Excitation energy:                                               1.303711 eV

  Osc. strength:                                                      0.000000
  Trans. dip. moment [a.u.]:           [  -0.000000,    0.001621,    0.000000]
  <i|r^2|0> [a.u.]:                    [  -0.000000,   -0.000000,    0.000000]

  Dip. moment [a.u.]:                  [   0.000000,   -0.000000,   -1.170809]
  Total dipole [Debye]:                                               2.975900
  <r^2> [a.u.]:                        [  34.072333,   45.074390,  444.121836]
  Total <r^2> [a.u.]:                                               523.268559

  V1^2 = 0.9542, V2^2 = 0.0458

  Important amplitudes:
      occ i      occ j       vir a       vir b          v   
    ---------------------------------------------------------
     6 (A1) A               2 (B2) A                 -0.6176
     6 (A1) A               3 (B2) A                 -0.3074
    ---------------------------------------------------------

  Density matrix analysis:
  ------------------------
  NOs
    Occupation of frontier NOs:
       0.9938   1.0027
    Number of electrons: 18.000000
    Number of unpaired electrons: n_u =  2.41430, n_u,nl =  2.04965
    NO participation ratio (PR_NO):  2.921560
  
  
  Mulliken Population Analysis
  Atom      Charge (e)              h+              e-           Del q
  --------------------------------------------------------------------
   1 C       -0.649694        0.042692       -0.492473       -0.449781
   2 C       -0.662988        0.034179       -0.503751       -0.469571
   3 H        0.077887       -0.001973       -0.011942       -0.013915
   4 H        0.078453       -0.001053       -0.025324       -0.026377
   5 H        0.077887       -0.001973       -0.011942       -0.013915
   6 H        0.078453       -0.001053       -0.025324       -0.026377
   7 H        0.000002        1.061356       -0.061420        0.999937
  --------------------------------------------------------------------
  Sum:       -1.000000        1.132176       -1.132176        0.000000
  
  Multipole moment analysis of the density matrix
    Molecular charge:                      -1.000000
    Number of electrons:                   18.000000
      Center of electronic charge [Ang]: [ -0.000000,   0.000000,   0.034420]
    Total nuclear charge:                  17.000000
      Center of nuclear charge [Ang]:    [ -0.000000,   0.000000,  -0.000000]
    Dipole moment [D]:                     2.975899
      Cartesian components [D]:          [  0.000000,  -0.000000,  -2.975899]
    RMS size of the density [Ang]:         2.852959
      Cartesian components [Ang]:        [  0.728058,   0.837394,   2.628323]
  
  Exciton analysis of the difference density matrix
    <r_h> [Ang]:                  [ -0.000000,   0.000000,  -9.376293]
    <r_e> [Ang]:                  [ -0.000000,   0.000000,  -0.001625]
    |<r_e - r_h>| [Ang]:            9.374668
    Hole size [Ang]:                2.862829
      Cartesian components [Ang]: [  0.735237,   0.733142,   2.667905]
    Electron size [Ang]:            4.424715
      Cartesian components [Ang]: [  1.664579,   2.835174,   2.961261]

  Transition density matrix analysis:
  -----------------------------------
  
  CT numbers (Mulliken)
    omega =     0.9480
    <Phe> =     0.0001
  
  Exciton analysis of the transition density matrix
    Trans. dipole moment [D]:             0.002061
      Cartesian components [D]:         [ -0.000000,   0.002061,   0.000000]
    <r_h> [Ang]:                        [ -0.000000,  -0.000000, -10.036390]
    <r_e> [Ang]:                        [  0.000000,   0.000000,   0.615670]
    |<r_e - r_h>| [Ang]:                 10.652060
    Hole size [Ang]:                      1.117577
      Cartesian components [Ang]:       [  0.643332,   0.643349,   0.649001]
    Electron size [Ang]:                  3.906840
      Cartesian components [Ang]:       [  1.737418,   3.009408,   1.785564]
    RMS electron-hole separation [Ang]:  11.401310
      Cartesian components [Ang]:       [  1.852701,   3.077403,  10.820673]
    Covariance(r_h, r_e) [Ang^2]:        -0.005561
    Correlation coefficient:             -0.001274
    Center-of-mass size [Ang]:            2.031087
      Cartesian components [Ang]:       [  0.926350,   1.538705,   0.948459]

  Decomposition into state-averaged NTOs
    H- 0 -> L+ 1:  0.4875 ( 47.5%)
    H- 0 -> L+ 0:  0.4712 ( 44.4%)
    H- 0 -> L+ 5:  0.1195 (  2.9%)
                   omega =  94.8%
  ----------------------------------------------------------------------------


  Excited state 2 (singlet, B2)                                    [converged]
  ----------------------------------------------------------------------------
  Term symbol:  2 (1) B2                                    R^2 =  3.91694e-12

  Total energy:                                            -78.7646386974 a.u.
  Excitation energy:                                               1.334828 eV

  Osc. strength:                                                      0.000004
  Trans. dip. moment [a.u.]:           [   0.000000,   -0.010891,   -0.000000]
  <i|r^2|0> [a.u.]:                    [   0.000000,    0.000000,   -0.000000]

  Dip. moment [a.u.]:                  [   0.000000,   -0.000000,   -1.201477]
  Total dipole [Debye]:                                               3.053851
  <r^2> [a.u.]:                        [  29.638263,   30.483273,  451.024799]
  Total <r^2> [a.u.]:                                               511.146334

  V1^2 = 0.9327, V2^2 = 0.0673

  Important amplitudes:
      occ i      occ j       vir a       vir b          v   
    ---------------------------------------------------------
     6 (A1) A               3 (B2) A                  0.6003
     6 (A1) A               2 (B2) A                 -0.2920
    ---------------------------------------------------------

  Density matrix analysis:
  ------------------------
  NOs
    Occupation of frontier NOs:
       0.9859   1.0016
    Number of electrons: 18.000000
    Number of unpaired electrons: n_u =  2.42927, n_u,nl =  2.05085
    NO participation ratio (PR_NO):  2.977215
  
  
  Mulliken Population Analysis
  Atom      Charge (e)              h+              e-           Del q
  --------------------------------------------------------------------
   1 C       -0.643308        0.116295       -0.559690       -0.443394
   2 C       -0.634676        0.110396       -0.551654       -0.441259
   3 H        0.069417        0.004888       -0.027274       -0.022386
   4 H        0.069573        0.004980       -0.040236       -0.035257
   5 H        0.069417        0.004888       -0.027274       -0.022386
   6 H        0.069573        0.004980       -0.040236       -0.035257
   7 H        0.000003        1.057446       -0.057508        0.999938
  --------------------------------------------------------------------
  Sum:       -1.000000        1.303872       -1.303872       -0.000000
  
  Multipole moment analysis of the density matrix
    Molecular charge:                      -1.000000
    Number of electrons:                   18.000000
      Center of electronic charge [Ang]: [ -0.000000,   0.000000,   0.035322]
    Total nuclear charge:                  17.000000
      Center of nuclear charge [Ang]:    [ -0.000000,   0.000000,  -0.000000]
    Dipole moment [D]:                     3.053850
      Cartesian components [D]:          [  0.000000,  -0.000000,  -3.053850]
    RMS size of the density [Ang]:         2.819703
      Cartesian components [Ang]:        [  0.679034,   0.688645,   2.648662]
  
  Exciton analysis of the difference density matrix
    <r_h> [Ang]:                  [ -0.000000,   0.000000,  -8.028187]
    <r_e> [Ang]:                  [ -0.000000,   0.000000,   0.124455]
    |<r_e - r_h>| [Ang]:            8.152642
    Hole size [Ang]:                4.392123
      Cartesian components [Ang]: [  0.776221,   0.818331,   4.244827]
    Electron size [Ang]:            3.830009
      Cartesian components [Ang]: [  1.259680,   2.012209,   3.005526]

  Transition density matrix analysis:
  -----------------------------------
  
  CT numbers (Mulliken)
    omega =     0.9209
    <Phe> =     0.0000
  
  Exciton analysis of the transition density matrix
    Trans. dipole moment [D]:             0.013841
      Cartesian components [D]:         [  0.000000,  -0.013841,  -0.000000]
    <r_h> [Ang]:                        [ -0.000000,  -0.000000, -10.036907]
    <r_e> [Ang]:                        [ -0.000000,   0.000000,   0.626679]
    |<r_e - r_h>| [Ang]:                 10.663586
    Hole size [Ang]:                      1.114926
      Cartesian components [Ang]:       [  0.643247,   0.643245,   0.644614]
    Electron size [Ang]:                  3.385598
      Cartesian components [Ang]:       [  1.267476,   2.189092,   2.250257]
    RMS electron-hole separation [Ang]:  11.243553
      Cartesian components [Ang]:       [  1.421359,   2.281635,  10.917480]
    Covariance(r_h, r_e) [Ang^2]:        -0.000042
    Correlation coefficient:             -0.000011
    Center-of-mass size [Ang]:            1.782221
      Cartesian components [Ang]:       [  0.710680,   1.140824,   1.170371]

  Decomposition into state-averaged NTOs
    H- 0 -> L+ 0: -0.3974 ( 31.6%)
    H- 0 -> L+ 4:  0.3946 ( 31.1%)
    H- 0 -> L+ 1:  0.3831 ( 29.4%)
                   omega =  92.1%
  ----------------------------------------------------------------------------


  Excited state 3 (singlet, B2)                                    [converged]
  ----------------------------------------------------------------------------
  Term symbol:  3 (1) B2                                    R^2 =  3.18522e-11

  Total energy:                                            -78.7045979521 a.u.
  Excitation energy:                                               2.968620 eV

  Osc. strength:                                                      0.000011
  Trans. dip. moment [a.u.]:           [   0.000000,   -0.012250,   -0.000000]
  <i|r^2|0> [a.u.]:                    [   0.000000,    0.000000,   -0.000000]

  Dip. moment [a.u.]:                  [   0.000000,    0.000000,   -1.185605]
  Total dipole [Debye]:                                               3.013508
  <r^2> [a.u.]:                        [  30.214532,   31.261845,  451.303985]
  Total <r^2> [a.u.]:                                               512.780362

  V1^2 = 0.8944, V2^2 = 0.1056

  Important amplitudes:
      occ i      occ j       vir a       vir b          v   
    ---------------------------------------------------------
     6 (A1) A               4 (B2) A                 -0.6434
     6 (A1) A               3 (B2) A                  0.1390
    ---------------------------------------------------------

  Density matrix analysis:
  ------------------------
  NOs
    Occupation of frontier NOs:
       0.9681   0.9998
    Number of electrons: 18.000000
    Number of unpaired electrons: n_u =  2.48707, n_u,nl =  2.07304
    NO participation ratio (PR_NO):  3.161146
  
  
  Mulliken Population Analysis
  Atom      Charge (e)              h+              e-           Del q
  --------------------------------------------------------------------
   1 C       -0.594028        0.163135       -0.557249       -0.394114
   2 C       -0.598473        0.173832       -0.578888       -0.405056
   3 H        0.047794        0.005991       -0.050000       -0.044009
   4 H        0.048455        0.006165       -0.062541       -0.056375
   5 H        0.047794        0.005991       -0.050000       -0.044009
   6 H        0.048455        0.006165       -0.062541       -0.056375
   7 H        0.000004        1.051891       -0.051952        0.999939
  --------------------------------------------------------------------
  Sum:       -1.000000        1.413171       -1.413171        0.000000
  
  Multipole moment analysis of the density matrix
    Molecular charge:                      -1.000000
    Number of electrons:                   18.000000
      Center of electronic charge [Ang]: [ -0.000000,  -0.000000,   0.034855]
    Total nuclear charge:                  17.000000
      Center of nuclear charge [Ang]:    [ -0.000000,   0.000000,  -0.000000]
    Dipole moment [D]:                     3.013507
      Cartesian components [D]:          [  0.000000,   0.000000,  -3.013507]
    RMS size of the density [Ang]:         2.824213
      Cartesian components [Ang]:        [  0.685603,   0.697384,   2.649488]
  
  Exciton analysis of the difference density matrix
    <r_h> [Ang]:                  [ -0.000000,   0.000000,  -7.326767]
    <r_e> [Ang]:                  [ -0.000000,  -0.000000,   0.189382]
    |<r_e - r_h>| [Ang]:            7.516150
    Hole size [Ang]:                4.831211
      Cartesian components [Ang]: [  0.766602,   0.808908,   4.700913]
    Electron size [Ang]:            3.686886
      Cartesian components [Ang]: [  1.268865,   1.981556,   2.838405]

  Transition density matrix analysis:
  -----------------------------------
  
  CT numbers (Mulliken)
    omega =     0.8803
    <Phe> =     0.0000
  
  Exciton analysis of the transition density matrix
    Trans. dipole moment [D]:             0.015568
      Cartesian components [D]:         [  0.000000,  -0.015568,  -0.000000]
    <r_h> [Ang]:                        [ -0.000000,  -0.000000, -10.036906]
    <r_e> [Ang]:                        [ -0.000000,  -0.000000,   0.622602]
    |<r_e - r_h>| [Ang]:                 10.659508
    Hole size [Ang]:                      1.114731
      Cartesian components [Ang]:       [  0.643130,   0.643129,   0.644511]
    Electron size [Ang]:                  3.423476
      Cartesian components [Ang]:       [  1.285413,   2.216822,   2.270155]
    RMS electron-hole separation [Ang]:  11.251134
      Cartesian components [Ang]:       [  1.437325,   2.308222,  10.917611]
    Covariance(r_h, r_e) [Ang^2]:        -0.000046
    Correlation coefficient:             -0.000012
    Center-of-mass size [Ang]:            1.800189
      Cartesian components [Ang]:       [  0.718663,   1.154116,   1.179924]

  Decomposition into state-averaged NTOs
    H- 0 -> L+ 4: -0.5196 ( 54.0%)
    H- 0 -> L+ 0: -0.2973 ( 17.7%)
    H- 0 -> L+ 1:  0.2857 ( 16.3%)
                   omega =  88.0%
  ----------------------------------------------------------------------------


  Excited state 4 (singlet, B2)                                    [converged]
  ----------------------------------------------------------------------------
  Term symbol:  4 (1) B2                                    R^2 =  9.67831e-09

  Total energy:                                            -78.6100827120 a.u.
  Excitation energy:                                               5.540510 eV

  Osc. strength:                                                      0.000001
  Trans. dip. moment [a.u.]:           [   0.000000,   -0.001932,    0.000000]
  <i|r^2|0> [a.u.]:                    [   0.000000,    0.000000,    0.000000]

  Dip. moment [a.u.]:                  [   0.000000,   -0.000000,   -0.264478]
  Total dipole [Debye]:                                               0.672237
  <r^2> [a.u.]:                        [  34.467443,   45.295163,  444.889241]
  Total <r^2> [a.u.]:                                               524.651846

  V1^2 = 0.0449, V2^2 = 0.9551

  Important amplitudes:
      occ i      occ j       vir a       vir b          v   
    ---------------------------------------------------------
     6 (A1) A   1 (B2) B    4 (B2) A    2 (B2) B     -0.1776
     6 (A1) A               4 (B2) A                 -0.1393
    ---------------------------------------------------------

  Density matrix analysis:
  ------------------------
  NOs
    Occupation of frontier NOs:
       0.9875   1.0048
    Number of electrons: 18.000000
    Number of unpaired electrons: n_u =  3.92534, n_u,nl =  3.84956
    NO participation ratio (PR_NO):  4.794854
  
  
  Mulliken Population Analysis
  Atom      Charge (e)              h+              e-           Del q
  --------------------------------------------------------------------
   1 C       -0.378500        0.494128       -0.672715       -0.178586
   2 C       -0.963725        0.499031       -1.269339       -0.770308
   3 H        0.079181        0.003000       -0.015621       -0.012622
   4 H        0.091915        0.002228       -0.015143       -0.012915
   5 H        0.079181        0.003000       -0.015621       -0.012622
   6 H        0.091915        0.002228       -0.015143       -0.012915
   7 H        0.000033        1.001893       -0.001925        0.999968
  --------------------------------------------------------------------
  Sum:       -1.000000        2.005507       -2.005507       -0.000000
  
  Multipole moment analysis of the density matrix
    Molecular charge:                      -1.000000
    Number of electrons:                   18.000000
      Center of electronic charge [Ang]: [ -0.000000,   0.000000,   0.007775]
    Total nuclear charge:                  17.000000
      Center of nuclear charge [Ang]:    [ -0.000000,   0.000000,  -0.000000]
    Dipole moment [D]:                     0.672237
      Cartesian components [D]:          [  0.000000,  -0.000000,  -0.672237]
    RMS size of the density [Ang]:         2.856925
      Cartesian components [Ang]:        [  0.732267,   0.839442,   2.630807]
  
  Exciton analysis of the difference density matrix
    <r_h> [Ang]:                  [ -0.000000,   0.000000,  -4.696614]
    <r_e> [Ang]:                  [ -0.000000,   0.000000,   0.356555]
    |<r_e - r_h>| [Ang]:            5.053169
    Hole size [Ang]:                5.481736
      Cartesian components [Ang]: [  0.614628,   0.815471,   5.385784]
    Electron size [Ang]:            2.994733
      Cartesian components [Ang]: [  1.300764,   2.220411,   1.531735]

  Transition density matrix analysis:
  -----------------------------------
  
  CT numbers (Mulliken)
    omega =     0.0443
    <Phe> =     0.0000
  
  Exciton analysis of the transition density matrix
    Trans. dipole moment [D]:             0.002455
      Cartesian components [D]:         [  0.000000,  -0.002455,   0.000000]
    <r_h> [Ang]:                        [ -0.000000,  -0.000000, -10.032557]
    <r_e> [Ang]:                        [ -0.000000,   0.000000,   0.651539]
    |<r_e - r_h>| [Ang]:                 10.684096
    Hole size [Ang]:                      1.136788
      Cartesian components [Ang]:       [  0.643904,   0.644056,   0.680343]
    Electron size [Ang]:                  2.980116
      Cartesian components [Ang]:       [  1.118078,   1.917696,   1.988325]
    RMS electron-hole separation [Ang]:  11.154203
      Cartesian components [Ang]:       [  1.290236,   2.022955,  10.893080]
    Covariance(r_h, r_e) [Ang^2]:        -0.046481
    Correlation coefficient:             -0.013720
    Center-of-mass size [Ang]:            1.587484
      Cartesian components [Ang]:       [  0.645118,   1.011483,   1.039629]

  Decomposition into state-averaged NTOs
    H- 0 -> L+ 4: -0.1336 (  3.6%)
                   omega =   4.4%
  ----------------------------------------------------------------------------


  Excited state 5 (singlet, B2)                                    [converged]
  ----------------------------------------------------------------------------
  Term symbol:  5 (1) B2                                    R^2 =  7.83184e-09

  Total energy:                                            -78.6080038969 a.u.
  Excitation energy:                                               5.597078 eV

  Osc. strength:                                                      0.000000
  Trans. dip. moment [a.u.]:           [  -0.000000,    0.000413,   -0.000000]
  <i|r^2|0> [a.u.]:                    [   0.000000,    0.000000,   -0.000000]

  Dip. moment [a.u.]:                  [   0.000000,    0.000000,   -2.174705]
  Total dipole [Debye]:                                               5.527550
  <r^2> [a.u.]:                        [  31.887131,   37.995062,  462.044064]
  Total <r^2> [a.u.]:                                               531.926257

  V1^2 = 0.0015, V2^2 = 0.9985

  Important amplitudes:
      occ i      occ j       vir a       vir b          v   
    ---------------------------------------------------------
     6 (A1) A   1 (B2) B    3 (B2) A    3 (B2) B     -0.1672
     6 (A1) A   1 (B2) B    4 (B2) A    3 (B2) B     -0.1589
    ---------------------------------------------------------

  Density matrix analysis:
  ------------------------
  NOs
    Occupation of frontier NOs:
       0.9472   0.9887
    Number of electrons: 18.000000
    Number of unpaired electrons: n_u =  3.16426, n_u,nl =  2.97399
    NO participation ratio (PR_NO):  4.400487
  
  
  Mulliken Population Analysis
  Atom      Charge (e)              h+              e-           Del q
  --------------------------------------------------------------------
   1 C       -0.953371        0.513544       -1.267001       -0.753457
   2 C       -0.433218        0.473244       -0.713046       -0.239802
   3 H        0.090542        0.003249       -0.004510       -0.001260
   4 H        0.102735        0.003319       -0.005413       -0.002095
   5 H        0.090542        0.003249       -0.004510       -0.001260
   6 H        0.102735        0.003319       -0.005413       -0.002095
   7 H        0.000034        1.000018       -0.000049        0.999969
  --------------------------------------------------------------------
  Sum:       -1.000000        1.999942       -1.999942       -0.000000
  
  Multipole moment analysis of the density matrix
    Molecular charge:                      -1.000000
    Number of electrons:                   18.000000
      Center of electronic charge [Ang]: [ -0.000000,  -0.000000,   0.063934]
    Total nuclear charge:                  17.000000
      Center of nuclear charge [Ang]:    [ -0.000000,   0.000000,  -0.000000]
    Dipole moment [D]:                     5.527548
      Cartesian components [D]:          [  0.000000,   0.000000,  -5.527548]
    RMS size of the density [Ang]:         2.875963
      Cartesian components [Ang]:        [  0.704324,   0.768827,   2.680298]
  
  Exciton analysis of the difference density matrix
    <r_h> [Ang]:                  [ -0.000000,  -0.000000,  -4.697676]
    <r_e> [Ang]:                  [ -0.000000,  -0.000000,   0.874992]
    |<r_e - r_h>| [Ang]:            5.572668
    Hole size [Ang]:                5.469756
      Cartesian components [Ang]: [  0.581205,   0.761212,   5.385257]
    Electron size [Ang]:            3.017880
      Cartesian components [Ang]: [  1.137711,   1.958162,   1.994697]

  Transition density matrix analysis:
  -----------------------------------
  
  CT numbers (Mulliken)
    omega =     0.0022
    <Phe> =     0.0072
  
  Exciton analysis of the transition density matrix
    Trans. dipole moment [D]:             0.000525
      Cartesian components [D]:         [ -0.000000,   0.000525,  -0.000000]
    <r_h> [Ang]:                        [ -0.000000,  -0.000000,  -6.692751]
    <r_e> [Ang]:                        [  0.000000,   0.000000,  -3.329228]
    |<r_e - r_h>| [Ang]:                  3.363524
    Hole size [Ang]:                      5.086362
      Cartesian components [Ang]:       [  0.604745,   0.720113,   4.998679]
    Electron size [Ang]:                  5.242498
      Cartesian components [Ang]:       [  1.135887,   1.893154,   4.754946]
    RMS electron-hole separation [Ang]:  10.466035
      Cartesian components [Ang]:       [  1.286839,   2.025482,  10.187216]
    Covariance(r_h, r_e) [Ang^2]:       -22.434873
    Correlation coefficient:             -0.841353
    Center-of-mass size [Ang]:            1.456461
      Cartesian components [Ang]:       [  0.643420,   1.012746,   0.825612]

  Decomposition into state-averaged NTOs
                   omega =   0.2%
  ----------------------------------------------------------------------------


  Excited state 6 (singlet, B2)                                    [converged]
  ----------------------------------------------------------------------------
  Term symbol:  6 (1) B2                                    R^2 =  2.94489e-07

  Total energy:                                            -78.5478819634 a.u.
  Excitation energy:                                               7.233079 eV

  Osc. strength:                                                      0.000000
  Trans. dip. moment [a.u.]:           [   0.000000,    0.001653,   -0.000000]
  <i|r^2|0> [a.u.]:                    [   0.000000,    0.000000,   -0.000000]

  Dip. moment [a.u.]:                  [   0.000000,   -0.000000,   -1.176888]
  Total dipole [Debye]:                                               2.991353
  <r^2> [a.u.]:                        [  32.044251,   33.909331,  443.327517]
  Total <r^2> [a.u.]:                                               509.281099

  V1^2 = 0.7824, V2^2 = 0.2176

  Important amplitudes:
      occ i      occ j       vir a       vir b          v   
    ---------------------------------------------------------
     6 (A1) A               5 (B2) A                  0.6234
     6 (A1) A   6 (A1) B   19 (A1) A    5 (B2) B     -0.0603
    ---------------------------------------------------------

  Density matrix analysis:
  ------------------------
  NOs
    Occupation of frontier NOs:
       0.8234   0.9954
    Number of electrons: 18.000000
    Number of unpaired electrons: n_u =  2.76921, n_u,nl =  2.31886
    NO participation ratio (PR_NO):  4.294532
  
  
  Mulliken Population Analysis
  Atom      Charge (e)              h+              e-           Del q
  --------------------------------------------------------------------
   1 C       -0.644818        0.162472       -0.607377       -0.444905
   2 C       -0.653602        0.151840       -0.612025       -0.460185
   3 H        0.073123       -0.003488       -0.015192       -0.018680
   4 H        0.076084       -0.003234       -0.025512       -0.028746
   5 H        0.073123       -0.003488       -0.015192       -0.018680
   6 H        0.076084       -0.003234       -0.025512       -0.028746
   7 H        0.000007        1.043445       -0.043503        0.999942
  --------------------------------------------------------------------
  Sum:       -1.000000        1.344314       -1.344314        0.000000
  
  Multipole moment analysis of the density matrix
    Molecular charge:                      -1.000000
    Number of electrons:                   18.000000
      Center of electronic charge [Ang]: [ -0.000000,   0.000000,   0.034599]
    Total nuclear charge:                  17.000000
      Center of nuclear charge [Ang]:    [ -0.000000,   0.000000,  -0.000000]
    Dipole moment [D]:                     2.991352
      Cartesian components [D]:          [  0.000000,  -0.000000,  -2.991352]
    RMS size of the density [Ang]:         2.814562
      Cartesian components [Ang]:        [  0.706057,   0.726314,   2.625969]
  
  Exciton analysis of the difference density matrix
    <r_h> [Ang]:                  [ -0.000000,  -0.000000,  -7.651561]
    <r_e> [Ang]:                  [ -0.000000,   0.000000,   0.246144]
    |<r_e - r_h>| [Ang]:            7.897704
    Hole size [Ang]:                4.620952
      Cartesian components [Ang]: [  0.704403,   0.743343,   4.506046]
    Electron size [Ang]:            3.531271
      Cartesian components [Ang]: [  1.397151,   2.131640,   2.444167]

  Transition density matrix analysis:
  -----------------------------------
  
  CT numbers (Mulliken)
    omega =     0.7764
    <Phe> =     0.0005
  
  Exciton analysis of the transition density matrix
    Trans. dipole moment [D]:             0.002100
      Cartesian components [D]:         [  0.000000,   0.002100,  -0.000000]
    <r_h> [Ang]:                        [ -0.000000,  -0.000000, -10.031965]
    <r_e> [Ang]:                        [  0.000000,   0.000000,   0.618967]
    |<r_e - r_h>| [Ang]:                 10.650933
    Hole size [Ang]:                      1.138268
      Cartesian components [Ang]:       [  0.643108,   0.643282,   0.684292]
    Electron size [Ang]:                  3.115648
      Cartesian components [Ang]:       [  1.388980,   2.402601,   1.416157]
    RMS electron-hole separation [Ang]:  11.160207
      Cartesian components [Ang]:       [  1.530638,   2.487225,  10.771309]
    Covariance(r_h, r_e) [Ang^2]:        -0.052471
    Correlation coefficient:             -0.014795
    Center-of-mass size [Ang]:            1.650604
      Cartesian components [Ang]:       [  0.765319,   1.243616,   0.769545]

  Decomposition into state-averaged NTOs
    H- 0 -> L+ 5: -0.6108 ( 74.6%)
    H- 0 -> L+ 1:  0.0894 (  1.6%)
    H- 0 -> L+ 0:  0.0836 (  1.4%)
                   omega =  77.6%
  ----------------------------------------------------------------------------


  Excited state 7 (singlet, B2)                                    [converged]
  ----------------------------------------------------------------------------
  Term symbol:  7 (1) B2                                    R^2 =  6.70164e-06

  Total energy:                                            -78.5348879855 a.u.
  Excitation energy:                                               7.586663 eV

  Osc. strength:                                                      0.000244
  Trans. dip. moment [a.u.]:           [  -0.000000,    0.036210,    0.000000]
  <i|r^2|0> [a.u.]:                    [  -0.000000,   -0.000000,    0.000000]

  Dip. moment [a.u.]:                  [  -0.000000,    0.000000,   -1.012274]
  Total dipole [Debye]:                                               2.572945
  <r^2> [a.u.]:                        [  39.298795,   28.371217,  491.203506]
  Total <r^2> [a.u.]:                                               558.873517

  V1^2 = 0.0823, V2^2 = 0.9177

  Important amplitudes:
      occ i      occ j       vir a       vir b          v   
    ---------------------------------------------------------
     6 (A1) A               5 (B2) A                 -0.1997
     6 (A1) A   1 (B2) B    7 (A1) A    8 (A1) B     -0.1813
    ---------------------------------------------------------

  Density matrix analysis:
  ------------------------
  NOs
    Occupation of frontier NOs:
       0.9179   0.9945
    Number of electrons: 18.000000
    Number of unpaired electrons: n_u =  4.23932, n_u,nl =  4.01159
    NO participation ratio (PR_NO):  5.085435
  
  
  Mulliken Population Analysis
  Atom      Charge (e)              h+              e-           Del q
  --------------------------------------------------------------------
   1 C       -0.660276        0.467287       -0.927650       -0.460363
   2 C       -0.720016        0.450736       -0.977335       -0.526599
   3 H        0.090008        0.001943       -0.003738       -0.001795
   4 H        0.101200        0.001674       -0.005304       -0.003630
   5 H        0.090008        0.001943       -0.003738       -0.001795
   6 H        0.101200        0.001674       -0.005304       -0.003630
   7 H       -0.002124        1.000663       -0.002851        0.997811
  --------------------------------------------------------------------
  Sum:       -1.000000        1.925919       -1.925919       -0.000000
  
  Multipole moment analysis of the density matrix
    Molecular charge:                      -1.000000
    Number of electrons:                   18.000000
      Center of electronic charge [Ang]: [  0.000000,  -0.000000,   0.029760]
    Total nuclear charge:                  17.000000
      Center of nuclear charge [Ang]:    [ -0.000000,   0.000000,  -0.000000]
    Dipole moment [D]:                     2.572945
      Cartesian components [D]:          [ -0.000000,   0.000000,  -2.572945]
    RMS size of the density [Ang]:         2.948489
      Cartesian components [Ang]:        [  0.781906,   0.664361,   2.764206]
  
  Exciton analysis of the difference density matrix
    <r_h> [Ang]:                  [  0.000000,   0.000000,  -4.907611]
    <r_e> [Ang]:                  [  0.000000,  -0.000000,   0.559847]
    |<r_e - r_h>| [Ang]:            5.467458
    Hole size [Ang]:                5.466417
      Cartesian components [Ang]: [  0.590855,   0.762749,   5.380597]
    Electron size [Ang]:            3.720115
      Cartesian components [Ang]: [  1.555673,   1.600793,   2.976004]

  Transition density matrix analysis:
  -----------------------------------
  
  CT numbers (Mulliken)
    omega =     0.0816
    <Phe> =     0.0002
  
  Exciton analysis of the transition density matrix
    Trans. dipole moment [D]:             0.046018
      Cartesian components [D]:         [ -0.000000,   0.046018,   0.000000]
    <r_h> [Ang]:                        [ -0.000000,  -0.000000,  -9.757816]
    <r_e> [Ang]:                        [  0.000000,   0.000000,   0.628509]
    |<r_e - r_h>| [Ang]:                 10.386325
    Hole size [Ang]:                      2.038947
      Cartesian components [Ang]:       [  0.640136,   0.649933,   1.823491]
    Electron size [Ang]:                  3.056339
      Cartesian components [Ang]:       [  1.364532,   2.333708,   1.425857]
    RMS electron-hole separation [Ang]:  10.980044
      Cartesian components [Ang]:       [  1.507201,   2.422321,  10.602928]
    Covariance(r_h, r_e) [Ang^2]:         0.406446
    Correlation coefficient:              0.065222
    Center-of-mass size [Ang]:            1.891521
      Cartesian components [Ang]:       [  0.753623,   1.211360,   1.241979]

  Decomposition into state-averaged NTOs
    H- 0 -> L+ 5:  0.1969 (  7.8%)
                   omega =   8.2%
  ----------------------------------------------------------------------------


  Excited state 8 (singlet, B2)                                    [converged]
  ----------------------------------------------------------------------------
  Term symbol:  8 (1) B2                                    R^2 =  1.52909e-06

  Total energy:                                            -78.5338426419 a.u.
  Excitation energy:                                               7.615108 eV

  Osc. strength:                                                      0.108250
  Trans. dip. moment [a.u.]:           [   0.000000,   -0.761721,   -0.000000]
  <i|r^2|0> [a.u.]:                    [  -0.000000,   -0.000000,    0.000000]

  Dip. moment [a.u.]:                  [  -0.000000,   -0.000000,   14.573478]
  Total dipole [Debye]:                                              37.042094
  <r^2> [a.u.]:                        [  32.227441,   20.811699,  779.432028]
  Total <r^2> [a.u.]:                                               832.471168

  V1^2 = 0.8435, V2^2 = 0.1565

  Important amplitudes:
      occ i      occ j       vir a       vir b          v   
    ---------------------------------------------------------
     1 (B2) A               7 (A1) A                  0.4179
     1 (B2) A               9 (A1) A                  0.3774
    ---------------------------------------------------------

  Density matrix analysis:
  ------------------------
  NOs
    Occupation of frontier NOs:
       0.9752   0.9755
    Number of electrons: 18.000000
    Number of unpaired electrons: n_u =  2.43546, n_u,nl =  2.05358
    NO participation ratio (PR_NO):  3.093823
  
  
  Mulliken Population Analysis
  Atom      Charge (e)              h+              e-           Del q
  --------------------------------------------------------------------
   1 C        0.233074        0.726232       -0.293245        0.432987
   2 C       -1.033540        0.370669       -1.210792       -0.840124
   3 H        0.168846        0.096546       -0.019502        0.077044
   4 H        0.179922        0.063194        0.011898        0.075092
   5 H        0.168846        0.096546       -0.019502        0.077044
   6 H        0.179922        0.063194        0.011898        0.075092
   7 H       -0.897070        0.207132       -0.104266        0.102865
  --------------------------------------------------------------------
  Sum:       -1.000000        1.623512       -1.623512       -0.000000
  
  Multipole moment analysis of the density matrix
    Molecular charge:                      -1.000000
    Number of electrons:                   18.000000
      Center of electronic charge [Ang]: [  0.000000,   0.000000,  -0.428442]
    Total nuclear charge:                  17.000000
      Center of nuclear charge [Ang]:    [ -0.000000,   0.000000,  -0.000000]
    Dipole moment [D]:                     37.042082
      Cartesian components [D]:          [ -0.000000,  -0.000000,  37.042082]
    RMS size of the density [Ang]:         3.573137
      Cartesian components [Ang]:        [  0.708073,   0.569008,   3.455745]
  
  Exciton analysis of the difference density matrix
    <r_h> [Ang]:                  [ -0.000000,  -0.000000,  -0.749764]
    <r_e> [Ang]:                  [  0.000000,   0.000000,   0.655990]
    |<r_e - r_h>| [Ang]:            1.405754
    Hole size [Ang]:                3.950238
      Cartesian components [Ang]: [  0.822447,   0.911710,   3.754564]
    Electron size [Ang]:            3.962011
      Cartesian components [Ang]: [  1.383292,   1.370046,   3.450653]

  Transition density matrix analysis:
  -----------------------------------
  
  CT numbers (Mulliken)
    omega =     0.8158
    <Phe> =    -0.0119
  
  Exciton analysis of the transition density matrix
    Trans. dipole moment [D]:             0.968051
      Cartesian components [D]:         [  0.000000,  -0.968051,  -0.000000]
    <r_h> [Ang]:                        [ -0.000000,  -0.000000,   0.648338]
    <r_e> [Ang]:                        [  0.000000,   0.000000,   2.136073]
    |<r_e - r_h>| [Ang]:                  1.487734
    Hole size [Ang]:                      1.262619
      Cartesian components [Ang]:       [  0.509033,   0.861913,   0.769544]
    Electron size [Ang]:                  2.709879
      Cartesian components [Ang]:       [  1.544584,   1.534219,   1.613653]
    RMS electron-hole separation [Ang]:   3.328169
      Cartesian components [Ang]:       [  1.625467,   1.748707,   2.318747]
    Covariance(r_h, r_e) [Ang^2]:         0.037148
    Correlation coefficient:              0.010857
    Center-of-mass size [Ang]:            1.500995
      Cartesian components [Ang]:       [  0.813567,   0.885363,   0.898459]

  Decomposition into state-averaged NTOs
    H- 1 -> L+ 2: -0.6192 ( 76.7%)
    H- 1 -> L+ 3:  0.1547 (  4.8%)
                   omega =  81.6%
  ----------------------------------------------------------------------------


  Excited state 9 (singlet, B2)                                    [converged]
  ----------------------------------------------------------------------------
  Term symbol:  9 (1) B2                                    R^2 =  4.68880e-06

  Total energy:                                            -78.5334021559 a.u.
  Excitation energy:                                               7.627094 eV

  Osc. strength:                                                      0.011914
  Trans. dip. moment [a.u.]:           [  -0.000000,    0.252506,    0.000000]
  <i|r^2|0> [a.u.]:                    [   0.000000,    0.000000,   -0.000000]

  Dip. moment [a.u.]:                  [  -0.000000,    0.000000,    0.401461]
  Total dipole [Debye]:                                               1.020413
  <r^2> [a.u.]:                        [  39.783413,   28.228967,  524.618254]
  Total <r^2> [a.u.]:                                               592.630634

  V1^2 = 0.0937, V2^2 = 0.9063

  Important amplitudes:
      occ i      occ j       vir a       vir b          v   
    ---------------------------------------------------------
     6 (A1) A   1 (B2) A    7 (A1) A    8 (A1) A     -0.2325
     6 (A1) A   1 (B2) B    8 (A1) A    7 (A1) B      0.1539
    ---------------------------------------------------------

  Density matrix analysis:
  ------------------------
  NOs
    Occupation of frontier NOs:
       0.9395   0.9445
    Number of electrons: 18.000000
    Number of unpaired electrons: n_u =  3.67166, n_u,nl =  3.61153
    NO participation ratio (PR_NO):  5.028061
  
  
  Mulliken Population Analysis
  Atom      Charge (e)              h+              e-           Del q
  --------------------------------------------------------------------
   1 C       -0.614391        0.554322       -0.968799       -0.414478
   2 C       -0.749332        0.458178       -1.014093       -0.555915
   3 H        0.109409        0.012489        0.005117        0.017607
   4 H        0.122790        0.009006        0.008954        0.017960
   5 H        0.109409        0.012489        0.005117        0.017607
   6 H        0.122790        0.009006        0.008954        0.017960
   7 H       -0.100675        0.927049       -0.027789        0.899260
  --------------------------------------------------------------------
  Sum:       -1.000000        1.982539       -1.982539        0.000000
  
  Multipole moment analysis of the density matrix
    Molecular charge:                      -1.000000
    Number of electrons:                   18.000000
      Center of electronic charge [Ang]: [  0.000000,  -0.000000,  -0.011802]
    Total nuclear charge:                  17.000000
      Center of nuclear charge [Ang]:    [ -0.000000,   0.000000,  -0.000000]
    Dipole moment [D]:                     1.020413
      Cartesian components [D]:          [ -0.000000,   0.000000,   1.020413]
    RMS size of the density [Ang]:         3.036363
      Cartesian components [Ang]:        [  0.786712,   0.662693,   2.856820]
  
  Exciton analysis of the difference density matrix
    <r_h> [Ang]:                  [ -0.000000,  -0.000000,  -4.375886]
    <r_e> [Ang]:                  [  0.000000,  -0.000000,   0.558072]
    |<r_e - r_h>| [Ang]:            4.933958
    Hole size [Ang]:                5.458781
      Cartesian components [Ang]: [  0.619876,   0.786483,   5.366143]
    Electron size [Ang]:            3.837538
      Cartesian components [Ang]: [  1.569891,   1.588284,   3.120817]

  Transition density matrix analysis:
  -----------------------------------
  
  CT numbers (Mulliken)
    omega =     0.0907
    <Phe> =    -0.0118
  
  Exciton analysis of the transition density matrix
    Trans. dipole moment [D]:             0.320903
      Cartesian components [D]:         [ -0.000000,   0.320903,   0.000000]
    <r_h> [Ang]:                        [ -0.000000,  -0.000000,   0.439613]
    <r_e> [Ang]:                        [  0.000000,   0.000000,   2.101412]
    |<r_e - r_h>| [Ang]:                  1.661798
    Hole size [Ang]:                      1.941318
      Cartesian components [Ang]:       [  0.511940,   0.858101,   1.664421]
    Electron size [Ang]:                  2.724431
      Cartesian components [Ang]:       [  1.543925,   1.558468,   1.615548]
    RMS electron-hole separation [Ang]:   3.715228
      Cartesian components [Ang]:       [  1.625764,   1.768309,   2.834236]
    Covariance(r_h, r_e) [Ang^2]:         0.074948
    Correlation coefficient:              0.014171
    Center-of-mass size [Ang]:            1.683830
      Cartesian components [Ang]:       [  0.813706,   0.894903,   1.171459]

  Decomposition into state-averaged NTOs
    H- 1 -> L+ 2:  0.2049 (  8.4%)
                   omega =   9.1%
  ----------------------------------------------------------------------------


  Excited state 10 (singlet, B2)                                    [converged]
  ----------------------------------------------------------------------------
  Term symbol:  10 (1) B2                                   R^2 =  5.05836e-06

  Total energy:                                            -78.5174070217 a.u.
  Excitation energy:                                               8.062344 eV

  Osc. strength:                                                      0.043674
  Trans. dip. moment [a.u.]:           [   0.000000,   -0.470223,   -0.000000]
  <i|r^2|0> [a.u.]:                    [   0.000000,   -0.000000,    0.000000]

  Dip. moment [a.u.]:                  [  -0.000000,    0.000000,   19.314256]
  Total dipole [Debye]:                                              49.091951
  <r^2> [a.u.]:                        [  32.331576,   20.116547,  813.205062]
  Total <r^2> [a.u.]:                                               865.653185

  V1^2 = 0.9368, V2^2 = 0.0632

  Important amplitudes:
      occ i      occ j       vir a       vir b          v   
    ---------------------------------------------------------
     1 (B2) A               7 (A1) A                 -0.4714
     1 (B2) A               8 (A1) A                 -0.3620
    ---------------------------------------------------------

  Density matrix analysis:
  ------------------------
  NOs
    Occupation of frontier NOs:
       0.9799   0.9815
    Number of electrons: 18.000000
    Number of unpaired electrons: n_u =  2.33733, n_u,nl =  2.03014
    NO participation ratio (PR_NO):  2.828311
  
  
  Mulliken Population Analysis
  Atom      Charge (e)              h+              e-           Del q
  --------------------------------------------------------------------
   1 C       -1.461138        0.439623       -1.700848       -1.261225
   2 C        0.829665        0.558252        0.464830        1.023082
   3 H        0.174554        0.090575       -0.007824        0.082751
   4 H        0.141089        0.099802       -0.063543        0.036259
   5 H        0.174554        0.090575       -0.007824        0.082751
   6 H        0.141089        0.099802       -0.063543        0.036259
   7 H       -0.999813        0.000504       -0.000381        0.000122
  --------------------------------------------------------------------
  Sum:       -1.000000        1.379133       -1.379133        0.000000
  
  Multipole moment analysis of the density matrix
    Molecular charge:                      -1.000000
    Number of electrons:                   18.000000
      Center of electronic charge [Ang]: [  0.000000,  -0.000000,  -0.567815]
    Total nuclear charge:                  17.000000
      Center of nuclear charge [Ang]:    [ -0.000000,   0.000000,  -0.000000]
    Dipole moment [D]:                     49.091937
      Cartesian components [D]:          [ -0.000000,   0.000000,  49.091937]
    RMS size of the density [Ang]:         3.625558
      Cartesian components [Ang]:        [  0.709216,   0.559425,   3.511229]
  
  Exciton analysis of the difference density matrix
    <r_h> [Ang]:                  [ -0.000000,   0.000000,   0.563491]
    <r_e> [Ang]:                  [  0.000000,  -0.000000,   0.399291]
    |<r_e - r_h>| [Ang]:            0.164200
    Hole size [Ang]:                1.573745
      Cartesian components [Ang]: [  0.786552,   0.858762,   1.058554]
    Electron size [Ang]:            3.053970
      Cartesian components [Ang]: [  1.447790,   1.351832,   2.324476]

  Transition density matrix analysis:
  -----------------------------------
  
  CT numbers (Mulliken)
    omega =     0.9064
    <Phe> =    -0.0070
  
  Exciton analysis of the transition density matrix
    Trans. dipole moment [D]:             0.597594
      Cartesian components [D]:         [  0.000000,  -0.597594,  -0.000000]
    <r_h> [Ang]:                        [ -0.000000,   0.000000,   0.629224]
    <r_e> [Ang]:                        [  0.000000,  -0.000000,   0.317105]
    |<r_e - r_h>| [Ang]:                  0.312119
    Hole size [Ang]:                      1.255299
      Cartesian components [Ang]:       [  0.509545,   0.861690,   0.757383]
    Electron size [Ang]:                  3.489456
      Cartesian components [Ang]:       [  1.647594,   1.556341,   2.653214]
    RMS electron-hole separation [Ang]:   3.708801
      Cartesian components [Ang]:       [  1.723726,   1.769563,   2.766336]
    Covariance(r_h, r_e) [Ang^2]:         0.047148
    Correlation coefficient:              0.010764
    Center-of-mass size [Ang]:            1.860536
      Cartesian components [Ang]:       [  0.862724,   0.894156,   1.384842]

  Decomposition into state-averaged NTOs
    H- 1 -> L+ 3: -0.6523 ( 85.1%)
    H- 1 -> L+ 2: -0.1628 (  5.3%)
                   omega =  90.6%
  ----------------------------------------------------------------------------


--------------------------------------------------------------------------------
  Time of ADC calculation:  CPU 398.57 s  wall 102.31 s
================================================================================
 
 --------------------------------------------------------------
             Orbital Energies (a.u.) and Symmetries
 --------------------------------------------------------------
 
 Alpha MOs, Restricted
 -- Occupied --                  
-11.187 -11.185  -0.992  -0.732  -0.611  -0.517  -0.465  -0.327
  1 A1    2 A1    3 A1    4 A1    1 B1    5 A1    2 B1    1 B2                 
  0.022
  6 A1                                                                         
 -- Virtual --                   
  0.109   0.120   0.128   0.144   0.145   0.152   0.178   0.221
  7 A1    3 B1    2 B2    3 B2    8 A1    4 B1    9 A1    4 B2                 
  0.255   0.312   0.338   0.351   0.367   0.368   0.368   0.390
 10 A1   11 A1    5 B1   12 A1   13 A1    6 B1    5 B2    7 B1                 
  0.419   0.451   0.604   0.659   0.874   0.906   0.965   0.983
 14 A1    6 B2    8 B1   15 A1   16 A1    9 B1   17 A1   18 A1                 
  1.036   1.058   1.088   1.093   1.111   1.155   1.164   1.164
 10 B1   19 A1   11 B1   20 A1    7 B2    8 B2    1 A2   21 A1                 
  1.319   1.334   1.337   1.461   1.668   1.691   1.774   1.920
 22 A1    2 A2    9 B2   12 B1   23 A1   13 B1   14 B1   10 B2                 
  1.967   1.967   1.967   1.993   2.003   2.067   2.106   2.138
 24 A1   15 B1   11 B2   12 B2   25 A1    3 A2   26 A1   16 B1                 
  2.229   2.376   2.462   2.516   2.627   2.631   2.869   2.877
 13 B2   27 A1    4 A2   28 A1   29 A1   17 B1   18 B1   30 A1                 
  3.302   3.389
 31 A1   19 B1                                                                 
 
 Beta MOs, Restricted
 -- Occupied --                  
-11.187 -11.185  -0.992  -0.732  -0.611  -0.517  -0.465  -0.327
  1 A1    2 A1    3 A1    4 A1    1 B1    5 A1    2 B1    1 B2                 
  0.022
  6 A1                                                                         
 -- Virtual --                   
  0.109   0.120   0.128   0.144   0.145   0.152   0.178   0.221
  7 A1    3 B1    2 B2    3 B2    8 A1    4 B1    9 A1    4 B2                 
  0.255   0.312   0.338   0.351   0.367   0.368   0.368   0.390
 10 A1   11 A1    5 B1   12 A1   13 A1    6 B1    5 B2    7 B1                 
  0.419   0.451   0.604   0.659   0.874   0.906   0.965   0.983
 14 A1    6 B2    8 B1   15 A1   16 A1    9 B1   17 A1   18 A1                 
  1.036   1.058   1.088   1.093   1.111   1.155   1.164   1.164
 10 B1   19 A1   11 B1   20 A1    7 B2    8 B2    1 A2   21 A1                 
  1.319   1.334   1.337   1.461   1.668   1.691   1.774   1.920
 22 A1    2 A2    9 B2   12 B1   23 A1   13 B1   14 B1   10 B2                 
  1.967   1.967   1.967   1.993   2.003   2.067   2.106   2.138
 24 A1   15 B1   11 B2   12 B2   25 A1    3 A2   26 A1   16 B1                 
  2.229   2.376   2.462   2.516   2.627   2.631   2.869   2.877
 13 B2   27 A1    4 A2   28 A1   29 A1   17 B1   18 B1   30 A1                 
  3.302   3.389
 31 A1   19 B1                                                                 
 --------------------------------------------------------------
 
          Ground-State Mulliken Net Atomic Charges

     Atom                 Charge (a.u.)
  ----------------------------------------
      1 C                    -0.188636
      2 C                    -0.175036
      3 H                     0.084353
      4 H                     0.097452
      5 H                     0.084353
      6 H                     0.097452
      7 H                    -0.999939
  ----------------------------------------
  Sum of atomic charges =    -1.000000

 -----------------------------------------------------------------
                    Cartesian Multipole Moments
 -----------------------------------------------------------------
    Charge (ESU x 10^10)
                -4.8032
    Dipole Moment (Debye)
         X      -0.0000      Y       0.0000      Z      47.9896
       Tot      47.9896
    Quadrupole Moments (Debye-Ang)
        XX     -15.9223     XY       0.0000     YY     -20.0951
        XZ      -0.0000     YZ      -0.0000     ZZ    -500.9951
    Octopole Moments (Debye-Ang^2)
       XXX      -0.0000    XXY       0.0000    XYY      -0.0000
       YYY       0.0000    XXZ      31.9581    XYZ      -0.0000
       YYZ      29.3727    XZZ      -0.0000    YZZ       0.0000
       ZZZ    4950.5444
    Hexadecapole Moments (Debye-Ang^3)
      XXXX     -32.8332   XXXY      -0.0000   XXYY     -10.9754
      XYYY      -0.0000   YYYY     -27.6160   XXXZ      -0.0000
      XXYZ       0.0000   XYYZ      -0.0000   YYYZ       0.0000
      XXZZ    -418.5009   XYZZ      -0.0000   YYZZ    -422.5005
      XZZZ      -0.0000   YZZZ      -0.0000   ZZZZ  -51243.1104
 -----------------------------------------------------------------
 Total job time:  185.20s(wall), 444.36s(cpu) 
 Sat Mar 26 16:12:22 2022

        *************************************************************
        *                                                           *
        *  Thank you very much for using Q-Chem.  Have a nice day.  *
        *                                                           *
        *************************************************************


