/src/tsommerfeld/qchem/exe/qcprog.exe .input0.583333.18473.qcin.1 /src/jdavis/qchem.scratch/qchem18473/

                  Welcome to Q-Chem
     A Quantum Leap Into The Future Of Chemistry


 Q-Chem 5.4 (devel), Q-Chem, Inc., Pleasanton, CA (2021)

 E. Epifanovsky,  A. T. B. Gilbert,  Xintian Feng,  Joonho Lee,  Yuezhi Mao,  
 N. Mardirossian,  P. Pokhilko,  A. White,  M. Wormit,  M. P. Coons,  
 A. L. Dempwolff,  Zhengting Gan,  D. Hait,  P. R. Horn,  L. D. Jacobson,  
 I. Kaliman,  J. Kussmann,  A. W. Lange,  Ka Un Lao,  D. S. Levine,  Jie Liu,  
 S. C. McKenzie,  A. F. Morrison,  K. Nanda,  F. Plasser,  D. R. Rehn,  
 M. L. Vidal,  Zhi-Qiang You,  Ying Zhu,  B. Alam,  B. Albrecht,  
 A. Aldossary,  E. Alguire,  J. H. Andersen,  D. Barton,  K. Begam,  A. Behn,  
 Y. A. Bernard,  E. J. Berquist,  H. Burton,  A. Carreras,  K. Carter-Fenk,  
 R. Chakraborty,  A. D. Chien,  K. D. Closser,  V. Cofer-Shabica,  
 S. Dasgupta,  Jia Deng,  M. de Wergifosse,  M. Diedenhofen,  Hainam Do,  
 S. Ehlert,  Po-Tung Fang,  S. Fatehi,  Qingguo Feng,  T. Friedhoff,  
 J. Gayvert,  Qinghui Ge,  G. Gidofalvi,  M. Goldey,  J. Gomes,  
 C. Gonzalez-Espinoza,  S. Gulania,  A. Gunina,  M. W. D. Hanson-Heine,  
 P. H. P. Harbach,  A. W. Hauser,  M. F. Herbst,  M. Hernandez Vera,  
 M. Hodecker,  Z. C. Holden,  S. Houck,  Xunkun Huang,  Kerwin Hui,  
 B. C. Huynh,  M. Ivanov,  Hyunjun Ji,  Hanjie Jiang,  B. Kaduk,  S. Kaehler,  
 K. Khistyaev,  Jaehoon Kim,  P. Klunzinger,  Z. Koczor-Benda,  
 Joong Hoon Koh,  D. Kosenkov,  L. Koulias,  T. Kowalczyk,  C. M. Krauter,  
 K. Kue,  A. Kunitsa,  T. Kus,  A. Landau,  K. V. Lawler,  D. Lefrancois,  
 S. Lehtola,  Rain Li,  Yi-Pei Li,  Jiashu Liang,  M. Liebenthal,  
 Hung-Hsuan Lin,  You-Sheng Lin,  Fenglai Liu,  Kuan-Yu Liu,  
 M. Loipersberger,  A. Luenser,  A. Manjanath,  P. Manohar,  E. Mansoor,  
 S. F. Manzer,  Shan-Ping Mao,  A. V. Marenich,  T. Markovich,  S. Mason,  
 S. A. Maurer,  P. F. McLaughlin,  M. F. S. J. Menger,  J.-M. Mewes,  
 S. A. Mewes,  P. Morgante,  J. W. Mullinax,  K. J. Oosterbaan,  G. Paran,  
 Alexander C. Paul,  Suranjan K. Paul,  F. Pavosevic,  Zheng Pei,  S. Prager,  
 E. I. Proynov,  E. Ramos,  B. Rana,  A. E. Rask,  A. Rettig,  R. M. Richard,  
 F. Rob,  E. Rossomme,  T. Scheele,  M. Scheurer,  M. Schneider,  
 N. Sergueev,  S. M. Sharada,  W. Skomorowski,  D. W. Small,  C. J. Stein,  
 Yu-Chuan Su,  E. J. Sundstrom,  Zhen Tao,  J. Thirman,  T. Tsuchimochi,  
 N. M. Tubman,  S. P. Veccham,  O. Vydrov,  J. Wenzel,  J. Witte,  A. Yamada,  
 Kun Yao,  S. Yeganeh,  S. R. Yost,  A. Zech,  Igor Ying Zhang,  Xing Zhang,  
 Yu Zhang,  D. Zuev,  A. Aspuru-Guzik,  A. T. Bell,  N. A. Besley,  
 K. B. Bravaya,  B. R. Brooks,  D. Casanova,  Jeng-Da Chai,  S. Coriani,  
 C. J. Cramer,  A. E. DePrince, III,  R. A. DiStasio Jr.,  A. Dreuw,  
 B. D. Dunietz,  T. R. Furlani,  W. A. Goddard III,  S. Grimme,  
 S. Hammes-Schiffer,  T. Head-Gordon,  W. J. Hehre,  Chao-Ping Hsu,  
 T.-C. Jagau,  Yousung Jung,  A. Klamt,  Jing Kong,  D. S. Lambrecht,  
 WanZhen Liang,  N. J. Mayhall,  C. W. McCurdy,  J. B. Neaton,  
 C. Ochsenfeld,  J. A. Parkhill,  R. Peverati,  V. A. Rassolov,  Yihan Shao,  
 L. V. Slipchenko,  T. Stauch,  R. P. Steele,  J. E. Subotnik,  
 A. J. W. Thom,  A. Tkatchenko,  D. G. Truhlar,  T. Van Voorhis,  
 T. A. Wesolowski,  K. B. Whaley,  H. L. Woodcock III,  P. M. Zimmerman,  
 S. Faraji,  P. M. W. Gill,  M. Head-Gordon,  J. M. Herbert,  A. I. Krylov

 Additional authors for Version 5.4.1: 
 S. Kotaru,  Shaozhi Li,  Xiangyuan Li,  F. Matz,  A. Molle,  Haisheng Ren,  
 Yingli Su,  Hung-Yi Tsai,  C. Utku,  Fang Wang

 Contributors to earlier versions of Q-Chem not listed above: 
 R. D. Adamson,  B. Austin,  R. Baer,  J. Baker,  G. J. O. Beran,  
 K. Brandhorst,  S. T. Brown,  E. F. C. Byrd,  A. K. Chakraborty,  
 G. K. L. Chan,  Chun-Min Chang,  Yunqing Chen,  C.-L. Cheng,  
 Siu Hung Chien,  D. M. Chipman,  D. L. Crittenden,  H. Dachsel,  
 R. J. Doerksen,  A. D. Dutoi,  R. G. Edgar,  J. Fosso-Tande,  
 L. Fusti-Molnar,  D. Ghosh,  A. Ghysels,  A. Golubeva-Zadorozhnaya,  
 J. Gonthier,  M. S. Gordon,  S. R. Gwaltney,  G. Hawkins,  J. E. Herr,  
 A. Heyden,  S. Hirata,  E. G. Hohenstein,  G. Kedziora,  F. J. Keil,  
 C. Kelley,  Jihan Kim,  R. A. King,  R. Z. Khaliullin,  P. P. Korambath,  
 W. Kurlancheek,  A. Laurent,  A. M. Lee,  M. S. Lee,  S. V. Levchenko,  
 Ching Yeh Lin,  D. Liotard,  E. Livshits,  R. C. Lochan,  I. Lotan,  
 L. A. Martinez-Martinez,  P. E. Maslen,  N. Nair,  D. P. O'Neill,  
 D. Neuhauser,  E. Neuscamman,  C. M. Oana,  R. Olivares-Amaya,  R. Olson,  
 T. M. Perrine,  B. Peters,  P. A. Pieniazek,  A. Prociuk,  Y. M. Rhee,  
 J. Ritchie,  M. A. Rohrdanz,  E. Rosta,  N. J. Russ,  H. F. Schaefer III,  
 M. W. Schmidt,  N. E. Schultz,  S. Sharma,  N. Shenvi,  C. D. Sherrill,  
 A. C. Simmonett,  A. Sodt,  T. Stein,  D. Stuck,  K. S. Thanthiriwatte,  
 V. Vanovschi,  L. Vogt,  Tao Wang,  A. Warshel,  M. A. Watson,  
 C. F. Williams,  Q. Wu,  X. Xu,  Jun Yang,  W. Zhang,  Yan Zhao

 Please cite Q-Chem as follows:
 Y. Shao et al., Mol. Phys. 113, 184-215 (2015)
 DOI: 10.1080/00268976.2014.952696

 Q-Chem 5.4.1 for Intel X86 EM64T Linux

 Parts of Q-Chem use Armadillo 9.900.5 (Nocturnal Misbehaviour).
 http://arma.sourceforge.net/

 Q-Chem begins on Sat Mar 26 14:52:32 2022  

 Host: node01
0

     Scratch files written to /src/jdavis/qchem.scratch/qchem18473//
 Processing $rem in /src/tsommerfeld/qchem/config/preferences:
 Processing $rem in /home/jdavis/.qchemrc:

 Checking the input file for inconsistencies... 	...done.

--------------------------------------------------------------
User input:
--------------------------------------------------------------
$molecule
-1 1
C         0.0000000000    0.0000000000    0.8417902907
C         0.0000000000    0.0000000000   -0.4872097093
H         0.9623488518    0.0000000000    1.3363703127
H         0.9623489048    0.0000000000   -0.9817896873
H        -0.9623488518    0.0000000000    1.3363703127
H        -0.9623489048    0.0000000000   -0.9817896873
H         0.0000000000    0.0000000000   -10.4872097093
$end

$rem
   METHOD adc(3)
   BASIS gen
   PURECART 11
   EE_STATES [0,0,0,10]
   scf_convergence 8
   ADC_DAVIDSON_MAXITER 120
   ADC_DAVIDSON_MAXSUBSPACE 200
   adc_nguess_singles 100
   THRESH 14
   S2THRESH 14
   adc_davidson_conv 5
   adc_davidson_thresh 14
   THREADS 10
   MEM_TOTAL 95000
   STATE_ANALYSIS TRUE
$end
$basis
C 1
S   9   1.00
      6.665000D+03           6.920000D-04
      1.000000D+03           5.329000D-03
      2.280000D+02           2.707700D-02
      6.471000D+01           1.017180D-01
      2.106000D+01           2.747400D-01
      7.495000D+00           4.485640D-01
      2.797000D+00           2.850740D-01
      5.215000D-01           1.520400D-02
      1.596000D-01          -3.191000D-03
S   9   1.00
      6.665000D+03          -1.460000D-04
      1.000000D+03          -1.154000D-03
      2.280000D+02          -5.725000D-03
      6.471000D+01          -2.331200D-02
      2.106000D+01          -6.395500D-02
      7.495000D+00          -1.499810D-01
      2.797000D+00          -1.272620D-01
      5.215000D-01           5.445290D-01
      1.596000D-01           5.804960D-01
S   1   1.00
      1.596000D-01           1.000000D+00
S   1   1.00
      0.0469000              1.0000000
P   4   1.00
      9.439000D+00           3.810900D-02
      2.002000D+00           2.094800D-01
      5.456000D-01           5.085570D-01
      1.517000D-01           4.688420D-01
P   1   1.00
      1.517000D-01           1.000000D+00
P   1   1.00
      0.0353967      1.0000000
P   1   1.00
      0.0176983      1.0000000
D   1   1.00
      5.500000D-01           1.0000000
****
C 2
S   9   1.00
      6.665000D+03           6.920000D-04
      1.000000D+03           5.329000D-03
      2.280000D+02           2.707700D-02
      6.471000D+01           1.017180D-01
      2.106000D+01           2.747400D-01
      7.495000D+00           4.485640D-01
      2.797000D+00           2.850740D-01
      5.215000D-01           1.520400D-02
      1.596000D-01          -3.191000D-03
S   9   1.00
      6.665000D+03          -1.460000D-04
      1.000000D+03          -1.154000D-03
      2.280000D+02          -5.725000D-03
      6.471000D+01          -2.331200D-02
      2.106000D+01          -6.395500D-02
      7.495000D+00          -1.499810D-01
      2.797000D+00          -1.272620D-01
      5.215000D-01           5.445290D-01
      1.596000D-01           5.804960D-01
S   1   1.00
      1.596000D-01           1.000000D+00
S   1   1.00
      0.0469000              1.0000000
P   4   1.00
      9.439000D+00           3.810900D-02
      2.002000D+00           2.094800D-01
      5.456000D-01           5.085570D-01
      1.517000D-01           4.688420D-01
P   1   1.00
      1.517000D-01           1.000000D+00
P   1   1.00
      0.0353967      1.0000000
P   1   1.00
      0.0176983      1.0000000
D   1   1.00
      5.500000D-01           1.0000000
****
H 3
cc-pVDZ
****
H 4
cc-pVDZ
****
H 5
cc-pVDZ
****
H 6
cc-pVDZ
****
H 7
aug-cc-pVDZ
****
$end
--------------------------------------------------------------
 ----------------------------------------------------------------
             Standard Nuclear Orientation (Angstroms)
    I     Atom           X                Y                Z
 ----------------------------------------------------------------
    1      C       0.0000000000     0.0000000000     1.2918235242
    2      C       0.0000000000     0.0000000000    -0.0371764758
    3      H       0.9623488518     0.0000000000     1.7864035462
    4      H       0.9623489048     0.0000000000    -0.5317564538
    5      H      -0.9623488518     0.0000000000     1.7864035462
    6      H      -0.9623489048     0.0000000000    -0.5317564538
    7      H       0.0000000000     0.0000000000   -10.0371764758
 ----------------------------------------------------------------
 Molecular Point Group                 C2v   NOp =  4
 Largest Abelian Subgroup              C2v   NOp =  4
 Nuclear Repulsion Energy =          34.38697142 hartrees
 There are        9 alpha and        9 beta electrons
 Requested basis set is non-standard
 There are 33 shells and 67 basis functions
 Total memory of 95000 MB is distributed as follows: 
   MEM_STATIC is set to 192 MB
   QALLOC/CCMAN JOB total memory use is  94808 MB
 Warning: actual memory use might exceed 95000 MB

 Total QAlloc Memory Limit  95000 MB
 Mega-Array Size       188 MB
 MEM_STATIC part       192 MB

                       Distance Matrix (Angstroms)
             C (  1)   C (  2)   H (  3)   H (  4)   H (  5)   H (  6)
   C (  2)  1.329000
   H (  3)  1.082000  2.061931
   H (  4)  2.061931  1.082000  2.318160
   H (  5)  1.082000  2.061931  1.924698  3.013026
   H (  6)  2.061931  1.082000  3.013026  1.924698  2.318160
   H (  7) 11.329000 10.000000 11.862679  9.554011 11.862679  9.554011

 
 A cutoff of  1.0D-14 yielded    495 shell pairs
 There are      2107 function pairs (      2244 Cartesian)
 Smallest overlap matrix eigenvalue = 5.34E-04

 Scale SEOQF with 1.000000e-01/1.000000e-01/1.000000e-02

 Standard Electronic Orientation quadrupole field applied
 Nucleus-field energy     =    -0.0000000011 hartrees
 ================ Generating on-the-fly SAD Guess ================
Attempting to make child job directory: /src/jdavis/qchem.scratch/qchem18473//Frg1/
Attempting to make child job directory: /src/jdavis/qchem.scratch/qchem18473//Frg2/
Creating input file /src/jdavis/qchem.scratch/qchem18473/Frg1.input
using default PutDataFrgm: nothing
calling putenv with: QCSCRATCH=/src/jdavis/qchem.scratch/qchem18473/ 
Spawning Job For Fragment 0
Done Job For Fragment 0
calling putenv with: QCSCRATCH=/src/jdavis/qchem.scratch 
calling putenv with: QCTHREADS=1 
Creating input file /src/jdavis/qchem.scratch/qchem18473/Frg2.input
using default PutDataFrgm: nothing
calling putenv with: QCSCRATCH=/src/jdavis/qchem.scratch/qchem18473/ 
Spawning Job For Fragment 1
Done Job For Fragment 1
calling putenv with: QCSCRATCH=/src/jdavis/qchem.scratch 
calling putenv with: QCTHREADS=1 
 Time for running child jobs:  CPU 1.77 s  wall 54.33 s
 ============= Method Specific SAD Guess Constructed =============
 Guess from on-the-fly superposition of atomic densities
 Warning: Energy on first SCF cycle will be non-variational
 A restricted Hartree-Fock SCF calculation will be
 performed using Pulay DIIS extrapolation
 SCF converges when DIIS error is below 1.0E-08
 using 10 threads for integral computing
 -------------------------------------------------------
 OpenMP Integral computing Module                
 Release: version 1.0, May 2013, Q-Chem Inc. Pittsburgh 
 -------------------------------------------------------
 ---------------------------------------
  Cycle       Energy         DIIS Error
 ---------------------------------------
    1     -78.8000362763      7.36E-02
    2     -78.4467067431      6.48E-03
    3     -78.4853303015      1.48E-03
    4     -78.4873971803      4.82E-04
    5     -78.4876201154      9.00E-05
    6     -78.4876621353      2.98E-05
    7     -78.4876728334      1.73E-05
    8     -78.4876780397      6.61E-06
    9     -78.4876790448      1.98E-06
   10     -78.4876791083      2.92E-07
   11     -78.4876791102      8.44E-08
   12     -78.4876791103      2.69E-08
   13     -78.4876791103      3.30E-09 Convergence criterion met
 ---------------------------------------
 SCF time:  CPU 12.80 s  wall 1.29 s
 SCF   energy in the final basis set = -78.48767911
 Total energy in the final basis set = -78.48767911
================================================================================
|                                                                              |
|                                 A D C  M A N                                 |
|                                                                              |
 ------------------------------------------------------------------------------ 
|                                                                              |
| Components:                                                                  |
|                                                                              |
| - libvmm - 1.3-trunk                                                         |
|   Authors:                                                                   |
|   Evgeny Epifanovsky, Ilya Kaliman                                           |
|                                                                              |
| - libtensor - 2.5-trunk                                                      |
|   Authors:                                                                   |
|   Evgeny Epifanovsky, Michael Wormit, Dmitry Zuev, Sam Manzer,               |
|   Ilya Kaliman                                                               |
|                                                                              |
| - libwfa - 1.1-trunk                                                         |
|   Authors:                                                                   |
|   Felix Plasser, Stefanie Mewes (Baeppler), Benjamin Thomitzni,              |
|   Michael Wormit, Feng Chen, Anna I. Krylov, Pavel Pokhilko                  |
|                                                                              |
| - libadc - 1.1-trunk                                                         |
|   Authors:                                                                   |
|   Michael Wormit, Adrian L. Dempwolff, Philipp H. P. Harbach,                |
|   Caroline Krauter, Dirk Rehn, Matthias Schneider, Jan Wenzel                |
|                                                                              |
| - adcman - 2.6-trunk                                                         |
|   Authors:                                                                   |
|   Michael Wormit, Adrian L. Dempwolff, Philipp H. P. Harbach,                |
|   Caroline Krauter, Daniel Lefrancois, Jan-Michael Mewes, Dirk Rehn,         |
|   Matthias Schneider, Jan Wenzel, Andreas Dreuw                              |
|                                                                              |
| Authors of earlier versions of ADCMAN:                                       |
| Andreas Dreuw, Jan Hendrik Starcke, Dirk Rehn, Michael Wormit                |
|                                                                              |
================================================================================

 
 Alpha MOs, Restricted
 -- Occupied --                  
-11.186 -11.184  -0.991  -0.730  -0.609  -0.516  -0.464  -0.326
  1 A1    2 A1    3 A1    4 A1    1 B1    5 A1    2 B1    1 B2                 
  0.015
  6 A1                                                                         
 -- Virtual --                   
  0.080   0.080   0.084   0.107   0.109   0.123   0.145   0.173
  3 B1    7 A1    2 B2    4 B1    3 B2    8 A1    9 A1    4 B2                 
  0.174   0.193   0.217   0.218   0.242   0.297   0.317   0.347
 10 A1    5 B1    6 B1    5 B2   11 A1    6 B2   12 A1   13 A1                 
  0.385   0.398   0.493   0.561   0.716   0.797   0.892   0.910
  7 B1   14 A1    8 B1   15 A1   16 A1    9 B1    7 B2   17 A1                 
  0.953   0.954   0.981   1.046   1.049   1.075   1.083   1.165
 10 B1    8 B2   18 A1   19 A1   20 A1   21 A1   11 B1    1 A2                 
  1.334   1.336   1.359   1.398   1.656   1.667   1.746   1.896
  9 B2    2 A2   22 A1   12 B1   23 A1   13 B1   14 B1   10 B2                 
  1.953   1.953   1.953   1.971   1.988   2.021   2.068   2.082
 15 B1   11 B2   24 A1   25 A1   12 B2   26 A1    3 A2   16 B1                 
  2.221   2.321   2.463   2.490   2.588   2.625   2.850   2.852
 13 B2   27 A1    4 A2   28 A1   17 B1   29 A1   30 A1   18 B1                 
  3.309   3.391
 31 A1   19 B1                                                                 
 
 Beta MOs, Restricted
 -- Occupied --                  
-11.186 -11.184  -0.991  -0.730  -0.609  -0.516  -0.464  -0.326
  1 A1    2 A1    3 A1    4 A1    1 B1    5 A1    2 B1    1 B2                 
  0.015
  6 A1                                                                         
 -- Virtual --                   
  0.080   0.080   0.084   0.107   0.109   0.123   0.145   0.173
  3 B1    7 A1    2 B2    4 B1    3 B2    8 A1    9 A1    4 B2                 
  0.174   0.193   0.217   0.218   0.242   0.297   0.317   0.347
 10 A1    5 B1    6 B1    5 B2   11 A1    6 B2   12 A1   13 A1                 
  0.385   0.398   0.493   0.561   0.716   0.797   0.892   0.910
  7 B1   14 A1    8 B1   15 A1   16 A1    9 B1    7 B2   17 A1                 
  0.953   0.954   0.981   1.046   1.049   1.075   1.083   1.165
 10 B1    8 B2   18 A1   19 A1   20 A1   21 A1   11 B1    1 A2                 
  1.334   1.336   1.359   1.398   1.656   1.667   1.746   1.896
  9 B2    2 A2   22 A1   12 B1   23 A1   13 B1   14 B1   10 B2                 
  1.953   1.953   1.953   1.971   1.988   2.021   2.068   2.082
 15 B1   11 B2   24 A1   25 A1   12 B2   26 A1    3 A2   16 B1                 
  2.221   2.321   2.463   2.490   2.588   2.625   2.850   2.852
 13 B2   27 A1    4 A2   28 A1   17 B1   29 A1   30 A1   18 B1                 
  3.309   3.391
 31 A1   19 B1                                                                 

--------------------------------------------------------------------------------
                                   HF Summary                                   
--------------------------------------------------------------------------------
  Energy:                                                  -78.4876791103 a.u.
  Dip. moment [a.u.]:                  [  -0.000000,   -0.000000,   18.432330]
  Total dipole [Debye]:                                              46.850318
  <r^2> [a.u.]:                        [  25.816829,   15.684462,  783.244679]
  Total <r^2> [a.u.]:                                               824.745970
--------------------------------------------------------------------------------

--------------------------------------------------------------------------------
                                 MP(2) Summary                                  
--------------------------------------------------------------------------------
  MP energy contribution:                                   -0.2979693135 a.u.
  Total energy:                                            -78.7856484238 a.u.
  Dip. moment [a.u.]:                  [  -0.000000,    0.000000,   18.204436]
  Total dipole [Debye]:                                              46.271070
  <r^2> [a.u.]:                        [  26.158097,   15.850025,  778.798656]
  Total <r^2> [a.u.]:                                               820.806778

  Density matrix analysis:
  ------------------------
  NOs
    Occupation of frontier NOs:
       0.0446   1.9373
    Number of electrons: 18.000000
    Number of unpaired electrons: n_u =  0.43576, n_u,nl =  0.04693
    NO participation ratio (PR_NO): 15.536505
  
  
  Mulliken Population Analysis
  Atom      Charge (e)              h+              e-           Del q
  --------------------------------------------------------------------
   1 C       -0.167143        0.100199       -0.109957       -0.009758
   2 C       -0.213321        0.093763       -0.127255       -0.033493
   3 H        0.076518        0.017354       -0.010409        0.006946
   4 H        0.088160        0.017291       -0.010354        0.006937
   5 H        0.076518        0.017354       -0.010409        0.006946
   6 H        0.088160        0.017291       -0.010354        0.006937
   7 H       -0.948892        0.046001       -0.030516        0.015485
  --------------------------------------------------------------------
  Sum:       -1.000000        0.309253       -0.309253       -0.000000
  
  Multipole moment analysis of the density matrix
    Molecular charge:                      -1.000000
    Number of electrons:                   18.000000
      Center of electronic charge [Ang]: [  0.000000,  -0.000000,  -0.535187]
    Total nuclear charge:                  17.000000
      Center of nuclear charge [Ang]:    [ -0.000000,   0.000000,  -0.000000]
    Dipole moment [D]:                     46.271056
      Cartesian components [D]:          [ -0.000000,   0.000000,  46.271056]
    RMS size of the density [Ang]:         3.533126
      Cartesian components [Ang]:        [  0.637923,   0.496569,   3.439397]
  
  Exciton analysis of the difference density matrix
    <r_h> [Ang]:                  [  0.000000,  -0.000000,  -0.956412]
    <r_e> [Ang]:                  [  0.000000,  -0.000000,  -0.566453]
    |<r_e - r_h>| [Ang]:            0.389959
    Hole size [Ang]:                4.236527
      Cartesian components [Ang]: [  0.929998,   0.942226,   4.024361]
    Electron size [Ang]:            3.869766
      Cartesian components [Ang]: [  1.083473,   1.018679,   3.572599]
--------------------------------------------------------------------------------

--------------------------------------------------------------------------------
                                 MP(3) Summary                                  
--------------------------------------------------------------------------------
  MP energy contribution:                                   -0.0277949058 a.u.
  Total energy:                                            -78.8134433296 a.u.
--------------------------------------------------------------------------------
  Starting Davidson for singlet states of irrep B2 ... 
--------------------------------------------------------------------------------
   It NVec Conv  Avg. Norm  Max. Norm  Conv. states           Remark
--------------------------------------------------------------------------------
       100    0  8.875e-02  4.240e-01  0.0464 n n n n n n n n Guess.
    1  110    0  3.489e-02  2.311e-01  0.0138 n n n n n n n n 
    2  120    0  1.760e-02  9.626e-02  0.0118 n n n n n n n n 
    3  130    0  1.690e-02  1.369e-01  0.0118 n n n n n n n n 
    4  140    0  9.587e-03  7.154e-02  0.0118 n n n n n n n n 
    5  150    0  6.755e-03  4.543e-02  0.0118 n n n n n n n n 
    6  160    2  4.622e-03  3.018e-02  0.0118 y y n n n n n n 
    7  170    2  7.264e-03  6.372e-02  0.0118 y y n n n n n n 
    8  180    4  4.740e-03  3.347e-02  0.0118 y y y y n n n n 
    9  190    4  2.344e-03  1.560e-02  0.0118 y y y y n n n n 
   10  200    6  1.227e-03  9.246e-03  0.0118 y y y y y n y n 
   11   20    7  5.625e-04  4.466e-03  0.0118 y y y y y y y n Subspace collapsed.
   12   30    7  6.574e-04  5.568e-03  0.0118 y y y y y y y n 
   13   40    7  4.981e-04  4.217e-03  0.0118 y y y y y y y n 
   14   50    7  3.597e-04  2.984e-03  0.0118 y y y y y y y n 
   15   60    7  2.210e-04  1.786e-03  0.0118 y y y y y y y n 
   16   70    7  1.193e-04  9.537e-04  0.0118 y y y y y y y n 
   17   80    7  9.840e-05  7.772e-04  0.0118 y y y y y y y n 
   18   90    7  7.379e-05  5.628e-04  0.0118 y y y y y y y n 
   19  100    7  4.938e-05  3.707e-04  0.0118 y y y y y y y n 
   20  110    8  2.697e-05  1.973e-04  0.0118 y y y y y y y y 
   21  119    8  1.302e-05  9.220e-05  0.0118 y y y y y y y y 
   22  127    8  6.055e-06  4.397e-05  0.0118 y y y y y y y y 
   23  135    8  2.496e-06  1.851e-05  0.0118 y y y y y y y y 
   24  142   10  1.027e-06  7.774e-06  0.0118 y y y y y y y y Converged.
--------------------------------------------------------------------------------
  Davidson Summary: 
 ------------------------------------------------------------
  State  0: excitation energy =   0.0118 a.u.   (converged)
  State  1: excitation energy =   0.0243 a.u.   (converged)
  State  2: excitation energy =   0.0718 a.u.   (converged)
  State  3: excitation energy =   0.1303 a.u.   (converged)
  State  4: excitation energy =   0.1611 a.u.   (converged)
  State  5: excitation energy =   0.1743 a.u.   (converged)
  State  6: excitation energy =   0.1867 a.u.   (converged)
  State  7: excitation energy =   0.2533 a.u.   (converged)
  State  8: excitation energy =   0.2691 a.u.   (converged)
  State  9: excitation energy =   0.2719 a.u.   (converged)
 ------------------------------------------------------------


--------------------------------------------------------------------------------
                   State-averaged natural transition orbitals
--------------------------------------------------------------------------------
--------------------------------------------------------------------------------

--------------------------------------------------------------------------------
                             Excited State Summary
--------------------------------------------------------------------------------
--------------------------------------------------------------------------------

  Excited state 1 (singlet, B2)                                    [converged]
  ----------------------------------------------------------------------------
  Term symbol:  1 (1) B2                                    R^2 =  5.54139e-15

  Total energy:                                            -78.8016725514 a.u.
  Excitation energy:                                               0.320299 eV

  Osc. strength:                                                      0.000187
  Trans. dip. moment [a.u.]:           [   0.000000,   -0.154317,   -0.000000]
  <i|r^2|0> [a.u.]:                    [   0.000000,    0.000000,   -0.000000]

  Dip. moment [a.u.]:                  [  -0.000000,    0.000000,   -1.272130]
  Total dipole [Debye]:                                               3.233433
  <r^2> [a.u.]:                        [  42.939947,   71.710756,  450.883491]
  Total <r^2> [a.u.]:                                               565.534194

  V1^2 = 0.9425, V2^2 = 0.0575

  Important amplitudes:
      occ i      occ j       vir a       vir b          v   
    ---------------------------------------------------------
     6 (A1) A               2 (B2) A                 -0.6214
     6 (A1) A               3 (B2) A                 -0.2908
    ---------------------------------------------------------

  Density matrix analysis:
  ------------------------
  NOs
    Occupation of frontier NOs:
       0.9971   0.9980
    Number of electrons: 18.000000
    Number of unpaired electrons: n_u =  2.41168, n_u,nl =  2.04729
    NO participation ratio (PR_NO):  2.904685
  
  
  Mulliken Population Analysis
  Atom      Charge (e)              h+              e-           Del q
  --------------------------------------------------------------------
   1 C       -0.642042        0.016877       -0.491776       -0.474899
   2 C       -0.662713        0.101749       -0.551142       -0.449393
   3 H        0.074244       -0.001025       -0.001248       -0.002273
   4 H        0.074770       -0.000498       -0.012892       -0.013391
   5 H        0.074244       -0.001025       -0.001248       -0.002273
   6 H        0.074770       -0.000498       -0.012892       -0.013391
   7 H        0.006728        1.020847       -0.065227        0.955619
  --------------------------------------------------------------------
  Sum:       -1.000000        1.136426       -1.136426        0.000000
  
  Multipole moment analysis of the density matrix
    Molecular charge:                      -1.000000
    Number of electrons:                   18.000000
      Center of electronic charge [Ang]: [  0.000000,  -0.000000,   0.037399]
    Total nuclear charge:                  17.000000
      Center of nuclear charge [Ang]:    [ -0.000000,   0.000000,  -0.000000]
    Dipole moment [D]:                     3.233432
      Cartesian components [D]:          [ -0.000000,   0.000000,  -3.233432]
    RMS size of the density [Ang]:         2.965922
      Cartesian components [Ang]:        [  0.817327,   1.056226,   2.648218]
  
  Exciton analysis of the difference density matrix
    <r_h> [Ang]:                  [  0.000000,   0.000000,  -9.178352]
    <r_e> [Ang]:                  [  0.000000,  -0.000000,  -0.109081]
    |<r_e - r_h>| [Ang]:            9.069271
    Hole size [Ang]:                3.177922
      Cartesian components [Ang]: [  0.965067,   0.969354,   2.868482]
    Electron size [Ang]:            5.606007
      Cartesian components [Ang]: [  2.250910,   3.834629,   3.414138]

  Transition density matrix analysis:
  -----------------------------------
  
  CT numbers (Mulliken)
    omega =     0.9363
    <Phe> =     0.0068
  
  Exciton analysis of the transition density matrix
    Trans. dipole moment [D]:             0.196117
      Cartesian components [D]:         [  0.000000,  -0.196117,  -0.000000]
    <r_h> [Ang]:                        [  0.000000,  -0.000000,  -9.842088]
    <r_e> [Ang]:                        [ -0.000000,  -0.000000,   0.615445]
    |<r_e - r_h>| [Ang]:                 10.457533
    Hole size [Ang]:                      1.826133
      Cartesian components [Ang]:       [  0.762053,   0.762633,   1.473916]
    Electron size [Ang]:                  5.257266
      Cartesian components [Ang]:       [  2.343354,   4.058822,   2.381911]
    RMS electron-hole separation [Ang]:  11.846479
      Cartesian components [Ang]:       [  2.464150,   4.129823,  10.826430]
    Covariance(r_h, r_e) [Ang^2]:        -0.002731
    Correlation coefficient:             -0.000284
    Center-of-mass size [Ang]:            2.782451
      Cartesian components [Ang]:       [  1.232075,   2.064936,   1.400023]

  Decomposition into state-averaged NTOs
    H- 0 -> L+ 1:  0.4647 ( 43.2%)
    H- 0 -> L+ 0: -0.4624 ( 42.8%)
    H- 0 -> L+ 3: -0.1916 (  7.3%)
                   omega =  93.6%
  ----------------------------------------------------------------------------


  Excited state 2 (singlet, B2)                                    [converged]
  ----------------------------------------------------------------------------
  Term symbol:  2 (1) B2                                    R^2 =  5.79434e-15

  Total energy:                                            -78.7891315653 a.u.
  Excitation energy:                                               0.661557 eV

  Osc. strength:                                                      0.013308
  Trans. dip. moment [a.u.]:           [  -0.000000,   -0.906141,   -0.000000]
  <i|r^2|0> [a.u.]:                    [   0.000000,    0.000000,   -0.000000]

  Dip. moment [a.u.]:                  [  -0.000000,   -0.000000,   -1.308885]
  Total dipole [Debye]:                                               3.326853
  <r^2> [a.u.]:                        [  39.730613,   62.042818,  480.400791]
  Total <r^2> [a.u.]:                                               582.174222

  V1^2 = 0.9413, V2^2 = 0.0587

  Important amplitudes:
      occ i      occ j       vir a       vir b          v   
    ---------------------------------------------------------
     6 (A1) A               3 (B2) A                  0.6203
     6 (A1) A               2 (B2) A                 -0.2886
    ---------------------------------------------------------

  Density matrix analysis:
  ------------------------
  NOs
    Occupation of frontier NOs:
       0.9970   0.9971
    Number of electrons: 18.000000
    Number of unpaired electrons: n_u =  2.41334, n_u,nl =  2.04749
    NO participation ratio (PR_NO):  2.911181
  
  
  Mulliken Population Analysis
  Atom      Charge (e)              h+              e-           Del q
  --------------------------------------------------------------------
   1 C       -0.660562        0.013256       -0.506675       -0.493419
   2 C       -0.655778        0.101414       -0.543871       -0.442457
   3 H        0.077224        0.001613       -0.000906        0.000707
   4 H        0.077564        0.000248       -0.010844       -0.010596
   5 H        0.077224        0.001613       -0.000906        0.000707
   6 H        0.077564        0.000248       -0.010844       -0.010596
   7 H        0.006764        1.020704       -0.065048        0.955656
  --------------------------------------------------------------------
  Sum:       -1.000000        1.139094       -1.139094        0.000000
  
  Multipole moment analysis of the density matrix
    Molecular charge:                      -1.000000
    Number of electrons:                   18.000000
      Center of electronic charge [Ang]: [  0.000000,   0.000000,   0.038480]
    Total nuclear charge:                  17.000000
      Center of nuclear charge [Ang]:    [ -0.000000,   0.000000,  -0.000000]
    Dipole moment [D]:                     3.326852
      Cartesian components [D]:          [ -0.000000,  -0.000000,  -3.326852]
    RMS size of the density [Ang]:         3.009233
      Cartesian components [Ang]:        [  0.786190,   0.982450,   2.733529]
  
  Exciton analysis of the difference density matrix
    <r_h> [Ang]:                  [  0.000000,  -0.000000,  -9.150071]
    <r_e> [Ang]:                  [  0.000000,   0.000000,  -0.084970]
    |<r_e - r_h>| [Ang]:            9.065101
    Hole size [Ang]:                3.227769
      Cartesian components [Ang]: [  0.967414,   0.975666,   2.920733]
    Electron size [Ang]:            5.955753
      Cartesian components [Ang]: [  2.066998,   3.508233,   4.346356]

  Transition density matrix analysis:
  -----------------------------------
  
  CT numbers (Mulliken)
    omega =     0.9347
    <Phe> =     0.0097
  
  Exciton analysis of the transition density matrix
    Trans. dipole moment [D]:             1.151590
      Cartesian components [D]:         [ -0.000000,  -1.151590,  -0.000000]
    <r_h> [Ang]:                        [  0.000000,  -0.000000,  -9.841887]
    <r_e> [Ang]:                        [ -0.000000,   0.000000,   0.634286]
    |<r_e - r_h>| [Ang]:                 10.476173
    Hole size [Ang]:                      1.826824
      Cartesian components [Ang]:       [  0.762077,   0.762722,   1.474713]
    Electron size [Ang]:                  5.682901
      Cartesian components [Ang]:       [  2.140986,   3.708032,   3.736581]
    RMS electron-hole separation [Ang]:  12.057631
      Cartesian components [Ang]:       [  2.272572,   3.785308,  11.220220]
    Covariance(r_h, r_e) [Ang^2]:        -0.001804
    Correlation coefficient:             -0.000174
    Center-of-mass size [Ang]:            2.984503
      Cartesian components [Ang]:       [  1.136286,   1.893009,   2.008141]

  Decomposition into state-averaged NTOs
    H- 0 -> L+ 0:  0.4606 ( 42.4%)
    H- 0 -> L+ 1:  0.4484 ( 40.2%)
    H- 0 -> L+ 2:  0.2091 (  8.7%)
    H- 0 -> L+ 4:  0.0760 (  1.2%)
                   omega =  93.5%
  ----------------------------------------------------------------------------


  Excited state 3 (singlet, B2)                                    [converged]
  ----------------------------------------------------------------------------
  Term symbol:  3 (1) B2                                    R^2 =  6.82864e-15

  Total energy:                                            -78.7416902897 a.u.
  Excitation energy:                                               1.952500 eV

  Osc. strength:                                                      0.003178
  Trans. dip. moment [a.u.]:           [  -0.000000,    0.257749,   -0.000000]
  <i|r^2|0> [a.u.]:                    [   0.000000,    0.000000,   -0.000000]

  Dip. moment [a.u.]:                  [  -0.000000,    0.000000,   -1.307905]
  Total dipole [Debye]:                                               3.324364
  <r^2> [a.u.]:                        [  30.003094,   29.987657,  447.920382]
  Total <r^2> [a.u.]:                                               507.911134

  V1^2 = 0.8961, V2^2 = 0.1039

  Important amplitudes:
      occ i      occ j       vir a       vir b          v   
    ---------------------------------------------------------
     6 (A1) A               4 (B2) A                 -0.6527
     6 (A1) A               6 (B2) A                 -0.1156
    ---------------------------------------------------------

  Density matrix analysis:
  ------------------------
  NOs
    Occupation of frontier NOs:
       0.9850   0.9940
    Number of electrons: 18.000000
    Number of unpaired electrons: n_u =  2.43875, n_u,nl =  2.05151
    NO participation ratio (PR_NO):  3.016067
  
  
  Mulliken Population Analysis
  Atom      Charge (e)              h+              e-           Del q
  --------------------------------------------------------------------
   1 C       -0.560749        0.164033       -0.557639       -0.393606
   2 C       -0.571590        0.268801       -0.627070       -0.358269
   3 H        0.030614        0.008182       -0.054085       -0.045903
   4 H        0.031461        0.008399       -0.065098       -0.056699
   5 H        0.030614        0.008182       -0.054085       -0.045903
   6 H        0.031461        0.008399       -0.065098       -0.056699
   7 H        0.008187        1.012747       -0.055668        0.957079
  --------------------------------------------------------------------
  Sum:       -1.000000        1.478742       -1.478742        0.000000
  
  Multipole moment analysis of the density matrix
    Molecular charge:                      -1.000000
    Number of electrons:                   18.000000
      Center of electronic charge [Ang]: [  0.000000,  -0.000000,   0.038451]
    Total nuclear charge:                  17.000000
      Center of nuclear charge [Ang]:    [ -0.000000,   0.000000,  -0.000000]
    Dipole moment [D]:                     3.324363
      Cartesian components [D]:          [ -0.000000,   0.000000,  -3.324363]
    RMS size of the density [Ang]:         2.810723
      Cartesian components [Ang]:        [  0.683200,   0.683024,   2.639485]
  
  Exciton analysis of the difference density matrix
    <r_h> [Ang]:                  [  0.000000,   0.000000,  -6.849140]
    <r_e> [Ang]:                  [  0.000000,  -0.000000,   0.133477]
    |<r_e - r_h>| [Ang]:            6.982617
    Hole size [Ang]:                5.085103
      Cartesian components [Ang]: [  0.953630,   0.998121,   4.894141]
    Electron size [Ang]:            3.674001
      Cartesian components [Ang]: [  1.279662,   1.916633,   2.861340]

  Transition density matrix analysis:
  -----------------------------------
  
  CT numbers (Mulliken)
    omega =     0.8795
    <Phe> =     0.0006
  
  Exciton analysis of the transition density matrix
    Trans. dipole moment [D]:             0.327566
      Cartesian components [D]:         [ -0.000000,   0.327566,  -0.000000]
    <r_h> [Ang]:                        [  0.000000,  -0.000000,  -9.842672]
    <r_e> [Ang]:                        [ -0.000000,  -0.000000,   0.615898]
    |<r_e - r_h>| [Ang]:                 10.458570
    Hole size [Ang]:                      1.824062
      Cartesian components [Ang]:       [  0.761536,   0.762024,   1.471931]
    Electron size [Ang]:                  3.284412
      Cartesian components [Ang]:       [  1.231359,   2.120273,   2.185305]
    RMS electron-hole separation [Ang]:  11.112874
      Cartesian components [Ang]:       [  1.447815,   2.252954,  10.785361]
    Covariance(r_h, r_e) [Ang^2]:         0.000137
    Correlation coefficient:              0.000023
    Center-of-mass size [Ang]:            1.878486
      Cartesian components [Ang]:       [  0.723912,   1.126574,   1.317380]

  Decomposition into state-averaged NTOs
    H- 0 -> L+ 2:  0.4560 ( 41.6%)
    H- 0 -> L+ 4:  0.4002 ( 32.0%)
    H- 0 -> L+ 1: -0.1659 (  5.5%)
    H- 0 -> L+ 3: -0.1501 (  4.5%)
    H- 0 -> L+ 0: -0.1470 (  4.3%)
                   omega =  88.0%
  ----------------------------------------------------------------------------


  Excited state 4 (singlet, B2)                                    [converged]
  ----------------------------------------------------------------------------
  Term symbol:  4 (1) B2                                    R^2 =  9.96100e-15

  Total energy:                                            -78.6831766804 a.u.
  Excitation energy:                                               3.544736 eV

  Osc. strength:                                                      0.000352
  Trans. dip. moment [a.u.]:           [   0.000000,   -0.063675,   -0.000000]
  <i|r^2|0> [a.u.]:                    [   0.000000,    0.000000,   -0.000000]

  Dip. moment [a.u.]:                  [  -0.000000,   -0.000000,   -1.294573]
  Total dipole [Debye]:                                               3.290476
  <r^2> [a.u.]:                        [  34.843438,   46.509518,  442.412638]
  Total <r^2> [a.u.]:                                               523.765593

  V1^2 = 0.9293, V2^2 = 0.0707

  Important amplitudes:
      occ i      occ j       vir a       vir b          v   
    ---------------------------------------------------------
     6 (A1) A               5 (B2) A                 -0.6766
     6 (A1) A               4 (B2) A                 -0.0675
    ---------------------------------------------------------

  Density matrix analysis:
  ------------------------
  NOs
    Occupation of frontier NOs:
       0.9857   0.9961
    Number of electrons: 18.000000
    Number of unpaired electrons: n_u =  2.43390, n_u,nl =  2.05592
    NO participation ratio (PR_NO):  2.993717
  
  
  Mulliken Population Analysis
  Atom      Charge (e)              h+              e-           Del q
  --------------------------------------------------------------------
   1 C       -0.608017        0.052698       -0.493571       -0.440874
   2 C       -0.618065        0.145040       -0.549785       -0.404745
   3 H        0.054392       -0.001508       -0.020618       -0.022126
   4 H        0.055077       -0.000783       -0.032300       -0.033083
   5 H        0.054392       -0.001508       -0.020618       -0.022126
   6 H        0.055077       -0.000783       -0.032300       -0.033083
   7 H        0.007143        1.017890       -0.061854        0.956035
  --------------------------------------------------------------------
  Sum:       -1.000000        1.211047       -1.211047        0.000000
  
  Multipole moment analysis of the density matrix
    Molecular charge:                      -1.000000
    Number of electrons:                   18.000000
      Center of electronic charge [Ang]: [  0.000000,   0.000000,   0.038059]
    Total nuclear charge:                  17.000000
      Center of nuclear charge [Ang]:    [ -0.000000,   0.000000,  -0.000000]
    Dipole moment [D]:                     3.290475
      Cartesian components [D]:          [ -0.000000,  -0.000000,  -3.290475]
    RMS size of the density [Ang]:         2.854268
      Cartesian components [Ang]:        [  0.736250,   0.850620,   2.623209]
  
  Exciton analysis of the difference density matrix
    <r_h> [Ang]:                  [  0.000000,  -0.000000,  -8.552157]
    <r_e> [Ang]:                  [  0.000000,   0.000000,  -0.031901]
    |<r_e - r_h>| [Ang]:            8.520257
    Hole size [Ang]:                3.914077
      Cartesian components [Ang]: [  0.960930,   0.966371,   3.669161]
    Electron size [Ang]:            4.446797
      Cartesian components [Ang]: [  1.712216,   2.832529,   2.969696]

  Transition density matrix analysis:
  -----------------------------------
  
  CT numbers (Mulliken)
    omega =     0.9218
    <Phe> =     0.0007
  
  Exciton analysis of the transition density matrix
    Trans. dipole moment [D]:             0.080922
      Cartesian components [D]:         [  0.000000,  -0.080922,  -0.000000]
    <r_h> [Ang]:                        [  0.000000,  -0.000000,  -9.841166]
    <r_e> [Ang]:                        [ -0.000000,   0.000000,   0.622790]
    |<r_e - r_h>| [Ang]:                 10.463956
    Hole size [Ang]:                      1.828440
      Cartesian components [Ang]:       [  0.761723,   0.762253,   1.477140]
    Electron size [Ang]:                  3.976137
      Cartesian components [Ang]:       [  1.773988,   3.072002,   1.795948]
    RMS electron-hole separation [Ang]:  11.343640
      Cartesian components [Ang]:       [  1.930610,   3.165118,  10.720678]
    Covariance(r_h, r_e) [Ang^2]:        -0.015462
    Correlation coefficient:             -0.002127
    Center-of-mass size [Ang]:            2.186432
      Cartesian components [Ang]:       [  0.965305,   1.582599,   1.159331]

  Decomposition into state-averaged NTOs
    H- 0 -> L+ 3: -0.6161 ( 75.9%)
    H- 0 -> L+ 2: -0.2062 (  8.5%)
    H- 0 -> L+ 1: -0.1394 (  3.9%)
    H- 0 -> L+ 0:  0.1388 (  3.9%)
                   omega =  92.2%
  ----------------------------------------------------------------------------


  Excited state 5 (singlet, B2)                                    [converged]
  ----------------------------------------------------------------------------
  Term symbol:  5 (1) B2                                    R^2 =  2.36655e-13

  Total energy:                                            -78.6523529055 a.u.
  Excitation energy:                                               4.383493 eV

  Osc. strength:                                                      0.000214
  Trans. dip. moment [a.u.]:           [   0.000000,   -0.044691,    0.000000]
  <i|r^2|0> [a.u.]:                    [  -0.000000,   -0.000000,    0.000000]

  Dip. moment [a.u.]:                  [  -0.000000,    0.000000,   -1.542360]
  Total dipole [Debye]:                                               3.920288
  <r^2> [a.u.]:                        [  42.960567,   69.966201,  446.940460]
  Total <r^2> [a.u.]:                                               559.867228

  V1^2 = 0.0937, V2^2 = 0.9063

  Important amplitudes:
      occ i      occ j       vir a       vir b          v   
    ---------------------------------------------------------
     6 (A1) A   1 (B2) B    4 (B2) A    2 (B2) B      0.1914
     6 (A1) A               6 (B2) A                 -0.1874
    ---------------------------------------------------------

  Density matrix analysis:
  ------------------------
  NOs
    Occupation of frontier NOs:
       0.9365   0.9839
    Number of electrons: 18.000000
    Number of unpaired electrons: n_u =  4.18995, n_u,nl =  4.02351
    NO participation ratio (PR_NO):  4.942971
  
  
  Mulliken Population Analysis
  Atom      Charge (e)              h+              e-           Del q
  --------------------------------------------------------------------
   1 C       -0.611723        0.454578       -0.899157       -0.444579
   2 C       -0.735058        0.463012       -0.984749       -0.521737
   3 H        0.073871        0.002735       -0.005381       -0.002646
   4 H        0.084174        0.002630       -0.006617       -0.003986
   5 H        0.073871        0.002735       -0.005381       -0.002646
   6 H        0.084174        0.002630       -0.006617       -0.003986
   7 H        0.030690        0.982826       -0.003244        0.979582
  --------------------------------------------------------------------
  Sum:       -1.000000        1.911145       -1.911145        0.000000
  
  Multipole moment analysis of the density matrix
    Molecular charge:                      -1.000000
    Number of electrons:                   18.000000
      Center of electronic charge [Ang]: [  0.000000,  -0.000000,   0.045343]
    Total nuclear charge:                  17.000000
      Center of nuclear charge [Ang]:    [ -0.000000,   0.000000,  -0.000000]
    Dipole moment [D]:                     3.920287
      Cartesian components [D]:          [ -0.000000,   0.000000,  -3.920287]
    RMS size of the density [Ang]:         2.950911
      Cartesian components [Ang]:        [  0.817523,   1.043300,   2.636486]
  
  Exciton analysis of the difference density matrix
    <r_h> [Ang]:                  [  0.000000,   0.000000,  -4.895551]
    <r_e> [Ang]:                  [  0.000000,  -0.000000,   0.572142]
    |<r_e - r_h>| [Ang]:            5.467693
    Hole size [Ang]:                5.464685
      Cartesian components [Ang]: [  0.645021,   0.800574,   5.367104]
    Electron size [Ang]:            3.907423
      Cartesian components [Ang]: [  1.696472,   2.927496,   1.954406]

  Transition density matrix analysis:
  -----------------------------------
  
  CT numbers (Mulliken)
    omega =     0.0929
    <Phe> =     0.0006
  
  Exciton analysis of the transition density matrix
    Trans. dipole moment [D]:             0.056796
      Cartesian components [D]:         [  0.000000,  -0.056796,   0.000000]
    <r_h> [Ang]:                        [  0.000000,  -0.000000,  -9.842882]
    <r_e> [Ang]:                        [  0.000000,  -0.000000,   0.620571]
    |<r_e - r_h>| [Ang]:                 10.463453
    Hole size [Ang]:                      1.823424
      Cartesian components [Ang]:       [  0.761441,   0.761925,   1.471243]
    Electron size [Ang]:                  4.150842
      Cartesian components [Ang]:       [  1.563325,   2.707742,   2.730134]
    RMS electron-hole separation [Ang]:  11.403429
      Cartesian components [Ang]:       [  1.738900,   2.812880,  10.913392]
    Covariance(r_h, r_e) [Ang^2]:         0.000017
    Correlation coefficient:              0.000002
    Center-of-mass size [Ang]:            2.266848
      Cartesian components [Ang]:       [  0.869451,   1.406458,   1.550654]

  Decomposition into state-averaged NTOs
    H- 0 -> L+ 2: -0.1705 (  5.8%)
    H- 0 -> L+ 4:  0.1144 (  2.6%)
                   omega =   9.3%
  ----------------------------------------------------------------------------


  Excited state 6 (singlet, B2)                                    [converged]
  ----------------------------------------------------------------------------
  Term symbol:  6 (1) B2                                    R^2 =  1.67527e-12

  Total energy:                                            -78.6391822334 a.u.
  Excitation energy:                                               4.741886 eV

  Osc. strength:                                                      0.000000
  Trans. dip. moment [a.u.]:           [   0.000000,    0.000204,   -0.000000]
  <i|r^2|0> [a.u.]:                    [   0.000000,    0.000000,   -0.000000]

  Dip. moment [a.u.]:                  [  -0.000000,    0.000000,   -1.767516]
  Total dipole [Debye]:                                               4.492579
  <r^2> [a.u.]:                        [  41.412620,   65.183634,  477.690758]
  Total <r^2> [a.u.]:                                               584.287012

  V1^2 = 0.0001, V2^2 = 0.9999

  Important amplitudes:
      occ i      occ j       vir a       vir b          v   
    ---------------------------------------------------------
     6 (A1) A   1 (B2) B    4 (B2) A    3 (B2) B      0.2002
     6 (A1) A   1 (B2) B    6 (B2) A    3 (B2) B      0.1490
    ---------------------------------------------------------

  Density matrix analysis:
  ------------------------
  NOs
    Occupation of frontier NOs:
       0.9447   0.9879
    Number of electrons: 18.000000
    Number of unpaired electrons: n_u =  3.83154, n_u,nl =  3.83584
    NO participation ratio (PR_NO):  4.729732
  
  
  Mulliken Population Analysis
  Atom      Charge (e)              h+              e-           Del q
  --------------------------------------------------------------------
   1 C       -0.679389        0.500172       -1.012418       -0.512245
   2 C       -0.676948        0.504830       -0.968457       -0.463627
   3 H        0.075109        0.003285       -0.004693       -0.001409
   4 H        0.086417        0.003085       -0.004828       -0.001743
   5 H        0.075109        0.003285       -0.004693       -0.001409
   6 H        0.086417        0.003085       -0.004828       -0.001743
   7 H        0.033285        0.982191       -0.000015        0.982177
  --------------------------------------------------------------------
  Sum:       -1.000000        1.999932       -1.999932        0.000000
  
  Multipole moment analysis of the density matrix
    Molecular charge:                      -1.000000
    Number of electrons:                   18.000000
      Center of electronic charge [Ang]: [  0.000000,  -0.000000,   0.051963]
    Total nuclear charge:                  17.000000
      Center of nuclear charge [Ang]:    [ -0.000000,   0.000000,  -0.000000]
    Dipole moment [D]:                     4.492578
      Cartesian components [D]:          [ -0.000000,   0.000000,  -4.492578]
    RMS size of the density [Ang]:         3.014487
      Cartesian components [Ang]:        [  0.802659,   1.007011,   2.725583]
  
  Exciton analysis of the difference density matrix
    <r_h> [Ang]:                  [  0.000000,  -0.000000,  -4.639147]
    <r_e> [Ang]:                  [  0.000000,  -0.000000,   0.645384]
    |<r_e - r_h>| [Ang]:            5.284531
    Hole size [Ang]:                5.467154
      Cartesian components [Ang]: [  0.623888,   0.794505,   5.373016]
    Electron size [Ang]:            4.228199
      Cartesian components [Ang]: [  1.589075,   2.745702,   2.795286]

  Transition density matrix analysis:
  -----------------------------------
  
  CT numbers (Mulliken)
    omega =     0.0001
    <Phe> =    -0.0388
  
  Exciton analysis of the transition density matrix
    Trans. dipole moment [D]:             0.000259
      Cartesian components [D]:         [  0.000000,   0.000259,  -0.000000]
    <r_h> [Ang]:                        [  0.000000,  -0.000000,  -4.709016]
    <r_e> [Ang]:                        [ -0.000000,  -0.000000,  -4.111594]
    |<r_e - r_h>| [Ang]:                  0.597422
    Hole size [Ang]:                      5.468476
      Cartesian components [Ang]:       [  0.652360,   0.816024,   5.367752]
    Electron size [Ang]:                  6.195247
      Cartesian components [Ang]:       [  1.105522,   1.788059,   5.827671]
    RMS electron-hole separation [Ang]:  11.260182
      Cartesian components [Ang]:       [  1.283644,   1.962842,  11.013229]
    Covariance(r_h, r_e) [Ang^2]:       -29.074744
    Correlation coefficient:             -0.858205
    Center-of-mass size [Ang]:            1.591840
      Cartesian components [Ang]:       [  0.641826,   0.984041,   1.074093]

  Decomposition into state-averaged NTOs
                   omega =   0.0%
  ----------------------------------------------------------------------------


  Excited state 7 (singlet, B2)                                    [converged]
  ----------------------------------------------------------------------------
  Term symbol:  7 (1) B2                                    R^2 =  1.05706e-12

  Total energy:                                            -78.6267011943 a.u.
  Excitation energy:                                               5.081512 eV

  Osc. strength:                                                      0.001372
  Trans. dip. moment [a.u.]:           [   0.000000,    0.104983,   -0.000000]
  <i|r^2|0> [a.u.]:                    [   0.000000,    0.000000,   -0.000000]

  Dip. moment [a.u.]:                  [  -0.000000,    0.000000,   -1.356155]
  Total dipole [Debye]:                                               3.447003
  <r^2> [a.u.]:                        [  33.047643,   39.554866,  451.070531]
  Total <r^2> [a.u.]:                                               523.673040

  V1^2 = 0.7929, V2^2 = 0.2071

  Important amplitudes:
      occ i      occ j       vir a       vir b          v   
    ---------------------------------------------------------
     6 (A1) A               6 (B2) A                  0.6167
     6 (A1) A               4 (B2) A                 -0.1216
    ---------------------------------------------------------

  Density matrix analysis:
  ------------------------
  NOs
    Occupation of frontier NOs:
       0.8819   0.9884
    Number of electrons: 18.000000
    Number of unpaired electrons: n_u =  2.67630, n_u,nl =  2.23008
    NO participation ratio (PR_NO):  3.915340
  
  
  Mulliken Population Analysis
  Atom      Charge (e)              h+              e-           Del q
  --------------------------------------------------------------------
   1 C       -0.569940        0.180619       -0.583416       -0.402796
   2 C       -0.585303        0.257650       -0.629632       -0.371982
   3 H        0.035027        0.002945       -0.044436       -0.041491
   4 H        0.037037        0.003152       -0.054275       -0.051124
   5 H        0.035027        0.002945       -0.044436       -0.041491
   6 H        0.037037        0.003152       -0.054275       -0.051124
   7 H        0.011116        1.006363       -0.046355        0.960008
  --------------------------------------------------------------------
  Sum:       -1.000000        1.456825       -1.456825        0.000000
  
  Multipole moment analysis of the density matrix
    Molecular charge:                      -1.000000
    Number of electrons:                   18.000000
      Center of electronic charge [Ang]: [  0.000000,  -0.000000,   0.039869]
    Total nuclear charge:                  17.000000
      Center of nuclear charge [Ang]:    [ -0.000000,   0.000000,  -0.000000]
    Dipole moment [D]:                     3.447002
      Cartesian components [D]:          [ -0.000000,   0.000000,  -3.447002]
    RMS size of the density [Ang]:         2.853991
      Cartesian components [Ang]:        [  0.717026,   0.784449,   2.648731]
  
  Exciton analysis of the difference density matrix
    <r_h> [Ang]:                  [  0.000000,   0.000000,  -6.891219]
    <r_e> [Ang]:                  [  0.000000,  -0.000000,   0.213971]
    |<r_e - r_h>| [Ang]:            7.105190
    Hole size [Ang]:                5.108450
      Cartesian components [Ang]: [  0.964173,   1.118273,   4.890409]
    Electron size [Ang]:            4.052755
      Cartesian components [Ang]: [  1.501308,   2.409780,   2.892033]

  Transition density matrix analysis:
  -----------------------------------
  
  CT numbers (Mulliken)
    omega =     0.7820
    <Phe> =     0.0004
  
  Exciton analysis of the transition density matrix
    Trans. dipole moment [D]:             0.133420
      Cartesian components [D]:         [  0.000000,   0.133420,  -0.000000]
    <r_h> [Ang]:                        [  0.000000,  -0.000000,  -9.842817]
    <r_e> [Ang]:                        [ -0.000000,  -0.000000,   0.625929]
    |<r_e - r_h>| [Ang]:                 10.468746
    Hole size [Ang]:                      1.823600
      Cartesian components [Ang]:       [  0.761395,   0.761883,   1.471506]
    Electron size [Ang]:                  3.643155
      Cartesian components [Ang]:       [  1.369603,   2.370425,   2.403716]
    RMS electron-hole separation [Ang]:  11.233541
      Cartesian components [Ang]:       [  1.567012,   2.489821,  10.841481]
    Covariance(r_h, r_e) [Ang^2]:         0.000150
    Correlation coefficient:              0.000023
    Center-of-mass size [Ang]:            2.037056
      Cartesian components [Ang]:       [  0.783509,   1.244945,   1.409193]

  Decomposition into state-averaged NTOs
    H- 0 -> L+ 4: -0.4837 ( 46.8%)
    H- 0 -> L+ 2:  0.3714 ( 27.6%)
    H- 0 -> L+ 3: -0.1162 (  2.7%)
                   omega =  78.2%
  ----------------------------------------------------------------------------


  Excited state 8 (singlet, B2)                                    [converged]
  ----------------------------------------------------------------------------
  Term symbol:  8 (1) B2                                    R^2 =  1.45165e-07

  Total energy:                                            -78.5601674613 a.u.
  Excitation energy:                                               6.891987 eV

  Osc. strength:                                                      0.000000
  Trans. dip. moment [a.u.]:           [   0.000000,   -0.001393,   -0.000000]
  <i|r^2|0> [a.u.]:                    [  -0.000000,   -0.000000,    0.000000]

  Dip. moment [a.u.]:                  [  -0.000000,    0.000000,   -1.626870]
  Total dipole [Debye]:                                               4.135092
  <r^2> [a.u.]:                        [  32.152194,   37.006214,  449.285134]
  Total <r^2> [a.u.]:                                               518.443543

  V1^2 = 0.0010, V2^2 = 0.9990

  Important amplitudes:
      occ i      occ j       vir a       vir b          v   
    ---------------------------------------------------------
     6 (A1) A   1 (B2) B    4 (B2) A    4 (B2) B     -0.2970
     6 (A1) A   1 (B2) B    6 (B2) A    4 (B2) B     -0.1129
    ---------------------------------------------------------

  Density matrix analysis:
  ------------------------
  NOs
    Occupation of frontier NOs:
       0.9519   0.9879
    Number of electrons: 18.000000
    Number of unpaired electrons: n_u =  2.77524, n_u,nl =  2.37135
    NO participation ratio (PR_NO):  3.848612
  
  
  Mulliken Population Analysis
  Atom      Charge (e)              h+              e-           Del q
  --------------------------------------------------------------------
   1 C       -0.633321        0.497682       -0.963860       -0.466178
   2 C       -0.719516        0.504407       -1.010602       -0.506195
   3 H        0.074091        0.003784       -0.006211       -0.002427
   4 H        0.085706        0.003750       -0.006204       -0.002454
   5 H        0.074091        0.003784       -0.006211       -0.002427
   6 H        0.085706        0.003750       -0.006204       -0.002454
   7 H        0.033243        0.982209       -0.000074        0.982135
  --------------------------------------------------------------------
  Sum:       -1.000000        1.999365       -1.999365        0.000000
  
  Multipole moment analysis of the density matrix
    Molecular charge:                      -1.000000
    Number of electrons:                   18.000000
      Center of electronic charge [Ang]: [  0.000000,  -0.000000,   0.047828]
    Total nuclear charge:                  17.000000
      Center of nuclear charge [Ang]:    [ -0.000000,   0.000000,  -0.000000]
    Dipole moment [D]:                     4.135090
      Cartesian components [D]:          [ -0.000000,   0.000000,  -4.135090]
    RMS size of the density [Ang]:         2.839579
      Cartesian components [Ang]:        [  0.707245,   0.758756,   2.643351]
  
  Exciton analysis of the difference density matrix
    <r_h> [Ang]:                  [  0.000000,  -0.000000,  -4.641506]
    <r_e> [Ang]:                  [  0.000000,  -0.000000,   0.607299]
    |<r_e - r_h>| [Ang]:            5.248805
    Hole size [Ang]:                5.466547
      Cartesian components [Ang]: [  0.624790,   0.793314,   5.372469]
    Electron size [Ang]:            2.951150
      Cartesian components [Ang]: [  1.109003,   1.895378,   1.971532]

  Transition density matrix analysis:
  -----------------------------------
  
  CT numbers (Mulliken)
    omega =     0.0027
    <Phe> =    -0.0256
  
  Exciton analysis of the transition density matrix
    Trans. dipole moment [D]:             0.001770
      Cartesian components [D]:         [  0.000000,  -0.001770,  -0.000000]
    <r_h> [Ang]:                        [  0.000000,  -0.000000,  -2.868618]
    <r_e> [Ang]:                        [ -0.000000,  -0.000000,  -6.377472]
    |<r_e - r_h>| [Ang]:                  3.508854
    Hole size [Ang]:                      5.159320
      Cartesian components [Ang]:       [  0.606654,   0.832510,   5.055441]
    Electron size [Ang]:                  5.383929
      Cartesian components [Ang]:       [  0.931629,   1.399271,   5.114763]
    RMS electron-hole separation [Ang]:  10.782308
      Cartesian components [Ang]:       [  1.111732,   1.627209,  10.600679]
    Covariance(r_h, r_e) [Ang^2]:       -24.170416
    Correlation coefficient:             -0.870146
    Center-of-mass size [Ang]:            1.347631
      Cartesian components [Ang]:       [  0.555872,   0.814594,   0.918451]

  Decomposition into state-averaged NTOs
                   omega =   0.3%
  ----------------------------------------------------------------------------


  Excited state 9 (singlet, B2)                                    [converged]
  ----------------------------------------------------------------------------
  Term symbol:  9 (1) B2                                    R^2 =  6.71603e-06

  Total energy:                                            -78.5443905397 a.u.
  Excitation energy:                                               7.321299 eV

  Osc. strength:                                                      0.000036
  Trans. dip. moment [a.u.]:           [  -0.000000,    0.014176,   -0.000000]
  <i|r^2|0> [a.u.]:                    [  -0.000000,   -0.000000,    0.000000]

  Dip. moment [a.u.]:                  [  -0.000000,    0.000000,   -0.579348]
  Total dipole [Debye]:                                               1.472557
  <r^2> [a.u.]:                        [  54.934010,   43.751210,  495.902041]
  Total <r^2> [a.u.]:                                               594.587261

  V1^2 = 0.0028, V2^2 = 0.9972

  Important amplitudes:
      occ i      occ j       vir a       vir b          v   
    ---------------------------------------------------------
     6 (A1) A   1 (B2) B    9 (A1) A    7 (A1) B      0.1409
     6 (A1) A   1 (B2) B    8 (A1) A    8 (A1) B      0.1131
    ---------------------------------------------------------

  Density matrix analysis:
  ------------------------
  NOs
    Occupation of frontier NOs:
       0.9408   0.9503
    Number of electrons: 18.000000
    Number of unpaired electrons: n_u =  3.91616, n_u,nl =  3.72147
    NO participation ratio (PR_NO):  5.386138
  
  
  Mulliken Population Analysis
  Atom      Charge (e)              h+              e-           Del q
  --------------------------------------------------------------------
   1 C       -0.504880        0.490196       -0.827933       -0.337737
   2 C       -0.960544        0.515016       -1.262240       -0.747223
   3 H        0.104284        0.003244        0.024522        0.027767
   4 H        0.118266        0.002754        0.027352        0.030106
   5 H        0.104284        0.003244        0.024522        0.027767
   6 H        0.118266        0.002754        0.027352        0.030106
   7 H        0.020323        0.981543       -0.012328        0.969215
  --------------------------------------------------------------------
  Sum:       -1.000000        1.998752       -1.998752       -0.000000
  
  Multipole moment analysis of the density matrix
    Molecular charge:                      -1.000000
    Number of electrons:                   18.000000
      Center of electronic charge [Ang]: [  0.000000,  -0.000000,   0.017032]
    Total nuclear charge:                  17.000000
      Center of nuclear charge [Ang]:    [ -0.000000,   0.000000,  -0.000000]
    Dipole moment [D]:                     1.472557
      Cartesian components [D]:          [ -0.000000,   0.000000,  -1.472557]
    RMS size of the density [Ang]:         3.041346
      Cartesian components [Ang]:        [  0.924454,   0.825011,   2.777504]
  
  Exciton analysis of the difference density matrix
    <r_h> [Ang]:                  [ -0.000000,  -0.000000,  -4.639996]
    <r_e> [Ang]:                  [  0.000000,  -0.000000,   0.333083]
    |<r_e - r_h>| [Ang]:            4.973079
    Hole size [Ang]:                5.465771
      Cartesian components [Ang]: [  0.622408,   0.794520,   5.371778]
    Electron size [Ang]:            4.427136
      Cartesian components [Ang]: [  2.102129,   2.130790,   3.261951]

  Transition density matrix analysis:
  -----------------------------------
  
  CT numbers (Mulliken)
    omega =     0.0028
    <Phe> =    -0.0064
  
  Exciton analysis of the transition density matrix
    Trans. dipole moment [D]:             0.018016
      Cartesian components [D]:         [ -0.000000,   0.018016,  -0.000000]
    <r_h> [Ang]:                        [  0.000000,  -0.000000,  -1.925201]
    <r_e> [Ang]:                        [  0.000000,  -0.000000,  -0.373166]
    |<r_e - r_h>| [Ang]:                  1.552035
    Hole size [Ang]:                      4.689612
      Cartesian components [Ang]:       [  0.579195,   0.839691,   4.577326]
    Electron size [Ang]:                  4.212571
      Cartesian components [Ang]:       [  1.871835,   2.006145,   3.196463]
    RMS electron-hole separation [Ang]:   6.943161
      Cartesian components [Ang]:       [  1.958562,   2.169419,   6.298026]
    Covariance(r_h, r_e) [Ang^2]:        -3.030224
    Correlation coefficient:             -0.153388
    Center-of-mass size [Ang]:            2.901628
      Cartesian components [Ang]:       [  0.980115,   1.090071,   2.504109]

  Decomposition into state-averaged NTOs
                   omega =   0.3%
  ----------------------------------------------------------------------------


  Excited state 10 (singlet, B2)                                    [converged]
  ----------------------------------------------------------------------------
  Term symbol:  10 (1) B2                                   R^2 =  7.77444e-06

  Total energy:                                            -78.5414987799 a.u.
  Excitation energy:                                               7.399988 eV

  Osc. strength:                                                      0.000204
  Trans. dip. moment [a.u.]:           [   0.000000,    0.033550,    0.000000]
  <i|r^2|0> [a.u.]:                    [  -0.000000,   -0.000000,   -0.000000]

  Dip. moment [a.u.]:                  [  -0.000000,    0.000000,   -1.536915]
  Total dipole [Debye]:                                               3.906449
  <r^2> [a.u.]:                        [  53.889234,   41.634619,  517.408528]
  Total <r^2> [a.u.]:                                               612.932382

  V1^2 = 0.0062, V2^2 = 0.9938

  Important amplitudes:
      occ i      occ j       vir a       vir b          v   
    ---------------------------------------------------------
     6 (A1) A   1 (B2) B    7 (A1) A    7 (A1) B     -0.1989
     6 (A1) A   1 (B2) B   10 (A1) A    7 (A1) B     -0.1234
    ---------------------------------------------------------

  Density matrix analysis:
  ------------------------
  NOs
    Occupation of frontier NOs:
       0.9402   0.9710
    Number of electrons: 18.000000
    Number of unpaired electrons: n_u =  3.18193, n_u,nl =  2.83081
    NO participation ratio (PR_NO):  4.708612
  
  
  Mulliken Population Analysis
  Atom      Charge (e)              h+              e-           Del q
  --------------------------------------------------------------------
   1 C       -0.722422        0.514807       -1.070086       -0.555279
   2 C       -0.664847        0.489074       -0.940600       -0.451527
   3 H        0.086266        0.003546        0.006203        0.009748
   4 H        0.095759        0.003512        0.004086        0.007599
   5 H        0.086266        0.003546        0.006203        0.009748
   6 H        0.095759        0.003512        0.004086        0.007599
   7 H        0.023219        0.978995       -0.006884        0.972111
  --------------------------------------------------------------------
  Sum:       -1.000000        1.996993       -1.996993       -0.000000
  
  Multipole moment analysis of the density matrix
    Molecular charge:                      -1.000000
    Number of electrons:                   18.000000
      Center of electronic charge [Ang]: [  0.000000,  -0.000000,   0.045183]
    Total nuclear charge:                  17.000000
      Center of nuclear charge [Ang]:    [ -0.000000,   0.000000,  -0.000000]
    Dipole moment [D]:                     3.906448
      Cartesian components [D]:          [ -0.000000,   0.000000,  -3.906448]
    RMS size of the density [Ang]:         3.087626
      Cartesian components [Ang]:        [  0.915621,   0.804808,   2.836786]
  
  Exciton analysis of the difference density matrix
    <r_h> [Ang]:                  [ -0.000000,   0.000000,  -4.627126]
    <r_e> [Ang]:                  [  0.000000,  -0.000000,   0.604075]
    |<r_e - r_h>| [Ang]:            5.231202
    Hole size [Ang]:                5.468092
      Cartesian components [Ang]: [  0.622201,   0.793718,   5.374282]
    Electron size [Ang]:            4.668642
      Cartesian components [Ang]: [  2.067785,   2.060494,   3.643466]

  Transition density matrix analysis:
  -----------------------------------
  
  CT numbers (Mulliken)
    omega =     0.0063
    <Phe> =    -0.0021
  
  Exciton analysis of the transition density matrix
    Trans. dipole moment [D]:             0.042638
      Cartesian components [D]:         [  0.000000,   0.042638,   0.000000]
    <r_h> [Ang]:                        [  0.000000,   0.000000,   0.014498]
    <r_e> [Ang]:                        [  0.000000,  -0.000000,   2.290383]
    |<r_e - r_h>| [Ang]:                  2.275885
    Hole size [Ang]:                      2.828008
      Cartesian components [Ang]:       [  0.525522,   0.855356,   2.643827]
    Electron size [Ang]:                  3.709866
      Cartesian components [Ang]:       [  1.792962,   1.802690,   2.701612]
    RMS electron-hole separation [Ang]:   4.918951
      Cartesian components [Ang]:       [  1.867737,   1.987167,   4.093752]
    Covariance(r_h, r_e) [Ang^2]:         1.372153
    Correlation coefficient:              0.130787
    Center-of-mass size [Ang]:            2.475128
      Cartesian components [Ang]:       [  0.934522,   1.001725,   2.061425]

  Decomposition into state-averaged NTOs
                   omega =   0.6%
  ----------------------------------------------------------------------------


--------------------------------------------------------------------------------
  Time of ADC calculation:  CPU 562.48 s  wall 140.98 s
================================================================================
 
 --------------------------------------------------------------
             Orbital Energies (a.u.) and Symmetries
 --------------------------------------------------------------
 
 Alpha MOs, Restricted
 -- Occupied --                  
-11.186 -11.184  -0.991  -0.730  -0.609  -0.516  -0.464  -0.326
  1 A1    2 A1    3 A1    4 A1    1 B1    5 A1    2 B1    1 B2                 
  0.015
  6 A1                                                                         
 -- Virtual --                   
  0.080   0.080   0.084   0.107   0.109   0.123   0.145   0.173
  3 B1    7 A1    2 B2    4 B1    3 B2    8 A1    9 A1    4 B2                 
  0.174   0.193   0.217   0.218   0.242   0.297   0.317   0.347
 10 A1    5 B1    6 B1    5 B2   11 A1    6 B2   12 A1   13 A1                 
  0.385   0.398   0.493   0.561   0.716   0.797   0.892   0.910
  7 B1   14 A1    8 B1   15 A1   16 A1    9 B1    7 B2   17 A1                 
  0.953   0.954   0.981   1.046   1.049   1.075   1.083   1.165
 10 B1    8 B2   18 A1   19 A1   20 A1   21 A1   11 B1    1 A2                 
  1.334   1.336   1.359   1.398   1.656   1.667   1.746   1.896
  9 B2    2 A2   22 A1   12 B1   23 A1   13 B1   14 B1   10 B2                 
  1.953   1.953   1.953   1.971   1.988   2.021   2.068   2.082
 15 B1   11 B2   24 A1   25 A1   12 B2   26 A1    3 A2   16 B1                 
  2.221   2.321   2.463   2.490   2.588   2.625   2.850   2.852
 13 B2   27 A1    4 A2   28 A1   17 B1   29 A1   30 A1   18 B1                 
  3.309   3.391
 31 A1   19 B1                                                                 
 
 Beta MOs, Restricted
 -- Occupied --                  
-11.186 -11.184  -0.991  -0.730  -0.609  -0.516  -0.464  -0.326
  1 A1    2 A1    3 A1    4 A1    1 B1    5 A1    2 B1    1 B2                 
  0.015
  6 A1                                                                         
 -- Virtual --                   
  0.080   0.080   0.084   0.107   0.109   0.123   0.145   0.173
  3 B1    7 A1    2 B2    4 B1    3 B2    8 A1    9 A1    4 B2                 
  0.174   0.193   0.217   0.218   0.242   0.297   0.317   0.347
 10 A1    5 B1    6 B1    5 B2   11 A1    6 B2   12 A1   13 A1                 
  0.385   0.398   0.493   0.561   0.716   0.797   0.892   0.910
  7 B1   14 A1    8 B1   15 A1   16 A1    9 B1    7 B2   17 A1                 
  0.953   0.954   0.981   1.046   1.049   1.075   1.083   1.165
 10 B1    8 B2   18 A1   19 A1   20 A1   21 A1   11 B1    1 A2                 
  1.334   1.336   1.359   1.398   1.656   1.667   1.746   1.896
  9 B2    2 A2   22 A1   12 B1   23 A1   13 B1   14 B1   10 B2                 
  1.953   1.953   1.953   1.971   1.988   2.021   2.068   2.082
 15 B1   11 B2   24 A1   25 A1   12 B2   26 A1    3 A2   16 B1                 
  2.221   2.321   2.463   2.490   2.588   2.625   2.850   2.852
 13 B2   27 A1    4 A2   28 A1   17 B1   29 A1   30 A1   18 B1                 
  3.309   3.391
 31 A1   19 B1                                                                 
 --------------------------------------------------------------
 
          Ground-State Mulliken Net Atomic Charges

     Atom                 Charge (a.u.)
  ----------------------------------------
      1 C                    -0.157385
      2 C                    -0.179828
      3 H                     0.069572
      4 H                     0.081223
      5 H                     0.069572
      6 H                     0.081223
      7 H                    -0.964377
  ----------------------------------------
  Sum of atomic charges =    -1.000000

 -----------------------------------------------------------------
                    Cartesian Multipole Moments
 -----------------------------------------------------------------
    Charge (ESU x 10^10)
                -4.8032
    Dipole Moment (Debye)
         X      -0.0000      Y      -0.0000      Z      46.8503
       Tot      46.8503
    Quadrupole Moments (Debye-Ang)
        XX     -16.9312     XY      -0.0000     YY     -21.0961
        XZ       0.0000     YZ       0.0000     ZZ    -488.0862
    Octopole Moments (Debye-Ang^2)
       XXX      -0.0000    XXY       0.0000    XYY      -0.0000
       YYY       0.0000    XXZ      33.0172    XYZ       0.0000
       YYZ      30.4413    XZZ      -0.0000    YZZ      -0.0000
       ZZZ    4798.5573
    Hexadecapole Moments (Debye-Ang^3)
      XXXX     -51.6090   XXXY      -0.0000   XXYY     -17.1785
      XYYY      -0.0000   YYYY     -46.1951   XXXZ       0.0000
      XXYZ      -0.0000   XYYZ       0.0000   YYYZ      -0.0000
      XXZZ    -428.7664   XYZZ       0.0000   YYZZ    -432.6958
      XZZZ       0.0000   YZZZ       0.0000   ZZZZ  -49628.6089
 -----------------------------------------------------------------
 Total job time:  223.49s(wall), 609.00s(cpu) 
 Sat Mar 26 14:56:15 2022

        *************************************************************
        *                                                           *
        *  Thank you very much for using Q-Chem.  Have a nice day.  *
        *                                                           *
        *************************************************************


