/src/tsommerfeld/qchem/exe/qcprog.exe .input1.555556.21159.qcin.1 /src/jdavis/qchem.scratch/qchem21159/

                  Welcome to Q-Chem
     A Quantum Leap Into The Future Of Chemistry


 Q-Chem 5.4 (devel), Q-Chem, Inc., Pleasanton, CA (2021)

 E. Epifanovsky,  A. T. B. Gilbert,  Xintian Feng,  Joonho Lee,  Yuezhi Mao,  
 N. Mardirossian,  P. Pokhilko,  A. White,  M. Wormit,  M. P. Coons,  
 A. L. Dempwolff,  Zhengting Gan,  D. Hait,  P. R. Horn,  L. D. Jacobson,  
 I. Kaliman,  J. Kussmann,  A. W. Lange,  Ka Un Lao,  D. S. Levine,  Jie Liu,  
 S. C. McKenzie,  A. F. Morrison,  K. Nanda,  F. Plasser,  D. R. Rehn,  
 M. L. Vidal,  Zhi-Qiang You,  Ying Zhu,  B. Alam,  B. Albrecht,  
 A. Aldossary,  E. Alguire,  J. H. Andersen,  D. Barton,  K. Begam,  A. Behn,  
 Y. A. Bernard,  E. J. Berquist,  H. Burton,  A. Carreras,  K. Carter-Fenk,  
 R. Chakraborty,  A. D. Chien,  K. D. Closser,  V. Cofer-Shabica,  
 S. Dasgupta,  Jia Deng,  M. de Wergifosse,  M. Diedenhofen,  Hainam Do,  
 S. Ehlert,  Po-Tung Fang,  S. Fatehi,  Qingguo Feng,  T. Friedhoff,  
 J. Gayvert,  Qinghui Ge,  G. Gidofalvi,  M. Goldey,  J. Gomes,  
 C. Gonzalez-Espinoza,  S. Gulania,  A. Gunina,  M. W. D. Hanson-Heine,  
 P. H. P. Harbach,  A. W. Hauser,  M. F. Herbst,  M. Hernandez Vera,  
 M. Hodecker,  Z. C. Holden,  S. Houck,  Xunkun Huang,  Kerwin Hui,  
 B. C. Huynh,  M. Ivanov,  Hyunjun Ji,  Hanjie Jiang,  B. Kaduk,  S. Kaehler,  
 K. Khistyaev,  Jaehoon Kim,  P. Klunzinger,  Z. Koczor-Benda,  
 Joong Hoon Koh,  D. Kosenkov,  L. Koulias,  T. Kowalczyk,  C. M. Krauter,  
 K. Kue,  A. Kunitsa,  T. Kus,  A. Landau,  K. V. Lawler,  D. Lefrancois,  
 S. Lehtola,  Rain Li,  Yi-Pei Li,  Jiashu Liang,  M. Liebenthal,  
 Hung-Hsuan Lin,  You-Sheng Lin,  Fenglai Liu,  Kuan-Yu Liu,  
 M. Loipersberger,  A. Luenser,  A. Manjanath,  P. Manohar,  E. Mansoor,  
 S. F. Manzer,  Shan-Ping Mao,  A. V. Marenich,  T. Markovich,  S. Mason,  
 S. A. Maurer,  P. F. McLaughlin,  M. F. S. J. Menger,  J.-M. Mewes,  
 S. A. Mewes,  P. Morgante,  J. W. Mullinax,  K. J. Oosterbaan,  G. Paran,  
 Alexander C. Paul,  Suranjan K. Paul,  F. Pavosevic,  Zheng Pei,  S. Prager,  
 E. I. Proynov,  E. Ramos,  B. Rana,  A. E. Rask,  A. Rettig,  R. M. Richard,  
 F. Rob,  E. Rossomme,  T. Scheele,  M. Scheurer,  M. Schneider,  
 N. Sergueev,  S. M. Sharada,  W. Skomorowski,  D. W. Small,  C. J. Stein,  
 Yu-Chuan Su,  E. J. Sundstrom,  Zhen Tao,  J. Thirman,  T. Tsuchimochi,  
 N. M. Tubman,  S. P. Veccham,  O. Vydrov,  J. Wenzel,  J. Witte,  A. Yamada,  
 Kun Yao,  S. Yeganeh,  S. R. Yost,  A. Zech,  Igor Ying Zhang,  Xing Zhang,  
 Yu Zhang,  D. Zuev,  A. Aspuru-Guzik,  A. T. Bell,  N. A. Besley,  
 K. B. Bravaya,  B. R. Brooks,  D. Casanova,  Jeng-Da Chai,  S. Coriani,  
 C. J. Cramer,  A. E. DePrince, III,  R. A. DiStasio Jr.,  A. Dreuw,  
 B. D. Dunietz,  T. R. Furlani,  W. A. Goddard III,  S. Grimme,  
 S. Hammes-Schiffer,  T. Head-Gordon,  W. J. Hehre,  Chao-Ping Hsu,  
 T.-C. Jagau,  Yousung Jung,  A. Klamt,  Jing Kong,  D. S. Lambrecht,  
 WanZhen Liang,  N. J. Mayhall,  C. W. McCurdy,  J. B. Neaton,  
 C. Ochsenfeld,  J. A. Parkhill,  R. Peverati,  V. A. Rassolov,  Yihan Shao,  
 L. V. Slipchenko,  T. Stauch,  R. P. Steele,  J. E. Subotnik,  
 A. J. W. Thom,  A. Tkatchenko,  D. G. Truhlar,  T. Van Voorhis,  
 T. A. Wesolowski,  K. B. Whaley,  H. L. Woodcock III,  P. M. Zimmerman,  
 S. Faraji,  P. M. W. Gill,  M. Head-Gordon,  J. M. Herbert,  A. I. Krylov

 Additional authors for Version 5.4.1: 
 S. Kotaru,  Shaozhi Li,  Xiangyuan Li,  F. Matz,  A. Molle,  Haisheng Ren,  
 Yingli Su,  Hung-Yi Tsai,  C. Utku,  Fang Wang

 Contributors to earlier versions of Q-Chem not listed above: 
 R. D. Adamson,  B. Austin,  R. Baer,  J. Baker,  G. J. O. Beran,  
 K. Brandhorst,  S. T. Brown,  E. F. C. Byrd,  A. K. Chakraborty,  
 G. K. L. Chan,  Chun-Min Chang,  Yunqing Chen,  C.-L. Cheng,  
 Siu Hung Chien,  D. M. Chipman,  D. L. Crittenden,  H. Dachsel,  
 R. J. Doerksen,  A. D. Dutoi,  R. G. Edgar,  J. Fosso-Tande,  
 L. Fusti-Molnar,  D. Ghosh,  A. Ghysels,  A. Golubeva-Zadorozhnaya,  
 J. Gonthier,  M. S. Gordon,  S. R. Gwaltney,  G. Hawkins,  J. E. Herr,  
 A. Heyden,  S. Hirata,  E. G. Hohenstein,  G. Kedziora,  F. J. Keil,  
 C. Kelley,  Jihan Kim,  R. A. King,  R. Z. Khaliullin,  P. P. Korambath,  
 W. Kurlancheek,  A. Laurent,  A. M. Lee,  M. S. Lee,  S. V. Levchenko,  
 Ching Yeh Lin,  D. Liotard,  E. Livshits,  R. C. Lochan,  I. Lotan,  
 L. A. Martinez-Martinez,  P. E. Maslen,  N. Nair,  D. P. O'Neill,  
 D. Neuhauser,  E. Neuscamman,  C. M. Oana,  R. Olivares-Amaya,  R. Olson,  
 T. M. Perrine,  B. Peters,  P. A. Pieniazek,  A. Prociuk,  Y. M. Rhee,  
 J. Ritchie,  M. A. Rohrdanz,  E. Rosta,  N. J. Russ,  H. F. Schaefer III,  
 M. W. Schmidt,  N. E. Schultz,  S. Sharma,  N. Shenvi,  C. D. Sherrill,  
 A. C. Simmonett,  A. Sodt,  T. Stein,  D. Stuck,  K. S. Thanthiriwatte,  
 V. Vanovschi,  L. Vogt,  Tao Wang,  A. Warshel,  M. A. Watson,  
 C. F. Williams,  Q. Wu,  X. Xu,  Jun Yang,  W. Zhang,  Yan Zhao

 Please cite Q-Chem as follows:
 Y. Shao et al., Mol. Phys. 113, 184-215 (2015)
 DOI: 10.1080/00268976.2014.952696

 Q-Chem 5.4.1 for Intel X86 EM64T Linux

 Parts of Q-Chem use Armadillo 9.900.5 (Nocturnal Misbehaviour).
 http://arma.sourceforge.net/

 Q-Chem begins on Sat Mar 26 16:55:50 2022  

 Host: node01
0

     Scratch files written to /src/jdavis/qchem.scratch/qchem21159//
 Processing $rem in /src/tsommerfeld/qchem/config/preferences:
 Processing $rem in /home/jdavis/.qchemrc:

 Checking the input file for inconsistencies... 	...done.

--------------------------------------------------------------
User input:
--------------------------------------------------------------
$molecule
-1 1
C         0.0000000000    0.0000000000    0.8417902907
C         0.0000000000    0.0000000000   -0.4872097093
H         0.9623488518    0.0000000000    1.3363703127
H         0.9623489048    0.0000000000   -0.9817896873
H        -0.9623488518    0.0000000000    1.3363703127
H        -0.9623489048    0.0000000000   -0.9817896873
H         0.0000000000    0.0000000000   -10.4872097093
$end

$rem
   METHOD adc(3)
   BASIS gen
   PURECART 11
   EE_STATES [0,0,0,10]
   scf_convergence 8
   ADC_DAVIDSON_MAXITER 120
   ADC_DAVIDSON_MAXSUBSPACE 200
   adc_nguess_singles 100
   THRESH 14
   S2THRESH 14
   adc_davidson_conv 5
   adc_davidson_thresh 14
   THREADS 10
   MEM_TOTAL 95000
   STATE_ANALYSIS TRUE
$end
$basis
C 1
S   9   1.00
      6.665000D+03           6.920000D-04
      1.000000D+03           5.329000D-03
      2.280000D+02           2.707700D-02
      6.471000D+01           1.017180D-01
      2.106000D+01           2.747400D-01
      7.495000D+00           4.485640D-01
      2.797000D+00           2.850740D-01
      5.215000D-01           1.520400D-02
      1.596000D-01          -3.191000D-03
S   9   1.00
      6.665000D+03          -1.460000D-04
      1.000000D+03          -1.154000D-03
      2.280000D+02          -5.725000D-03
      6.471000D+01          -2.331200D-02
      2.106000D+01          -6.395500D-02
      7.495000D+00          -1.499810D-01
      2.797000D+00          -1.272620D-01
      5.215000D-01           5.445290D-01
      1.596000D-01           5.804960D-01
S   1   1.00
      1.596000D-01           1.000000D+00
S   1   1.00
      0.0469000              1.0000000
P   4   1.00
      9.439000D+00           3.810900D-02
      2.002000D+00           2.094800D-01
      5.456000D-01           5.085570D-01
      1.517000D-01           4.688420D-01
P   1   1.00
      1.517000D-01           1.000000D+00
P   1   1.00
      0.0943911      1.0000000
P   1   1.00
      0.0471956      1.0000000
D   1   1.00
      5.500000D-01           1.0000000
****
C 2
S   9   1.00
      6.665000D+03           6.920000D-04
      1.000000D+03           5.329000D-03
      2.280000D+02           2.707700D-02
      6.471000D+01           1.017180D-01
      2.106000D+01           2.747400D-01
      7.495000D+00           4.485640D-01
      2.797000D+00           2.850740D-01
      5.215000D-01           1.520400D-02
      1.596000D-01          -3.191000D-03
S   9   1.00
      6.665000D+03          -1.460000D-04
      1.000000D+03          -1.154000D-03
      2.280000D+02          -5.725000D-03
      6.471000D+01          -2.331200D-02
      2.106000D+01          -6.395500D-02
      7.495000D+00          -1.499810D-01
      2.797000D+00          -1.272620D-01
      5.215000D-01           5.445290D-01
      1.596000D-01           5.804960D-01
S   1   1.00
      1.596000D-01           1.000000D+00
S   1   1.00
      0.0469000              1.0000000
P   4   1.00
      9.439000D+00           3.810900D-02
      2.002000D+00           2.094800D-01
      5.456000D-01           5.085570D-01
      1.517000D-01           4.688420D-01
P   1   1.00
      1.517000D-01           1.000000D+00
P   1   1.00
      0.0943911      1.0000000
P   1   1.00
      0.0471956      1.0000000
D   1   1.00
      5.500000D-01           1.0000000
****
H 3
cc-pVDZ
****
H 4
cc-pVDZ
****
H 5
cc-pVDZ
****
H 6
cc-pVDZ
****
H 7
aug-cc-pVDZ
****
$end
--------------------------------------------------------------
 ----------------------------------------------------------------
             Standard Nuclear Orientation (Angstroms)
    I     Atom           X                Y                Z
 ----------------------------------------------------------------
    1      C       0.0000000000     0.0000000000     1.2918235242
    2      C       0.0000000000     0.0000000000    -0.0371764758
    3      H       0.9623488518     0.0000000000     1.7864035462
    4      H       0.9623489048     0.0000000000    -0.5317564538
    5      H      -0.9623488518     0.0000000000     1.7864035462
    6      H      -0.9623489048     0.0000000000    -0.5317564538
    7      H       0.0000000000     0.0000000000   -10.0371764758
 ----------------------------------------------------------------
 Molecular Point Group                 C2v   NOp =  4
 Largest Abelian Subgroup              C2v   NOp =  4
 Nuclear Repulsion Energy =          34.38697142 hartrees
 There are        9 alpha and        9 beta electrons
 Requested basis set is non-standard
 There are 33 shells and 67 basis functions
 Total memory of 95000 MB is distributed as follows: 
   MEM_STATIC is set to 192 MB
   QALLOC/CCMAN JOB total memory use is  94808 MB
 Warning: actual memory use might exceed 95000 MB

 Total QAlloc Memory Limit  95000 MB
 Mega-Array Size       188 MB
 MEM_STATIC part       192 MB

                       Distance Matrix (Angstroms)
             C (  1)   C (  2)   H (  3)   H (  4)   H (  5)   H (  6)
   C (  2)  1.329000
   H (  3)  1.082000  2.061931
   H (  4)  2.061931  1.082000  2.318160
   H (  5)  1.082000  2.061931  1.924698  3.013026
   H (  6)  2.061931  1.082000  3.013026  1.924698  2.318160
   H (  7) 11.329000 10.000000 11.862679  9.554011 11.862679  9.554011

 
 A cutoff of  1.0D-14 yielded    492 shell pairs
 There are      2086 function pairs (      2223 Cartesian)
 Smallest overlap matrix eigenvalue = 1.81E-04

 Scale SEOQF with 1.000000e-01/1.000000e-01/1.000000e-02

 Standard Electronic Orientation quadrupole field applied
 Nucleus-field energy     =    -0.0000000011 hartrees
 ================ Generating on-the-fly SAD Guess ================
Attempting to make child job directory: /src/jdavis/qchem.scratch/qchem21159//Frg1/
Attempting to make child job directory: /src/jdavis/qchem.scratch/qchem21159//Frg2/
Creating input file /src/jdavis/qchem.scratch/qchem21159/Frg1.input
using default PutDataFrgm: nothing
calling putenv with: QCSCRATCH=/src/jdavis/qchem.scratch/qchem21159/ 
Spawning Job For Fragment 0
Done Job For Fragment 0
calling putenv with: QCSCRATCH=/src/jdavis/qchem.scratch 
calling putenv with: QCTHREADS=1 
Creating input file /src/jdavis/qchem.scratch/qchem21159/Frg2.input
using default PutDataFrgm: nothing
calling putenv with: QCSCRATCH=/src/jdavis/qchem.scratch/qchem21159/ 
Spawning Job For Fragment 1
Done Job For Fragment 1
calling putenv with: QCSCRATCH=/src/jdavis/qchem.scratch 
calling putenv with: QCTHREADS=1 
 Time for running child jobs:  CPU 1.81 s  wall 54.53 s
 ============= Method Specific SAD Guess Constructed =============
 Guess from on-the-fly superposition of atomic densities
 Warning: Energy on first SCF cycle will be non-variational
 A restricted Hartree-Fock SCF calculation will be
 performed using Pulay DIIS extrapolation
 SCF converges when DIIS error is below 1.0E-08
 using 10 threads for integral computing
 -------------------------------------------------------
 OpenMP Integral computing Module                
 Release: version 1.0, May 2013, Q-Chem Inc. Pittsburgh 
 -------------------------------------------------------
 ---------------------------------------
  Cycle       Energy         DIIS Error
 ---------------------------------------
    1     -78.8023276178      7.36E-02
    2     -78.4469331423      6.48E-03
    3     -78.4848663727      1.49E-03
    4     -78.4868048560      4.82E-04
    5     -78.4869814560      7.70E-05
    6     -78.4869897335      1.81E-05
    7     -78.4869901986      8.83E-06
    8     -78.4869902937      1.72E-06
    9     -78.4869903003      5.59E-07
   10     -78.4869903009      1.15E-07
   11     -78.4869903009      1.20E-08
   12     -78.4869903009      1.51E-09 Convergence criterion met
 ---------------------------------------
 SCF time:  CPU 11.58 s  wall 1.16 s
 SCF   energy in the final basis set = -78.48699030
 Total energy in the final basis set = -78.48699030
================================================================================
|                                                                              |
|                                 A D C  M A N                                 |
|                                                                              |
 ------------------------------------------------------------------------------ 
|                                                                              |
| Components:                                                                  |
|                                                                              |
| - libvmm - 1.3-trunk                                                         |
|   Authors:                                                                   |
|   Evgeny Epifanovsky, Ilya Kaliman                                           |
|                                                                              |
| - libtensor - 2.5-trunk                                                      |
|   Authors:                                                                   |
|   Evgeny Epifanovsky, Michael Wormit, Dmitry Zuev, Sam Manzer,               |
|   Ilya Kaliman                                                               |
|                                                                              |
| - libwfa - 1.1-trunk                                                         |
|   Authors:                                                                   |
|   Felix Plasser, Stefanie Mewes (Baeppler), Benjamin Thomitzni,              |
|   Michael Wormit, Feng Chen, Anna I. Krylov, Pavel Pokhilko                  |
|                                                                              |
| - libadc - 1.1-trunk                                                         |
|   Authors:                                                                   |
|   Michael Wormit, Adrian L. Dempwolff, Philipp H. P. Harbach,                |
|   Caroline Krauter, Dirk Rehn, Matthias Schneider, Jan Wenzel                |
|                                                                              |
| - adcman - 2.6-trunk                                                         |
|   Authors:                                                                   |
|   Michael Wormit, Adrian L. Dempwolff, Philipp H. P. Harbach,                |
|   Caroline Krauter, Daniel Lefrancois, Jan-Michael Mewes, Dirk Rehn,         |
|   Matthias Schneider, Jan Wenzel, Andreas Dreuw                              |
|                                                                              |
| Authors of earlier versions of ADCMAN:                                       |
| Andreas Dreuw, Jan Hendrik Starcke, Dirk Rehn, Michael Wormit                |
|                                                                              |
================================================================================

 
 Alpha MOs, Restricted
 -- Occupied --                  
-11.187 -11.185  -0.992  -0.732  -0.610  -0.517  -0.465  -0.327
  1 A1    2 A1    3 A1    4 A1    1 B1    5 A1    2 B1    1 B2                 
  0.022
  6 A1                                                                         
 -- Virtual --                   
  0.132   0.145   0.152   0.155   0.162   0.186   0.201   0.252
  7 A1    3 B1    2 B2    8 A1    3 B2    4 B1    9 A1    4 B2                 
  0.267   0.311   0.376   0.393   0.410   0.438   0.444   0.457
 10 A1   11 A1    5 B1   12 A1   13 A1    6 B1   14 A1    5 B2                 
  0.477   0.545   0.597   0.669   0.889   0.898   0.976   1.044
  7 B1    6 B2    8 B1   15 A1   16 A1    9 B1   17 A1   18 A1                 
  1.058   1.085   1.155   1.164   1.182   1.201   1.245   1.299
 19 A1   10 B1   20 A1    1 A2   11 B1   21 A1    7 B2    8 B2                 
  1.334   1.351   1.399   1.538   1.676   1.791   1.813   1.931
  2 A2    9 B2   22 A1   12 B1   23 A1   13 B1   14 B1   10 B2                 
  1.967   1.967   1.967   1.995   2.023   2.067   2.142   2.154
 24 A1   15 B1   11 B2   12 B2   25 A1    3 A2   26 A1   16 B1                 
  2.235   2.383   2.462   2.530   2.606   2.632   2.920   2.923
 13 B2   27 A1    4 A2   28 A1   17 B1   29 A1   30 A1   18 B1                 
  3.341   3.403
 31 A1   19 B1                                                                 
 
 Beta MOs, Restricted
 -- Occupied --                  
-11.187 -11.185  -0.992  -0.732  -0.610  -0.517  -0.465  -0.327
  1 A1    2 A1    3 A1    4 A1    1 B1    5 A1    2 B1    1 B2                 
  0.022
  6 A1                                                                         
 -- Virtual --                   
  0.132   0.145   0.152   0.155   0.162   0.186   0.201   0.252
  7 A1    3 B1    2 B2    8 A1    3 B2    4 B1    9 A1    4 B2                 
  0.267   0.311   0.376   0.393   0.410   0.438   0.444   0.457
 10 A1   11 A1    5 B1   12 A1   13 A1    6 B1   14 A1    5 B2                 
  0.477   0.545   0.597   0.669   0.889   0.898   0.976   1.044
  7 B1    6 B2    8 B1   15 A1   16 A1    9 B1   17 A1   18 A1                 
  1.058   1.085   1.155   1.164   1.182   1.201   1.245   1.299
 19 A1   10 B1   20 A1    1 A2   11 B1   21 A1    7 B2    8 B2                 
  1.334   1.351   1.399   1.538   1.676   1.791   1.813   1.931
  2 A2    9 B2   22 A1   12 B1   23 A1   13 B1   14 B1   10 B2                 
  1.967   1.967   1.967   1.995   2.023   2.067   2.142   2.154
 24 A1   15 B1   11 B2   12 B2   25 A1    3 A2   26 A1   16 B1                 
  2.235   2.383   2.462   2.530   2.606   2.632   2.920   2.923
 13 B2   27 A1    4 A2   28 A1   17 B1   29 A1   30 A1   18 B1                 
  3.341   3.403
 31 A1   19 B1                                                                 

--------------------------------------------------------------------------------
                                   HF Summary                                   
--------------------------------------------------------------------------------
  Energy:                                                  -78.4869903009 a.u.
  Dip. moment [a.u.]:                  [  -0.000000,   -0.000000,   18.881282]
  Total dipole [Debye]:                                              47.991441
  <r^2> [a.u.]:                        [  25.058828,   14.958010,  792.845805]
  Total <r^2> [a.u.]:                                               832.862643
--------------------------------------------------------------------------------

--------------------------------------------------------------------------------
                                 MP(2) Summary                                  
--------------------------------------------------------------------------------
  MP energy contribution:                                   -0.2999057373 a.u.
  Total energy:                                            -78.7868960382 a.u.
  Dip. moment [a.u.]:                  [  -0.000000,    0.000000,   18.887064]
  Total dipole [Debye]:                                              48.006136
  <r^2> [a.u.]:                        [  25.044382,   14.765101,  792.893292]
  Total <r^2> [a.u.]:                                               832.702775

  Density matrix analysis:
  ------------------------
  NOs
    Occupation of frontier NOs:
       0.0447   1.9370
    Number of electrons: 18.000000
    Number of unpaired electrons: n_u =  0.43262, n_u,nl =  0.04683
    NO participation ratio (PR_NO): 15.340390
  
  
  Mulliken Population Analysis
  Atom      Charge (e)              h+              e-           Del q
  --------------------------------------------------------------------
   1 C       -0.242678        0.089698       -0.101600       -0.011902
   2 C       -0.244227        0.083971       -0.104014       -0.020043
   3 H        0.115115        0.018549       -0.010530        0.008019
   4 H        0.128337        0.018310       -0.010357        0.007953
   5 H        0.115115        0.018549       -0.010530        0.008019
   6 H        0.128337        0.018310       -0.010357        0.007953
   7 H       -0.999999        0.021953       -0.021953        0.000000
  --------------------------------------------------------------------
  Sum:       -1.000000        0.269340       -0.269340        0.000000
  
  Multipole moment analysis of the density matrix
    Molecular charge:                      -1.000000
    Number of electrons:                   18.000000
      Center of electronic charge [Ang]: [  0.000000,  -0.000000,  -0.555256]
    Total nuclear charge:                  17.000000
      Center of nuclear charge [Ang]:    [ -0.000000,   0.000000,  -0.000000]
    Dipole moment [D]:                     48.006122
      Cartesian components [D]:          [ -0.000000,   0.000000,  48.006122]
    RMS size of the density [Ang]:         3.556145
      Cartesian components [Ang]:        [  0.624195,   0.479273,   3.467974]
  
  Exciton analysis of the difference density matrix
    <r_h> [Ang]:                  [ -0.000000,   0.000000,  -0.229691]
    <r_e> [Ang]:                  [  0.000000,  -0.000000,  -0.241050]
    |<r_e - r_h>| [Ang]:            0.011359
    Hole size [Ang]:                3.246724
      Cartesian components [Ang]: [  0.731415,   0.753756,   3.072149]
    Electron size [Ang]:            3.220195
      Cartesian components [Ang]: [  0.721075,   0.606286,   3.079306]
--------------------------------------------------------------------------------

--------------------------------------------------------------------------------
                                 MP(3) Summary                                  
--------------------------------------------------------------------------------
  MP energy contribution:                                   -0.0281468456 a.u.
  Total energy:                                            -78.8150428838 a.u.
--------------------------------------------------------------------------------
  Starting Davidson for singlet states of irrep B2 ... 
--------------------------------------------------------------------------------
   It NVec Conv  Avg. Norm  Max. Norm  Conv. states           Remark
--------------------------------------------------------------------------------
       100    0  9.492e-02  4.300e-01  0.1071 n n n n n n n n Guess.
    1  110    0  2.575e-02  1.974e-01  0.0586 n n n n n n n n 
    2  120    0  2.506e-02  2.240e-01  0.0569 n n n n n n n n 
    3  130    0  3.080e-02  2.150e-01  0.0568 n n n n n n n n 
    4  140    0  1.929e-02  1.565e-01  0.0568 n n n n n n n n 
    5  150    0  1.280e-02  6.765e-02  0.0568 n n n n n n n n 
    6  160    0  4.660e-03  2.942e-02  0.0568 n n n n n n n n 
    7  170    2  1.712e-03  1.127e-02  0.0568 y y n n n n n n 
    8  180    3  1.202e-03  1.089e-02  0.0568 y y y n n n n n 
    9  190    4  1.058e-03  1.041e-02  0.0568 y y y n n y n n 
   10  200    4  5.868e-04  5.834e-03  0.0568 y y y n n y n n 
   11   20    4  2.114e-04  2.105e-03  0.0568 y y y n n y n n Subspace collapsed.
   12   30    6  1.415e-04  1.412e-03  0.0568 y y y n y y n n 
   13   40    7  7.945e-05  7.936e-04  0.0568 y y y y y y n n 
   14   50    7  5.822e-05  5.819e-04  0.0568 y y y y y y n n 
   15   60    9  4.881e-05  4.880e-04  0.0568 y y y y y y y y 
   16   70    9  5.545e-05  5.544e-04  0.0568 y y y y y y y y 
   17   80    9  5.578e-05  5.578e-04  0.0568 y y y y y y y y 
   18   90    9  4.190e-05  4.190e-04  0.0568 y y y y y y y y 
   19  100    9  2.800e-05  2.800e-04  0.0568 y y y y y y y y 
   20  110    9  1.321e-05  1.321e-04  0.0568 y y y y y y y y 
   21  120    9  5.150e-06  5.150e-05  0.0568 y y y y y y y y 
   22  130    9  1.892e-06  1.892e-05  0.0568 y y y y y y y y 
   23  138   10  8.127e-07  8.127e-06  0.0568 y y y y y y y y Converged.
--------------------------------------------------------------------------------
  Davidson Summary: 
 ------------------------------------------------------------
  State  0: excitation energy =   0.0568 a.u.   (converged)
  State  1: excitation energy =   0.0729 a.u.   (converged)
  State  2: excitation energy =   0.1402 a.u.   (converged)
  State  3: excitation energy =   0.2234 a.u.   (converged)
  State  4: excitation energy =   0.2347 a.u.   (converged)
  State  5: excitation energy =   0.2807 a.u.   (converged)
  State  6: excitation energy =   0.2867 a.u.   (converged)
  State  7: excitation energy =   0.2967 a.u.   (converged)
  State  8: excitation energy =   0.3034 a.u.   (converged)
  State  9: excitation energy =   0.3184 a.u.   (converged)
 ------------------------------------------------------------


--------------------------------------------------------------------------------
                   State-averaged natural transition orbitals
--------------------------------------------------------------------------------
--------------------------------------------------------------------------------

--------------------------------------------------------------------------------
                             Excited State Summary
--------------------------------------------------------------------------------
--------------------------------------------------------------------------------

  Excited state 1 (singlet, B2)                                    [converged]
  ----------------------------------------------------------------------------
  Term symbol:  1 (1) B2                                    R^2 =  2.57430e-15

  Total energy:                                            -78.7582568882 a.u.
  Excitation energy:                                               1.545226 eV

  Osc. strength:                                                      0.000000
  Trans. dip. moment [a.u.]:           [   0.000000,    0.000438,    0.000000]
  <i|r^2|0> [a.u.]:                    [  -0.000000,   -0.000000,    0.000000]

  Dip. moment [a.u.]:                  [  -0.000000,    0.000000,   -1.186287]
  Total dipole [Debye]:                                               3.015241
  <r^2> [a.u.]:                        [  27.959309,   24.710415,  445.243074]
  Total <r^2> [a.u.]:                                               497.912797

  V1^2 = 0.9199, V2^2 = 0.0801

  Important amplitudes:
      occ i      occ j       vir a       vir b          v   
    ---------------------------------------------------------
     6 (A1) A               2 (B2) A                  0.5343
     6 (A1) A               3 (B2) A                 -0.3944
    ---------------------------------------------------------

  Density matrix analysis:
  ------------------------
  NOs
    Occupation of frontier NOs:
       0.9851   1.0010
    Number of electrons: 18.000000
    Number of unpaired electrons: n_u =  2.43325, n_u,nl =  2.05020
    NO participation ratio (PR_NO):  2.987804
  
  
  Mulliken Population Analysis
  Atom      Charge (e)              h+              e-           Del q
  --------------------------------------------------------------------
   1 C       -0.663853        0.160089       -0.581263       -0.421174
   2 C       -0.665630        0.156787       -0.578191       -0.421404
   3 H        0.082132        0.007299       -0.040283       -0.032984
   4 H        0.082610        0.007487       -0.053214       -0.045727
   5 H        0.082132        0.007299       -0.040283       -0.032984
   6 H        0.082610        0.007487       -0.053214       -0.045727
   7 H        0.000000        1.054970       -0.054971        0.999999
  --------------------------------------------------------------------
  Sum:       -1.000000        1.401419       -1.401419       -0.000000
  
  Multipole moment analysis of the density matrix
    Molecular charge:                      -1.000000
    Number of electrons:                   18.000000
      Center of electronic charge [Ang]: [  0.000000,  -0.000000,   0.034875]
    Total nuclear charge:                  17.000000
      Center of nuclear charge [Ang]:    [ -0.000000,   0.000000,  -0.000000]
    Dipole moment [D]:                     3.015241
      Cartesian components [D]:          [ -0.000000,   0.000000,  -3.015241]
    RMS size of the density [Ang]:         2.782963
      Cartesian components [Ang]:        [  0.659520,   0.620019,   2.631633]
  
  Exciton analysis of the difference density matrix
    <r_h> [Ang]:                  [ -0.000000,   0.000000,  -7.409289]
    <r_e> [Ang]:                  [ -0.000000,  -0.000000,   0.170430]
    |<r_e - r_h>| [Ang]:            7.579718
    Hole size [Ang]:                4.798825
      Cartesian components [Ang]: [  0.778090,   0.814135,   4.664813]
    Electron size [Ang]:            3.316657
      Cartesian components [Ang]: [  1.089898,   1.627903,   2.676241]

  Transition density matrix analysis:
  -----------------------------------
  
  CT numbers (Mulliken)
    omega =     0.9052
    <Phe> =    -0.0000
  
  Exciton analysis of the transition density matrix
    Trans. dipole moment [D]:             0.000557
      Cartesian components [D]:         [  0.000000,   0.000557,   0.000000]
    <r_h> [Ang]:                        [  0.000000,   0.000000, -10.037140]
    <r_e> [Ang]:                        [  0.000000,  -0.000000,   0.615768]
    |<r_e - r_h>| [Ang]:                 10.652909
    Hole size [Ang]:                      1.113926
      Cartesian components [Ang]:       [  0.643114,   0.643114,   0.643148]
    Electron size [Ang]:                  2.718833
      Cartesian components [Ang]:       [  1.012646,   1.742053,   1.825336]
    RMS electron-hole separation [Ang]:  11.050677
      Cartesian components [Ang]:       [  1.199603,   1.856965,  10.827284]
    Covariance(r_h, r_e) [Ang^2]:        -0.000051
    Correlation coefficient:             -0.000017
    Center-of-mass size [Ang]:            1.469080
      Cartesian components [Ang]:       [  0.599802,   0.928490,   0.967647]

  Decomposition into state-averaged NTOs
    H- 0 -> L+ 0: -0.4707 ( 44.3%)
    H- 0 -> L+ 4:  0.4500 ( 40.5%)
    H- 0 -> L+ 1: -0.1690 (  5.7%)
                   omega =  90.5%
  ----------------------------------------------------------------------------


  Excited state 2 (singlet, B2)                                    [converged]
  ----------------------------------------------------------------------------
  Term symbol:  2 (1) B2                                    R^2 =  4.86428e-15

  Total energy:                                            -78.7421605509 a.u.
  Excitation energy:                                               1.983229 eV

  Osc. strength:                                                      0.000000
  Trans. dip. moment [a.u.]:           [  -0.000000,   -0.000491,    0.000000]
  <i|r^2|0> [a.u.]:                    [  -0.000000,   -0.000000,    0.000000]

  Dip. moment [a.u.]:                  [  -0.000000,   -0.000000,   -1.186237]
  Total dipole [Debye]:                                               3.015113
  <r^2> [a.u.]:                        [  31.952005,   38.536917,  442.030973]
  Total <r^2> [a.u.]:                                               512.519895

  V1^2 = 0.9507, V2^2 = 0.0493

  Important amplitudes:
      occ i      occ j       vir a       vir b          v   
    ---------------------------------------------------------
     6 (A1) A               3 (B2) A                  0.5579
     6 (A1) A               2 (B2) A                  0.4034
    ---------------------------------------------------------

  Density matrix analysis:
  ------------------------
  NOs
    Occupation of frontier NOs:
       0.9907   1.0025
    Number of electrons: 18.000000
    Number of unpaired electrons: n_u =  2.42076, n_u,nl =  2.05183
    NO participation ratio (PR_NO):  2.944823
  
  
  Mulliken Population Analysis
  Atom      Charge (e)              h+              e-           Del q
  --------------------------------------------------------------------
   1 C       -0.685233        0.054428       -0.496983       -0.442555
   2 C       -0.689707        0.044679       -0.490159       -0.445480
   3 H        0.093541       -0.002356       -0.019218       -0.021574
   4 H        0.093929       -0.001308       -0.033100       -0.034408
   5 H        0.093541       -0.002356       -0.019218       -0.021574
   6 H        0.093929       -0.001308       -0.033100       -0.034408
   7 H        0.000000        1.060557       -0.060558        0.999999
  --------------------------------------------------------------------
  Sum:       -1.000000        1.152336       -1.152336       -0.000000
  
  Multipole moment analysis of the density matrix
    Molecular charge:                      -1.000000
    Number of electrons:                   18.000000
      Center of electronic charge [Ang]: [  0.000000,   0.000000,   0.034874]
    Total nuclear charge:                  17.000000
      Center of nuclear charge [Ang]:    [ -0.000000,   0.000000,  -0.000000]
    Dipole moment [D]:                     3.015112
      Cartesian components [D]:          [ -0.000000,  -0.000000,  -3.015112]
    RMS size of the density [Ang]:         2.823496
      Cartesian components [Ang]:        [  0.705040,   0.774289,   2.622122]
  
  Exciton analysis of the difference density matrix
    <r_h> [Ang]:                  [  0.000000,   0.000000,  -9.194572]
    <r_e> [Ang]:                  [ -0.000000,   0.000000,   0.023515]
    |<r_e - r_h>| [Ang]:            9.218087
    Hole size [Ang]:                3.140533
      Cartesian components [Ang]: [  0.736924,   0.729908,   2.964309]
    Electron size [Ang]:            4.073707
      Cartesian components [Ang]: [  1.490528,   2.511880,   2.839695]

  Transition density matrix analysis:
  -----------------------------------
  
  CT numbers (Mulliken)
    omega =     0.9440
    <Phe> =     0.0001
  
  Exciton analysis of the transition density matrix
    Trans. dipole moment [D]:             0.000624
      Cartesian components [D]:         [ -0.000000,  -0.000624,   0.000000]
    <r_h> [Ang]:                        [  0.000000,   0.000000, -10.036288]
    <r_e> [Ang]:                        [  0.000000,   0.000000,   0.623951]
    |<r_e - r_h>| [Ang]:                 10.660239
    Hole size [Ang]:                      1.118263
      Cartesian components [Ang]:       [  0.643241,   0.643271,   0.650350]
    Electron size [Ang]:                  3.490326
      Cartesian components [Ang]:       [  1.550220,   2.685264,   1.602670]
    RMS electron-hole separation [Ang]:  11.273503
      Cartesian components [Ang]:       [  1.678375,   2.761234,  10.800486]
    Covariance(r_h, r_e) [Ang^2]:        -0.009138
    Correlation coefficient:             -0.002341
    Center-of-mass size [Ang]:            1.831298
      Cartesian components [Ang]:       [  0.839187,   1.380622,   0.862149]

  Decomposition into state-averaged NTOs
    H- 0 -> L+ 1: -0.6468 ( 83.7%)
    H- 0 -> L+ 0:  0.2317 ( 10.7%)
                   omega =  94.4%
  ----------------------------------------------------------------------------


  Excited state 3 (singlet, B2)                                    [converged]
  ----------------------------------------------------------------------------
  Term symbol:  3 (1) B2                                    R^2 =  2.20412e-14

  Total energy:                                            -78.6748177056 a.u.
  Excitation energy:                                               3.815721 eV

  Osc. strength:                                                      0.000000
  Trans. dip. moment [a.u.]:           [   0.000000,    0.000790,    0.000000]
  <i|r^2|0> [a.u.]:                    [   0.000000,   -0.000000,    0.000000]

  Dip. moment [a.u.]:                  [  -0.000000,   -0.000000,   -1.185324]
  Total dipole [Debye]:                                               3.012793
  <r^2> [a.u.]:                        [  29.741136,   30.320517,  450.168703]
  Total <r^2> [a.u.]:                                               510.230356

  V1^2 = 0.8898, V2^2 = 0.1102

  Important amplitudes:
      occ i      occ j       vir a       vir b          v   
    ---------------------------------------------------------
     6 (A1) A               4 (B2) A                 -0.6428
     6 (A1) A               2 (B2) A                  0.1504
    ---------------------------------------------------------

  Density matrix analysis:
  ------------------------
  NOs
    Occupation of frontier NOs:
       0.9540   0.9996
    Number of electrons: 18.000000
    Number of unpaired electrons: n_u =  2.51575, n_u,nl =  2.09174
    NO participation ratio (PR_NO):  3.270850
  
  
  Mulliken Population Analysis
  Atom      Charge (e)              h+              e-           Del q
  --------------------------------------------------------------------
   1 C       -0.650607        0.143634       -0.551563       -0.407929
   2 C       -0.656953        0.146039       -0.558765       -0.412726
   3 H        0.076492        0.003769       -0.042393       -0.038623
   4 H        0.077288        0.004048       -0.055096       -0.051049
   5 H        0.076492        0.003769       -0.042393       -0.038623
   6 H        0.077288        0.004048       -0.055096       -0.051049
   7 H        0.000000        1.051809       -0.051810        0.999999
  --------------------------------------------------------------------
  Sum:       -1.000000        1.357116       -1.357116       -0.000000
  
  Multipole moment analysis of the density matrix
    Molecular charge:                      -1.000000
    Number of electrons:                   18.000000
      Center of electronic charge [Ang]: [  0.000000,   0.000000,   0.034847]
    Total nuclear charge:                  17.000000
      Center of nuclear charge [Ang]:    [ -0.000000,   0.000000,  -0.000000]
    Dipole moment [D]:                     3.012792
      Cartesian components [D]:          [ -0.000000,  -0.000000,  -3.012792]
    RMS size of the density [Ang]:         2.817181
      Cartesian components [Ang]:        [  0.680211,   0.686805,   2.646153]
  
  Exciton analysis of the difference density matrix
    <r_h> [Ang]:                  [ -0.000000,   0.000000,  -7.651006]
    <r_e> [Ang]:                  [ -0.000000,   0.000000,   0.175774]
    |<r_e - r_h>| [Ang]:            7.826780
    Hole size [Ang]:                4.629505
      Cartesian components [Ang]: [  0.748360,   0.772321,   4.502865]
    Electron size [Ang]:            3.660610
      Cartesian components [Ang]: [  1.236598,   1.950948,   2.839840]

  Transition density matrix analysis:
  -----------------------------------
  
  CT numbers (Mulliken)
    omega =     0.8778
    <Phe> =    -0.0000
  
  Exciton analysis of the transition density matrix
    Trans. dipole moment [D]:             0.001004
      Cartesian components [D]:         [  0.000000,   0.001004,   0.000000]
    <r_h> [Ang]:                        [  0.000000,   0.000000, -10.037140]
    <r_e> [Ang]:                        [  0.000000,   0.000000,   0.624132]
    |<r_e - r_h>| [Ang]:                 10.661272
    Hole size [Ang]:                      1.113867
      Cartesian components [Ang]:       [  0.643079,   0.643079,   0.643117]
    Electron size [Ang]:                  3.334877
      Cartesian components [Ang]:       [  1.251596,   2.161422,   2.209790]
    RMS electron-hole separation [Ang]:  11.226081
      Cartesian components [Ang]:       [  1.407140,   2.255054,  10.906860]
    Covariance(r_h, r_e) [Ang^2]:        -0.000036
    Correlation coefficient:             -0.000010
    Center-of-mass size [Ang]:            1.757984
      Cartesian components [Ang]:       [  0.703570,   1.127532,   1.150725]

  Decomposition into state-averaged NTOs
    H- 0 -> L+ 4: -0.4654 ( 43.3%)
    H- 0 -> L+ 0: -0.4445 ( 39.5%)
    H- 0 -> L+ 1: -0.1571 (  4.9%)
                   omega =  87.8%
  ----------------------------------------------------------------------------


  Excited state 4 (singlet, B2)                                    [converged]
  ----------------------------------------------------------------------------
  Term symbol:  4 (1) B2                                    R^2 =  4.00186e-11

  Total energy:                                            -78.5916669438 a.u.
  Excitation energy:                                               6.078368 eV

  Osc. strength:                                                      0.000000
  Trans. dip. moment [a.u.]:           [   0.000000,    0.000021,   -0.000000]
  <i|r^2|0> [a.u.]:                    [  -0.000000,    0.000000,   -0.000000]

  Dip. moment [a.u.]:                  [  -0.000000,    0.000000,   -1.037781]
  Total dipole [Debye]:                                               2.637777
  <r^2> [a.u.]:                        [  29.630383,   31.215643,  453.098416]
  Total <r^2> [a.u.]:                                               513.944442

  V1^2 = 0.0009, V2^2 = 0.9991

  Important amplitudes:
      occ i      occ j       vir a       vir b          v   
    ---------------------------------------------------------
     6 (A1) A   1 (B2) B    2 (B2) A    2 (B2) B     -0.1720
     6 (A1) A   1 (B2) B    3 (B2) A    2 (B2) B      0.1415
    ---------------------------------------------------------

  Density matrix analysis:
  ------------------------
  NOs
    Occupation of frontier NOs:
       0.9488   0.9887
    Number of electrons: 18.000000
    Number of unpaired electrons: n_u =  2.87910, n_u,nl =  2.53116
    NO participation ratio (PR_NO):  4.023073
  
  
  Mulliken Population Analysis
  Atom      Charge (e)              h+              e-           Del q
  --------------------------------------------------------------------
   1 C       -0.670937        0.497476       -0.925735       -0.428258
   2 C       -0.811706        0.488563       -1.056042       -0.567479
   3 H        0.114143        0.003555       -0.004528       -0.000973
   4 H        0.127178        0.003373       -0.004531       -0.001158
   5 H        0.114143        0.003555       -0.004528       -0.000973
   6 H        0.127178        0.003373       -0.004531       -0.001158
   7 H        0.000001        1.000023       -0.000023        1.000000
  --------------------------------------------------------------------
  Sum:       -1.000000        1.999917       -1.999917       -0.000000
  
  Multipole moment analysis of the density matrix
    Molecular charge:                      -1.000000
    Number of electrons:                   18.000000
      Center of electronic charge [Ang]: [  0.000000,  -0.000000,   0.030509]
    Total nuclear charge:                  17.000000
      Center of nuclear charge [Ang]:    [ -0.000000,   0.000000,  -0.000000]
    Dipole moment [D]:                     2.637776
      Cartesian components [D]:          [ -0.000000,   0.000000,  -2.637776]
    RMS size of the density [Ang]:         2.827468
      Cartesian components [Ang]:        [  0.678943,   0.696869,   2.654804]
  
  Exciton analysis of the difference density matrix
    <r_h> [Ang]:                  [  0.000000,   0.000000,  -4.699827]
    <r_e> [Ang]:                  [  0.000000,  -0.000000,   0.572279]
    |<r_e - r_h>| [Ang]:            5.272105
    Hole size [Ang]:                5.467471
      Cartesian components [Ang]: [  0.580780,   0.759774,   5.383185]
    Electron size [Ang]:            2.649820
      Cartesian components [Ang]: [  0.989666,   1.697251,   1.778046]

  Transition density matrix analysis:
  -----------------------------------
  
  CT numbers (Mulliken)
    omega =     0.0022
    <Phe> =     0.0105
  
  Exciton analysis of the transition density matrix
    Trans. dipole moment [D]:             0.000027
      Cartesian components [D]:         [  0.000000,   0.000027,  -0.000000]
    <r_h> [Ang]:                        [  0.000000,   0.000000,  -3.732964]
    <r_e> [Ang]:                        [ -0.000000,   0.000000,  -5.594938]
    |<r_e - r_h>| [Ang]:                  1.861974
    Hole size [Ang]:                      5.385313
      Cartesian components [Ang]:       [  0.568109,   0.781613,   5.297917]
    Electron size [Ang]:                  5.685782
      Cartesian components [Ang]:       [  0.915046,   1.420654,   5.428863]
    RMS electron-hole separation [Ang]:  10.990975
      Cartesian components [Ang]:       [  1.077059,   1.621475,  10.817222]
    Covariance(r_h, r_e) [Ang^2]:       -28.002432
    Correlation coefficient:             -0.914523
    Center-of-mass size [Ang]:            1.153781
      Cartesian components [Ang]:       [  0.538530,   0.810736,   0.619600]

  Decomposition into state-averaged NTOs
                   omega =   0.2%
  ----------------------------------------------------------------------------


  Excited state 5 (singlet, B2)                                    [converged]
  ----------------------------------------------------------------------------
  Term symbol:  5 (1) B2                                    R^2 =  2.01943e-11

  Total energy:                                            -78.5803410375 a.u.
  Excitation energy:                                               6.386562 eV

  Osc. strength:                                                      0.000000
  Trans. dip. moment [a.u.]:           [  -0.000000,   -0.000171,   -0.000000]
  <i|r^2|0> [a.u.]:                    [  -0.000000,    0.000000,   -0.000000]

  Dip. moment [a.u.]:                  [  -0.000000,    0.000000,   -1.398155]
  Total dipole [Debye]:                                               3.553755
  <r^2> [a.u.]:                        [  32.334863,   38.580982,  445.095394]
  Total <r^2> [a.u.]:                                               516.011240

  V1^2 = 0.0539, V2^2 = 0.9461

  Important amplitudes:
      occ i      occ j       vir a       vir b          v   
    ---------------------------------------------------------
     6 (A1) A               4 (B2) A                  0.1545
     6 (A1) A   1 (B2) B    3 (B2) A    3 (B2) B     -0.1485
    ---------------------------------------------------------

  Density matrix analysis:
  ------------------------
  NOs
    Occupation of frontier NOs:
       0.9872   1.0010
    Number of electrons: 18.000000
    Number of unpaired electrons: n_u =  3.93881, n_u,nl =  3.84093
    NO participation ratio (PR_NO):  4.845948
  
  
  Mulliken Population Analysis
  Atom      Charge (e)              h+              e-           Del q
  --------------------------------------------------------------------
   1 C       -0.735820        0.515927       -1.009069       -0.493142
   2 C       -0.681599        0.488516       -0.925888       -0.437372
   3 H        0.098247        0.002388       -0.019257       -0.016869
   4 H        0.110463        0.002447       -0.020321       -0.017874
   5 H        0.098247        0.002388       -0.019257       -0.016869
   6 H        0.110463        0.002447       -0.020321       -0.017874
   7 H        0.000000        1.002434       -0.002435        1.000000
  --------------------------------------------------------------------
  Sum:       -1.000000        2.016548       -2.016548       -0.000000
  
  Multipole moment analysis of the density matrix
    Molecular charge:                      -1.000000
    Number of electrons:                   18.000000
      Center of electronic charge [Ang]: [  0.000000,  -0.000000,   0.041104]
    Total nuclear charge:                  17.000000
      Center of nuclear charge [Ang]:    [ -0.000000,   0.000000,  -0.000000]
    Dipole moment [D]:                     3.553754
      Cartesian components [D]:          [ -0.000000,   0.000000,  -3.553754]
    RMS size of the density [Ang]:         2.833014
      Cartesian components [Ang]:        [  0.709252,   0.774732,   2.631107]
  
  Exciton analysis of the difference density matrix
    <r_h> [Ang]:                  [  0.000000,   0.000000,  -4.667247]
    <r_e> [Ang]:                  [  0.000000,  -0.000000,   0.655948]
    |<r_e - r_h>| [Ang]:            5.323195
    Hole size [Ang]:                5.487044
      Cartesian components [Ang]: [  0.620965,   0.820168,   5.389747]
    Electron size [Ang]:            2.735526
      Cartesian components [Ang]: [  1.182367,   1.994963,   1.450943]

  Transition density matrix analysis:
  -----------------------------------
  
  CT numbers (Mulliken)
    omega =     0.0530
    <Phe> =    -0.0000
  
  Exciton analysis of the transition density matrix
    Trans. dipole moment [D]:             0.000217
      Cartesian components [D]:         [ -0.000000,  -0.000217,  -0.000000]
    <r_h> [Ang]:                        [  0.000000,   0.000000, -10.036764]
    <r_e> [Ang]:                        [ -0.000000,   0.000000,   0.621198]
    |<r_e - r_h>| [Ang]:                 10.657962
    Hole size [Ang]:                      1.117384
      Cartesian components [Ang]:       [  0.644021,   0.644035,   0.647304]
    Electron size [Ang]:                  2.694225
      Cartesian components [Ang]:       [  1.011649,   1.728974,   1.801683]
    RMS electron-hole separation [Ang]:  11.050248
      Cartesian components [Ang]:       [  1.199248,   1.845023,  10.828928]
    Covariance(r_h, r_e) [Ang^2]:        -0.004219
    Correlation coefficient:             -0.001402
    Center-of-mass size [Ang]:            1.457648
      Cartesian components [Ang]:       [  0.599624,   0.922517,   0.956112]

  Decomposition into state-averaged NTOs
    H- 0 -> L+ 4:  0.1500 (  4.5%)
                   omega =   5.3%
  ----------------------------------------------------------------------------


  Excited state 6 (singlet, B2)                                    [converged]
  ----------------------------------------------------------------------------
  Term symbol:  6 (1) B2                                    R^2 =  2.53383e-11

  Total energy:                                            -78.5343741266 a.u.
  Excitation energy:                                               7.637385 eV

  Osc. strength:                                                      0.140134
  Trans. dip. moment [a.u.]:           [   0.000000,    0.865407,   -0.000000]
  <i|r^2|0> [a.u.]:                    [   0.000000,    0.000000,    0.000000]

  Dip. moment [a.u.]:                  [  -0.000000,    0.000000,   17.209184]
  Total dipole [Debye]:                                              43.741392
  <r^2> [a.u.]:                        [  31.267743,   19.723510,  806.303277]
  Total <r^2> [a.u.]:                                               857.294531

  V1^2 = 0.9372, V2^2 = 0.0628

  Important amplitudes:
      occ i      occ j       vir a       vir b          v   
    ---------------------------------------------------------
     1 (B2) A               7 (A1) A                 -0.4977
     1 (B2) A               8 (A1) A                  0.3353
    ---------------------------------------------------------

  Density matrix analysis:
  ------------------------
  NOs
    Occupation of frontier NOs:
       0.9776   0.9814
    Number of electrons: 18.000000
    Number of unpaired electrons: n_u =  2.33168, n_u,nl =  2.02891
    NO participation ratio (PR_NO):  2.821659
  
  
  Mulliken Population Analysis
  Atom      Charge (e)              h+              e-           Del q
  --------------------------------------------------------------------
   1 C        0.237625        0.595291       -0.114988        0.480303
   2 C       -1.017267        0.420493       -1.193534       -0.773040
   3 H        0.187156        0.094442       -0.022402        0.072040
   4 H        0.202663        0.068314        0.006012        0.074326
   5 H        0.187156        0.094442       -0.022402        0.072040
   6 H        0.202663        0.068314        0.006012        0.074326
   7 H       -0.999995        0.000636       -0.000631        0.000004
  --------------------------------------------------------------------
  Sum:       -1.000000        1.341931       -1.341931       -0.000000
  
  Multipole moment analysis of the density matrix
    Molecular charge:                      -1.000000
    Number of electrons:                   18.000000
      Center of electronic charge [Ang]: [  0.000000,  -0.000000,  -0.505928]
    Total nuclear charge:                  17.000000
      Center of nuclear charge [Ang]:    [ -0.000000,   0.000000,  -0.000000]
    Dipole moment [D]:                     43.741379
      Cartesian components [D]:          [ -0.000000,   0.000000,  43.741379]
    RMS size of the density [Ang]:         3.616779
      Cartesian components [Ang]:        [  0.697450,   0.553933,   3.505397]
  
  Exciton analysis of the difference density matrix
    <r_h> [Ang]:                  [  0.000000,   0.000000,   0.739859]
    <r_e> [Ang]:                  [  0.000000,  -0.000000,   1.401514]
    |<r_e - r_h>| [Ang]:            0.661655
    Hole size [Ang]:                1.548758
      Cartesian components [Ang]: [  0.759816,   0.869420,   1.032203]
    Electron size [Ang]:            2.472551
      Cartesian components [Ang]: [  1.369666,   1.338130,   1.564267]

  Transition density matrix analysis:
  -----------------------------------
  
  CT numbers (Mulliken)
    omega =     0.9063
    <Phe> =    -0.0133
  
  Exciton analysis of the transition density matrix
    Trans. dipole moment [D]:             1.099822
      Cartesian components [D]:         [  0.000000,   1.099822,  -0.000000]
    <r_h> [Ang]:                        [ -0.000000,  -0.000000,   0.647508]
    <r_e> [Ang]:                        [  0.000000,  -0.000000,   1.647081]
    |<r_e - r_h>| [Ang]:                  0.999573
    Hole size [Ang]:                      1.253882
      Cartesian components [Ang]:       [  0.508685,   0.861758,   0.755536]
    Electron size [Ang]:                  2.713152
      Cartesian components [Ang]:       [  1.543654,   1.520195,   1.633198]
    RMS electron-hole separation [Ang]:   3.138964
      Cartesian components [Ang]:       [  1.624384,   1.735787,   2.049759]
    Covariance(r_h, r_e) [Ang^2]:         0.039735
    Correlation coefficient:              0.011680
    Center-of-mass size [Ang]:            1.501073
      Cartesian components [Ang]:       [  0.813116,   0.879528,   0.904706]

  Decomposition into state-averaged NTOs
    H- 1 -> L+ 2: -0.6581 ( 86.6%)
    H- 1 -> L+ 3: -0.1397 (  3.9%)
                   omega =  90.6%
  ----------------------------------------------------------------------------


  Excited state 7 (singlet, B2)                                    [converged]
  ----------------------------------------------------------------------------
  Term symbol:  7 (1) B2                                    R^2 =  1.81187e-09

  Total energy:                                            -78.5283342609 a.u.
  Excitation energy:                                               7.801738 eV

  Osc. strength:                                                      0.000000
  Trans. dip. moment [a.u.]:           [  -0.000000,   -0.001085,   -0.000000]
  <i|r^2|0> [a.u.]:                    [  -0.000000,    0.000000,   -0.000000]

  Dip. moment [a.u.]:                  [  -0.000000,    0.000000,   -1.101825]
  Total dipole [Debye]:                                               2.800559
  <r^2> [a.u.]:                        [  39.438286,   29.219113,  468.090190]
  Total <r^2> [a.u.]:                                               536.747590

  V1^2 = 0.0076, V2^2 = 0.9924

  Important amplitudes:
      occ i      occ j       vir a       vir b          v   
    ---------------------------------------------------------
     6 (A1) A   1 (B2) B    7 (A1) A    8 (A1) B     -0.2051
     6 (A1) A   1 (B2) B    8 (A1) A    7 (A1) B     -0.2016
    ---------------------------------------------------------

  Density matrix analysis:
  ------------------------
  NOs
    Occupation of frontier NOs:
       0.9479   0.9886
    Number of electrons: 18.000000
    Number of unpaired electrons: n_u =  3.44949, n_u,nl =  3.15420
    NO participation ratio (PR_NO):  4.985164
  
  
  Mulliken Population Analysis
  Atom      Charge (e)              h+              e-           Del q
  --------------------------------------------------------------------
   1 C       -0.857959        0.501519       -1.116799       -0.615280
   2 C       -0.821123        0.479813       -1.056709       -0.576896
   3 H        0.163595        0.002862        0.045617        0.048479
   4 H        0.175947        0.002700        0.044910        0.047610
   5 H        0.163595        0.002862        0.045617        0.048479
   6 H        0.175947        0.002700        0.044910        0.047610
   7 H       -0.000002        1.000223       -0.000225        0.999998
  --------------------------------------------------------------------
  Sum:       -1.000000        1.992678       -1.992678       -0.000000
  
  Multipole moment analysis of the density matrix
    Molecular charge:                      -1.000000
    Number of electrons:                   18.000000
      Center of electronic charge [Ang]: [  0.000000,  -0.000000,   0.032392]
    Total nuclear charge:                  17.000000
      Center of nuclear charge [Ang]:    [ -0.000000,   0.000000,  -0.000000]
    Dipole moment [D]:                     2.800559
      Cartesian components [D]:          [ -0.000000,   0.000000,  -2.800559]
    RMS size of the density [Ang]:         2.889500
      Cartesian components [Ang]:        [  0.783292,   0.674215,   2.698350]
  
  Exciton analysis of the difference density matrix
    <r_h> [Ang]:                  [  0.000000,  -0.000000,  -4.719122]
    <r_e> [Ang]:                  [  0.000000,  -0.000000,   0.589142]
    |<r_e - r_h>| [Ang]:            5.308264
    Hole size [Ang]:                5.468536
      Cartesian components [Ang]: [  0.580425,   0.760849,   5.384152]
    Electron size [Ang]:            3.199642
      Cartesian components [Ang]: [  1.536115,   1.615579,   2.295205]

  Transition density matrix analysis:
  -----------------------------------
  
  CT numbers (Mulliken)
    omega =     0.0075
    <Phe> =    -0.0000
  
  Exciton analysis of the transition density matrix
    Trans. dipole moment [D]:             0.001379
      Cartesian components [D]:         [ -0.000000,  -0.001379,  -0.000000]
    <r_h> [Ang]:                        [  0.000000,   0.000000, -10.035261]
    <r_e> [Ang]:                        [  0.000000,   0.000000,   0.630882]
    |<r_e - r_h>| [Ang]:                 10.666143
    Hole size [Ang]:                      1.122563
      Cartesian components [Ang]:       [  0.642879,   0.642945,   0.658388]
    Electron size [Ang]:                  3.241136
      Cartesian components [Ang]:       [  1.451899,   2.511648,   1.445192]
    RMS electron-hole separation [Ang]:  11.204086
      Cartesian components [Ang]:       [  1.587861,   2.592640,  10.783712]
    Covariance(r_h, r_e) [Ang^2]:         0.000089
    Correlation coefficient:              0.000024
    Center-of-mass size [Ang]:            1.715029
      Cartesian components [Ang]:       [  0.793931,   1.296314,   0.794082]

  Decomposition into state-averaged NTOs
                   omega =   0.8%
  ----------------------------------------------------------------------------


  Excited state 8 (singlet, B2)                                    [converged]
  ----------------------------------------------------------------------------
  Term symbol:  8 (1) B2                                    R^2 =  4.78535e-09

  Total energy:                                            -78.5183814169 a.u.
  Excitation energy:                                               8.072569 eV

  Osc. strength:                                                      0.000000
  Trans. dip. moment [a.u.]:           [  -0.000000,   -0.001365,    0.000000]
  <i|r^2|0> [a.u.]:                    [   0.000000,   -0.000000,    0.000000]

  Dip. moment [a.u.]:                  [  -0.000000,    0.000000,   -1.240498]
  Total dipole [Debye]:                                               3.153033
  <r^2> [a.u.]:                        [  38.686530,   27.003515,  481.330270]
  Total <r^2> [a.u.]:                                               547.020315

  V1^2 = 0.0008, V2^2 = 0.9992

  Important amplitudes:
      occ i      occ j       vir a       vir b          v   
    ---------------------------------------------------------
     6 (A1) A   1 (B2) A    7 (A1) A    8 (A1) A      0.2689
     6 (A1) A   1 (B2) B    8 (A1) A    7 (A1) B     -0.1490
    ---------------------------------------------------------

  Density matrix analysis:
  ------------------------
  NOs
    Occupation of frontier NOs:
       0.9609   0.9717
    Number of electrons: 18.000000
    Number of unpaired electrons: n_u =  4.28708, n_u,nl =  4.02516
    NO participation ratio (PR_NO):  4.914898
  
  
  Mulliken Population Analysis
  Atom      Charge (e)              h+              e-           Del q
  --------------------------------------------------------------------
   1 C       -0.736079        0.504645       -0.998046       -0.493400
   2 C       -0.772890        0.483220       -1.011883       -0.528663
   3 H        0.120707        0.002948        0.002644        0.005592
   4 H        0.133779        0.002797        0.002645        0.005442
   5 H        0.120707        0.002948        0.002644        0.005592
   6 H        0.133779        0.002797        0.002645        0.005442
   7 H       -0.000003        1.000033       -0.000038        0.999996
  --------------------------------------------------------------------
  Sum:       -1.000000        1.999388       -1.999388       -0.000000
  
  Multipole moment analysis of the density matrix
    Molecular charge:                      -1.000000
    Number of electrons:                   18.000000
      Center of electronic charge [Ang]: [  0.000000,  -0.000000,   0.036469]
    Total nuclear charge:                  17.000000
      Center of nuclear charge [Ang]:    [ -0.000000,   0.000000,  -0.000000]
    Dipole moment [D]:                     3.153032
      Cartesian components [D]:          [ -0.000000,   0.000000,  -3.153032]
    RMS size of the density [Ang]:         2.916975
      Cartesian components [Ang]:        [  0.775791,   0.648149,   2.736200]
  
  Exciton analysis of the difference density matrix
    <r_h> [Ang]:                  [  0.000000,  -0.000000,  -4.700214]
    <r_e> [Ang]:                  [  0.000000,  -0.000000,   0.626939]
    |<r_e - r_h>| [Ang]:            5.327153
    Hole size [Ang]:                5.468651
      Cartesian components [Ang]: [  0.580174,   0.762032,   5.384129]
    Electron size [Ang]:            3.404885
      Cartesian components [Ang]: [  1.499094,   1.514850,   2.655408]

  Transition density matrix analysis:
  -----------------------------------
  
  CT numbers (Mulliken)
    omega =     0.0007
    <Phe> =    -0.0000
  
  Exciton analysis of the transition density matrix
    Trans. dipole moment [D]:             0.001734
      Cartesian components [D]:         [ -0.000000,  -0.001734,   0.000000]
    <r_h> [Ang]:                        [  0.000000,   0.000000,  -9.994717]
    <r_e> [Ang]:                        [  0.000000,   0.000000,   0.446516]
    |<r_e - r_h>| [Ang]:                 10.441233
    Hole size [Ang]:                      1.302721
      Cartesian components [Ang]:       [  0.643755,   0.645246,   0.930762]
    Electron size [Ang]:                  4.055788
      Cartesian components [Ang]:       [  1.536272,   2.654047,   2.654302]
    RMS electron-hole separation [Ang]:  11.279598
      Cartesian components [Ang]:       [  1.665694,   2.731509,  10.816360]
    Covariance(r_h, r_e) [Ang^2]:        -0.031741
    Correlation coefficient:             -0.006007
    Center-of-mass size [Ang]:            2.126206
      Cartesian components [Ang]:       [  0.832852,   1.365602,   1.400801]

  Decomposition into state-averaged NTOs
                   omega =   0.1%
  ----------------------------------------------------------------------------


  Excited state 9 (singlet, B2)                                    [converged]
  ----------------------------------------------------------------------------
  Term symbol:  9 (1) B2                                    R^2 =  8.60093e-10

  Total energy:                                            -78.5116532934 a.u.
  Excitation energy:                                               8.255651 eV

  Osc. strength:                                                      0.021813
  Trans. dip. moment [a.u.]:           [   0.000000,    0.328397,   -0.000000]
  <i|r^2|0> [a.u.]:                    [  -0.000000,    0.000000,    0.000000]

  Dip. moment [a.u.]:                  [  -0.000000,   -0.000000,   19.103489]
  Total dipole [Debye]:                                              48.556235
  <r^2> [a.u.]:                        [  30.911081,   18.568378,  812.114547]
  Total <r^2> [a.u.]:                                               861.594006

  V1^2 = 0.9334, V2^2 = 0.0666

  Important amplitudes:
      occ i      occ j       vir a       vir b          v   
    ---------------------------------------------------------
     1 (B2) A               8 (A1) A                  0.4954
     1 (B2) A               7 (A1) A                  0.4146
    ---------------------------------------------------------

  Density matrix analysis:
  ------------------------
  NOs
    Occupation of frontier NOs:
       0.9747   0.9776
    Number of electrons: 18.000000
    Number of unpaired electrons: n_u =  2.34368, n_u,nl =  2.03277
    NO participation ratio (PR_NO):  2.868664
  
  
  Mulliken Population Analysis
  Atom      Charge (e)              h+              e-           Del q
  --------------------------------------------------------------------
   1 C       -1.123862        0.492000       -1.373183       -0.881184
   2 C        0.444640        0.517238        0.171629        0.688867
   3 H        0.185433        0.088605       -0.018287        0.070317
   4 H        0.154176        0.092001       -0.066161        0.025840
   5 H        0.185433        0.088605       -0.018287        0.070317
   6 H        0.154176        0.092001       -0.066161        0.025840
   7 H       -0.999997        0.000468       -0.000466        0.000002
  --------------------------------------------------------------------
  Sum:       -1.000000        1.370917       -1.370917       -0.000000
  
  Multipole moment analysis of the density matrix
    Molecular charge:                      -1.000000
    Number of electrons:                   18.000000
      Center of electronic charge [Ang]: [  0.000000,   0.000000,  -0.561618]
    Total nuclear charge:                  17.000000
      Center of nuclear charge [Ang]:    [ -0.000000,   0.000000,  -0.000000]
    Dipole moment [D]:                     48.556220
      Cartesian components [D]:          [ -0.000000,  -0.000000,  48.556220]
    RMS size of the density [Ang]:         3.617806
      Cartesian components [Ang]:        [  0.693461,   0.537467,   3.509810]
  
  Exciton analysis of the difference density matrix
    <r_h> [Ang]:                  [ -0.000000,   0.000000,   0.583829]
    <r_e> [Ang]:                  [  0.000000,   0.000000,   0.500288]
    |<r_e - r_h>| [Ang]:            0.083541
    Hole size [Ang]:                1.562649
      Cartesian components [Ang]: [  0.779074,   0.854659,   1.050939]
    Electron size [Ang]:            2.904112
      Cartesian components [Ang]: [  1.343618,   1.227727,   2.263017]

  Transition density matrix analysis:
  -----------------------------------
  
  CT numbers (Mulliken)
    omega =     0.9030
    <Phe> =    -0.0061
  
  Exciton analysis of the transition density matrix
    Trans. dipole moment [D]:             0.417351
      Cartesian components [D]:         [  0.000000,   0.417351,  -0.000000]
    <r_h> [Ang]:                        [ -0.000000,  -0.000000,   0.631503]
    <r_e> [Ang]:                        [  0.000000,   0.000000,   0.457963]
    |<r_e - r_h>| [Ang]:                  0.173541
    Hole size [Ang]:                      1.255240
      Cartesian components [Ang]:       [  0.509648,   0.860887,   0.758130]
    Electron size [Ang]:                  3.307934
      Cartesian components [Ang]:       [  1.520021,   1.406093,   2.579702]
    RMS electron-hole separation [Ang]:   3.526887
      Cartesian components [Ang]:       [  1.602214,   1.638466,   2.680909]
    Covariance(r_h, r_e) [Ang^2]:         0.054620
    Correlation coefficient:              0.013154
    Center-of-mass size [Ang]:            1.776745
      Cartesian components [Ang]:       [  0.802079,   0.829439,   1.351120]

  Decomposition into state-averaged NTOs
    H- 1 -> L+ 3:  0.6555 ( 85.9%)
    H- 1 -> L+ 2: -0.1403 (  3.9%)
                   omega =  90.3%
  ----------------------------------------------------------------------------


  Excited state 10 (singlet, B2)                                    [converged]
  ----------------------------------------------------------------------------
  Term symbol:  10 (1) B2                                   R^2 =  8.12660e-06

  Total energy:                                            -78.4966595871 a.u.
  Excitation energy:                                               8.663650 eV

  Osc. strength:                                                      0.000000
  Trans. dip. moment [a.u.]:           [  -0.000000,    0.000025,   -0.000000]
  <i|r^2|0> [a.u.]:                    [  -0.000000,    0.000000,   -0.000000]

  Dip. moment [a.u.]:                  [  -0.000000,   -0.000000,   -0.676490]
  Total dipole [Debye]:                                               1.719465
  <r^2> [a.u.]:                        [  43.155301,   28.665848,  468.570044]
  Total <r^2> [a.u.]:                                               540.391193

  V1^2 = 0.0273, V2^2 = 0.9727

  Important amplitudes:
      occ i      occ j       vir a       vir b          v   
    ---------------------------------------------------------
     6 (A1) A   1 (B2) B    3 (B1) A    3 (B1) B     -0.1350
     6 (A1) A   1 (B2) B    7 (A1) A    8 (A1) B      0.1299
    ---------------------------------------------------------

  Density matrix analysis:
  ------------------------
  NOs
    Occupation of frontier NOs:
       0.8632   0.9692
    Number of electrons: 18.000000
    Number of unpaired electrons: n_u =  4.28995, n_u,nl =  3.91714
    NO participation ratio (PR_NO):  6.144069
  
  
  Mulliken Population Analysis
  Atom      Charge (e)              h+              e-           Del q
  --------------------------------------------------------------------
   1 C       -1.314464        0.491883       -1.563669       -1.071786
   2 C       -0.113800        0.470796       -0.340369        0.130427
   3 H        0.103309        0.002675       -0.014481       -0.011806
   4 H        0.110823        0.002455       -0.019970       -0.017514
   5 H        0.103309        0.002675       -0.014481       -0.011806
   6 H        0.110823        0.002455       -0.019970       -0.017514
   7 H       -0.000000        1.000791       -0.000792        0.999999
  --------------------------------------------------------------------
  Sum:       -1.000000        1.973731       -1.973731       -0.000000
  
  Multipole moment analysis of the density matrix
    Molecular charge:                      -1.000000
    Number of electrons:                   18.000000
      Center of electronic charge [Ang]: [  0.000000,   0.000000,   0.019888]
    Total nuclear charge:                  17.000000
      Center of nuclear charge [Ang]:    [ -0.000000,   0.000000,  -0.000000]
    Dipole moment [D]:                     1.719465
      Cartesian components [D]:          [ -0.000000,  -0.000000,  -1.719465]
    RMS size of the density [Ang]:         2.899404
      Cartesian components [Ang]:        [  0.819374,   0.667801,   2.699854]
  
  Exciton analysis of the difference density matrix
    <r_h> [Ang]:                  [  0.000000,  -0.000000,  -4.773559]
    <r_e> [Ang]:                  [  0.000000,   0.000000,   0.471627]
    |<r_e - r_h>| [Ang]:            5.245186
    Hole size [Ang]:                5.467566
      Cartesian components [Ang]: [  0.581071,   0.756823,   5.383665]
    Electron size [Ang]:            3.314543
      Cartesian components [Ang]: [  1.705045,   1.595302,   2.352452]

  Transition density matrix analysis:
  -----------------------------------
  
  CT numbers (Mulliken)
    omega =     0.0271
    <Phe> =     0.0003
  
  Exciton analysis of the transition density matrix
    Trans. dipole moment [D]:             0.000031
      Cartesian components [D]:         [ -0.000000,   0.000031,  -0.000000]
    <r_h> [Ang]:                        [  0.000000,   0.000000, -10.034538]
    <r_e> [Ang]:                        [  0.000000,   0.000000,   0.592329]
    |<r_e - r_h>| [Ang]:                 10.626866
    Hole size [Ang]:                      1.125956
      Cartesian components [Ang]:       [  0.642843,   0.642935,   0.664202]
    Electron size [Ang]:                  2.984015
      Cartesian components [Ang]:       [  1.333903,   2.306194,   1.344068]
    RMS electron-hole separation [Ang]:  11.097553
      Cartesian components [Ang]:       [  1.480724,   2.394130,  10.734583]
    Covariance(r_h, r_e) [Ang^2]:        -0.026636
    Correlation coefficient:             -0.007928
    Center-of-mass size [Ang]:            1.590507
      Cartesian components [Ang]:       [  0.740362,   1.197073,   0.740671]

  Decomposition into state-averaged NTOs
    H- 0 -> L+ 5: -0.1154 (  2.7%)
                   omega =   2.7%
  ----------------------------------------------------------------------------


--------------------------------------------------------------------------------
  Time of ADC calculation:  CPU 554.39 s  wall 139.49 s
================================================================================
 
 --------------------------------------------------------------
             Orbital Energies (a.u.) and Symmetries
 --------------------------------------------------------------
 
 Alpha MOs, Restricted
 -- Occupied --                  
-11.187 -11.185  -0.992  -0.732  -0.610  -0.517  -0.465  -0.327
  1 A1    2 A1    3 A1    4 A1    1 B1    5 A1    2 B1    1 B2                 
  0.022
  6 A1                                                                         
 -- Virtual --                   
  0.132   0.145   0.152   0.155   0.162   0.186   0.201   0.252
  7 A1    3 B1    2 B2    8 A1    3 B2    4 B1    9 A1    4 B2                 
  0.267   0.311   0.376   0.393   0.410   0.438   0.444   0.457
 10 A1   11 A1    5 B1   12 A1   13 A1    6 B1   14 A1    5 B2                 
  0.477   0.545   0.597   0.669   0.889   0.898   0.976   1.044
  7 B1    6 B2    8 B1   15 A1   16 A1    9 B1   17 A1   18 A1                 
  1.058   1.085   1.155   1.164   1.182   1.201   1.245   1.299
 19 A1   10 B1   20 A1    1 A2   11 B1   21 A1    7 B2    8 B2                 
  1.334   1.351   1.399   1.538   1.676   1.791   1.813   1.931
  2 A2    9 B2   22 A1   12 B1   23 A1   13 B1   14 B1   10 B2                 
  1.967   1.967   1.967   1.995   2.023   2.067   2.142   2.154
 24 A1   15 B1   11 B2   12 B2   25 A1    3 A2   26 A1   16 B1                 
  2.235   2.383   2.462   2.530   2.606   2.632   2.920   2.923
 13 B2   27 A1    4 A2   28 A1   17 B1   29 A1   30 A1   18 B1                 
  3.341   3.403
 31 A1   19 B1                                                                 
 
 Beta MOs, Restricted
 -- Occupied --                  
-11.187 -11.185  -0.992  -0.732  -0.610  -0.517  -0.465  -0.327
  1 A1    2 A1    3 A1    4 A1    1 B1    5 A1    2 B1    1 B2                 
  0.022
  6 A1                                                                         
 -- Virtual --                   
  0.132   0.145   0.152   0.155   0.162   0.186   0.201   0.252
  7 A1    3 B1    2 B2    8 A1    3 B2    4 B1    9 A1    4 B2                 
  0.267   0.311   0.376   0.393   0.410   0.438   0.444   0.457
 10 A1   11 A1    5 B1   12 A1   13 A1    6 B1   14 A1    5 B2                 
  0.477   0.545   0.597   0.669   0.889   0.898   0.976   1.044
  7 B1    6 B2    8 B1   15 A1   16 A1    9 B1   17 A1   18 A1                 
  1.058   1.085   1.155   1.164   1.182   1.201   1.245   1.299
 19 A1   10 B1   20 A1    1 A2   11 B1   21 A1    7 B2    8 B2                 
  1.334   1.351   1.399   1.538   1.676   1.791   1.813   1.931
  2 A2    9 B2   22 A1   12 B1   23 A1   13 B1   14 B1   10 B2                 
  1.967   1.967   1.967   1.995   2.023   2.067   2.142   2.154
 24 A1   15 B1   11 B2   12 B2   25 A1    3 A2   26 A1   16 B1                 
  2.235   2.383   2.462   2.530   2.606   2.632   2.920   2.923
 13 B2   27 A1    4 A2   28 A1   17 B1   29 A1   30 A1   18 B1                 
  3.341   3.403
 31 A1   19 B1                                                                 
 --------------------------------------------------------------
 
          Ground-State Mulliken Net Atomic Charges

     Atom                 Charge (a.u.)
  ----------------------------------------
      1 C                    -0.230776
      2 C                    -0.224184
      3 H                     0.107096
      4 H                     0.120384
      5 H                     0.107096
      6 H                     0.120384
      7 H                    -0.999999
  ----------------------------------------
  Sum of atomic charges =    -1.000000

 -----------------------------------------------------------------
                    Cartesian Multipole Moments
 -----------------------------------------------------------------
    Charge (ESU x 10^10)
                -4.8032
    Dipole Moment (Debye)
         X      -0.0000      Y      -0.0000      Z      47.9914
       Tot      47.9914
    Quadrupole Moments (Debye-Ang)
        XX     -15.9117     XY      -0.0000     YY     -20.1190
        XZ       0.0000     YZ       0.0000     ZZ    -501.0001
    Octopole Moments (Debye-Ang^2)
       XXX       0.0000    XXY       0.0000    XYY       0.0000
       YYY       0.0000    XXZ      31.9643    XYZ      -0.0000
       YYZ      29.3569    XZZ      -0.0000    YZZ      -0.0000
       ZZZ    4950.8699
    Hexadecapole Moments (Debye-Ang^3)
      XXXX     -32.7260   XXXY      -0.0000   XXYY     -11.0089
      XYYY      -0.0000   YYYY     -27.7071   XXXZ       0.0000
      XXYZ       0.0000   XYYZ      -0.0000   YYYZ       0.0000
      XXZZ    -418.3958   XYZZ      -0.0000   YYZZ    -422.5489
      XZZZ       0.0000   YZZZ       0.0000   ZZZZ  -51245.8731
 -----------------------------------------------------------------
 Total job time:  222.06s(wall), 599.80s(cpu) 
 Sat Mar 26 16:59:32 2022

        *************************************************************
        *                                                           *
        *  Thank you very much for using Q-Chem.  Have a nice day.  *
        *                                                           *
        *************************************************************


