/src/tsommerfeld/qchem/exe/qcprog.exe .input1.055556.19800.qcin.1 /src/jdavis/qchem.scratch/qchem19800/

                  Welcome to Q-Chem
     A Quantum Leap Into The Future Of Chemistry


 Q-Chem 5.4 (devel), Q-Chem, Inc., Pleasanton, CA (2021)

 E. Epifanovsky,  A. T. B. Gilbert,  Xintian Feng,  Joonho Lee,  Yuezhi Mao,  
 N. Mardirossian,  P. Pokhilko,  A. White,  M. Wormit,  M. P. Coons,  
 A. L. Dempwolff,  Zhengting Gan,  D. Hait,  P. R. Horn,  L. D. Jacobson,  
 I. Kaliman,  J. Kussmann,  A. W. Lange,  Ka Un Lao,  D. S. Levine,  Jie Liu,  
 S. C. McKenzie,  A. F. Morrison,  K. Nanda,  F. Plasser,  D. R. Rehn,  
 M. L. Vidal,  Zhi-Qiang You,  Ying Zhu,  B. Alam,  B. Albrecht,  
 A. Aldossary,  E. Alguire,  J. H. Andersen,  D. Barton,  K. Begam,  A. Behn,  
 Y. A. Bernard,  E. J. Berquist,  H. Burton,  A. Carreras,  K. Carter-Fenk,  
 R. Chakraborty,  A. D. Chien,  K. D. Closser,  V. Cofer-Shabica,  
 S. Dasgupta,  Jia Deng,  M. de Wergifosse,  M. Diedenhofen,  Hainam Do,  
 S. Ehlert,  Po-Tung Fang,  S. Fatehi,  Qingguo Feng,  T. Friedhoff,  
 J. Gayvert,  Qinghui Ge,  G. Gidofalvi,  M. Goldey,  J. Gomes,  
 C. Gonzalez-Espinoza,  S. Gulania,  A. Gunina,  M. W. D. Hanson-Heine,  
 P. H. P. Harbach,  A. W. Hauser,  M. F. Herbst,  M. Hernandez Vera,  
 M. Hodecker,  Z. C. Holden,  S. Houck,  Xunkun Huang,  Kerwin Hui,  
 B. C. Huynh,  M. Ivanov,  Hyunjun Ji,  Hanjie Jiang,  B. Kaduk,  S. Kaehler,  
 K. Khistyaev,  Jaehoon Kim,  P. Klunzinger,  Z. Koczor-Benda,  
 Joong Hoon Koh,  D. Kosenkov,  L. Koulias,  T. Kowalczyk,  C. M. Krauter,  
 K. Kue,  A. Kunitsa,  T. Kus,  A. Landau,  K. V. Lawler,  D. Lefrancois,  
 S. Lehtola,  Rain Li,  Yi-Pei Li,  Jiashu Liang,  M. Liebenthal,  
 Hung-Hsuan Lin,  You-Sheng Lin,  Fenglai Liu,  Kuan-Yu Liu,  
 M. Loipersberger,  A. Luenser,  A. Manjanath,  P. Manohar,  E. Mansoor,  
 S. F. Manzer,  Shan-Ping Mao,  A. V. Marenich,  T. Markovich,  S. Mason,  
 S. A. Maurer,  P. F. McLaughlin,  M. F. S. J. Menger,  J.-M. Mewes,  
 S. A. Mewes,  P. Morgante,  J. W. Mullinax,  K. J. Oosterbaan,  G. Paran,  
 Alexander C. Paul,  Suranjan K. Paul,  F. Pavosevic,  Zheng Pei,  S. Prager,  
 E. I. Proynov,  E. Ramos,  B. Rana,  A. E. Rask,  A. Rettig,  R. M. Richard,  
 F. Rob,  E. Rossomme,  T. Scheele,  M. Scheurer,  M. Schneider,  
 N. Sergueev,  S. M. Sharada,  W. Skomorowski,  D. W. Small,  C. J. Stein,  
 Yu-Chuan Su,  E. J. Sundstrom,  Zhen Tao,  J. Thirman,  T. Tsuchimochi,  
 N. M. Tubman,  S. P. Veccham,  O. Vydrov,  J. Wenzel,  J. Witte,  A. Yamada,  
 Kun Yao,  S. Yeganeh,  S. R. Yost,  A. Zech,  Igor Ying Zhang,  Xing Zhang,  
 Yu Zhang,  D. Zuev,  A. Aspuru-Guzik,  A. T. Bell,  N. A. Besley,  
 K. B. Bravaya,  B. R. Brooks,  D. Casanova,  Jeng-Da Chai,  S. Coriani,  
 C. J. Cramer,  A. E. DePrince, III,  R. A. DiStasio Jr.,  A. Dreuw,  
 B. D. Dunietz,  T. R. Furlani,  W. A. Goddard III,  S. Grimme,  
 S. Hammes-Schiffer,  T. Head-Gordon,  W. J. Hehre,  Chao-Ping Hsu,  
 T.-C. Jagau,  Yousung Jung,  A. Klamt,  Jing Kong,  D. S. Lambrecht,  
 WanZhen Liang,  N. J. Mayhall,  C. W. McCurdy,  J. B. Neaton,  
 C. Ochsenfeld,  J. A. Parkhill,  R. Peverati,  V. A. Rassolov,  Yihan Shao,  
 L. V. Slipchenko,  T. Stauch,  R. P. Steele,  J. E. Subotnik,  
 A. J. W. Thom,  A. Tkatchenko,  D. G. Truhlar,  T. Van Voorhis,  
 T. A. Wesolowski,  K. B. Whaley,  H. L. Woodcock III,  P. M. Zimmerman,  
 S. Faraji,  P. M. W. Gill,  M. Head-Gordon,  J. M. Herbert,  A. I. Krylov

 Additional authors for Version 5.4.1: 
 S. Kotaru,  Shaozhi Li,  Xiangyuan Li,  F. Matz,  A. Molle,  Haisheng Ren,  
 Yingli Su,  Hung-Yi Tsai,  C. Utku,  Fang Wang

 Contributors to earlier versions of Q-Chem not listed above: 
 R. D. Adamson,  B. Austin,  R. Baer,  J. Baker,  G. J. O. Beran,  
 K. Brandhorst,  S. T. Brown,  E. F. C. Byrd,  A. K. Chakraborty,  
 G. K. L. Chan,  Chun-Min Chang,  Yunqing Chen,  C.-L. Cheng,  
 Siu Hung Chien,  D. M. Chipman,  D. L. Crittenden,  H. Dachsel,  
 R. J. Doerksen,  A. D. Dutoi,  R. G. Edgar,  J. Fosso-Tande,  
 L. Fusti-Molnar,  D. Ghosh,  A. Ghysels,  A. Golubeva-Zadorozhnaya,  
 J. Gonthier,  M. S. Gordon,  S. R. Gwaltney,  G. Hawkins,  J. E. Herr,  
 A. Heyden,  S. Hirata,  E. G. Hohenstein,  G. Kedziora,  F. J. Keil,  
 C. Kelley,  Jihan Kim,  R. A. King,  R. Z. Khaliullin,  P. P. Korambath,  
 W. Kurlancheek,  A. Laurent,  A. M. Lee,  M. S. Lee,  S. V. Levchenko,  
 Ching Yeh Lin,  D. Liotard,  E. Livshits,  R. C. Lochan,  I. Lotan,  
 L. A. Martinez-Martinez,  P. E. Maslen,  N. Nair,  D. P. O'Neill,  
 D. Neuhauser,  E. Neuscamman,  C. M. Oana,  R. Olivares-Amaya,  R. Olson,  
 T. M. Perrine,  B. Peters,  P. A. Pieniazek,  A. Prociuk,  Y. M. Rhee,  
 J. Ritchie,  M. A. Rohrdanz,  E. Rosta,  N. J. Russ,  H. F. Schaefer III,  
 M. W. Schmidt,  N. E. Schultz,  S. Sharma,  N. Shenvi,  C. D. Sherrill,  
 A. C. Simmonett,  A. Sodt,  T. Stein,  D. Stuck,  K. S. Thanthiriwatte,  
 V. Vanovschi,  L. Vogt,  Tao Wang,  A. Warshel,  M. A. Watson,  
 C. F. Williams,  Q. Wu,  X. Xu,  Jun Yang,  W. Zhang,  Yan Zhao

 Please cite Q-Chem as follows:
 Y. Shao et al., Mol. Phys. 113, 184-215 (2015)
 DOI: 10.1080/00268976.2014.952696

 Q-Chem 5.4.1 for Intel X86 EM64T Linux

 Parts of Q-Chem use Armadillo 9.900.5 (Nocturnal Misbehaviour).
 http://arma.sourceforge.net/

 Q-Chem begins on Sat Mar 26 15:54:54 2022  

 Host: node01
0

     Scratch files written to /src/jdavis/qchem.scratch/qchem19800//
 Processing $rem in /src/tsommerfeld/qchem/config/preferences:
 Processing $rem in /home/jdavis/.qchemrc:

 Checking the input file for inconsistencies... 	...done.

--------------------------------------------------------------
User input:
--------------------------------------------------------------
$molecule
-1 1
C         0.0000000000    0.0000000000    0.8417902907
C         0.0000000000    0.0000000000   -0.4872097093
H         0.9623488518    0.0000000000    1.3363703127
H         0.9623489048    0.0000000000   -0.9817896873
H        -0.9623488518    0.0000000000    1.3363703127
H        -0.9623489048    0.0000000000   -0.9817896873
H         0.0000000000    0.0000000000   -10.4872097093
$end

$rem
   METHOD adc(3)
   BASIS gen
   PURECART 11
   EE_STATES [0,0,0,10]
   scf_convergence 8
   ADC_DAVIDSON_MAXITER 120
   ADC_DAVIDSON_MAXSUBSPACE 200
   adc_nguess_singles 100
   THRESH 14
   S2THRESH 14
   adc_davidson_conv 5
   adc_davidson_thresh 14
   THREADS 10
   MEM_TOTAL 95000
   STATE_ANALYSIS TRUE
$end
$basis
C 1
S   9   1.00
      6.665000D+03           6.920000D-04
      1.000000D+03           5.329000D-03
      2.280000D+02           2.707700D-02
      6.471000D+01           1.017180D-01
      2.106000D+01           2.747400D-01
      7.495000D+00           4.485640D-01
      2.797000D+00           2.850740D-01
      5.215000D-01           1.520400D-02
      1.596000D-01          -3.191000D-03
S   9   1.00
      6.665000D+03          -1.460000D-04
      1.000000D+03          -1.154000D-03
      2.280000D+02          -5.725000D-03
      6.471000D+01          -2.331200D-02
      2.106000D+01          -6.395500D-02
      7.495000D+00          -1.499810D-01
      2.797000D+00          -1.272620D-01
      5.215000D-01           5.445290D-01
      1.596000D-01           5.804960D-01
S   1   1.00
      1.596000D-01           1.000000D+00
S   1   1.00
      0.0469000              1.0000000
P   4   1.00
      9.439000D+00           3.810900D-02
      2.002000D+00           2.094800D-01
      5.456000D-01           5.085570D-01
      1.517000D-01           4.688420D-01
P   1   1.00
      1.517000D-01           1.000000D+00
P   1   1.00
      0.0640511      1.0000000
P   1   1.00
      0.0320256      1.0000000
D   1   1.00
      5.500000D-01           1.0000000
****
C 2
S   9   1.00
      6.665000D+03           6.920000D-04
      1.000000D+03           5.329000D-03
      2.280000D+02           2.707700D-02
      6.471000D+01           1.017180D-01
      2.106000D+01           2.747400D-01
      7.495000D+00           4.485640D-01
      2.797000D+00           2.850740D-01
      5.215000D-01           1.520400D-02
      1.596000D-01          -3.191000D-03
S   9   1.00
      6.665000D+03          -1.460000D-04
      1.000000D+03          -1.154000D-03
      2.280000D+02          -5.725000D-03
      6.471000D+01          -2.331200D-02
      2.106000D+01          -6.395500D-02
      7.495000D+00          -1.499810D-01
      2.797000D+00          -1.272620D-01
      5.215000D-01           5.445290D-01
      1.596000D-01           5.804960D-01
S   1   1.00
      1.596000D-01           1.000000D+00
S   1   1.00
      0.0469000              1.0000000
P   4   1.00
      9.439000D+00           3.810900D-02
      2.002000D+00           2.094800D-01
      5.456000D-01           5.085570D-01
      1.517000D-01           4.688420D-01
P   1   1.00
      1.517000D-01           1.000000D+00
P   1   1.00
      0.0640511      1.0000000
P   1   1.00
      0.0320256      1.0000000
D   1   1.00
      5.500000D-01           1.0000000
****
H 3
cc-pVDZ
****
H 4
cc-pVDZ
****
H 5
cc-pVDZ
****
H 6
cc-pVDZ
****
H 7
aug-cc-pVDZ
****
$end
--------------------------------------------------------------
 ----------------------------------------------------------------
             Standard Nuclear Orientation (Angstroms)
    I     Atom           X                Y                Z
 ----------------------------------------------------------------
    1      C       0.0000000000     0.0000000000     1.2918235242
    2      C       0.0000000000     0.0000000000    -0.0371764758
    3      H       0.9623488518     0.0000000000     1.7864035462
    4      H       0.9623489048     0.0000000000    -0.5317564538
    5      H      -0.9623488518     0.0000000000     1.7864035462
    6      H      -0.9623489048     0.0000000000    -0.5317564538
    7      H       0.0000000000     0.0000000000   -10.0371764758
 ----------------------------------------------------------------
 Molecular Point Group                 C2v   NOp =  4
 Largest Abelian Subgroup              C2v   NOp =  4
 Nuclear Repulsion Energy =          34.38697142 hartrees
 There are        9 alpha and        9 beta electrons
 Requested basis set is non-standard
 There are 33 shells and 67 basis functions
 Total memory of 95000 MB is distributed as follows: 
   MEM_STATIC is set to 192 MB
   QALLOC/CCMAN JOB total memory use is  94808 MB
 Warning: actual memory use might exceed 95000 MB

 Total QAlloc Memory Limit  95000 MB
 Mega-Array Size       188 MB
 MEM_STATIC part       192 MB

                       Distance Matrix (Angstroms)
             C (  1)   C (  2)   H (  3)   H (  4)   H (  5)   H (  6)
   C (  2)  1.329000
   H (  3)  1.082000  2.061931
   H (  4)  2.061931  1.082000  2.318160
   H (  5)  1.082000  2.061931  1.924698  3.013026
   H (  6)  2.061931  1.082000  3.013026  1.924698  2.318160
   H (  7) 11.329000 10.000000 11.862679  9.554011 11.862679  9.554011

 
 A cutoff of  1.0D-14 yielded    495 shell pairs
 There are      2107 function pairs (      2244 Cartesian)
 Smallest overlap matrix eigenvalue = 2.44E-04

 Scale SEOQF with 1.000000e-01/1.000000e-01/1.000000e-02

 Standard Electronic Orientation quadrupole field applied
 Nucleus-field energy     =    -0.0000000011 hartrees
 ================ Generating on-the-fly SAD Guess ================
Attempting to make child job directory: /src/jdavis/qchem.scratch/qchem19800//Frg1/
Attempting to make child job directory: /src/jdavis/qchem.scratch/qchem19800//Frg2/
Creating input file /src/jdavis/qchem.scratch/qchem19800/Frg1.input
using default PutDataFrgm: nothing
calling putenv with: QCSCRATCH=/src/jdavis/qchem.scratch/qchem19800/ 
Spawning Job For Fragment 0
Done Job For Fragment 0
calling putenv with: QCSCRATCH=/src/jdavis/qchem.scratch 
calling putenv with: QCTHREADS=1 
Creating input file /src/jdavis/qchem.scratch/qchem19800/Frg2.input
using default PutDataFrgm: nothing
calling putenv with: QCSCRATCH=/src/jdavis/qchem.scratch/qchem19800/ 
Spawning Job For Fragment 1
Done Job For Fragment 1
calling putenv with: QCSCRATCH=/src/jdavis/qchem.scratch 
calling putenv with: QCTHREADS=1 
 Time for running child jobs:  CPU 1.76 s  wall 54.36 s
 ============= Method Specific SAD Guess Constructed =============
 Guess from on-the-fly superposition of atomic densities
 Warning: Energy on first SCF cycle will be non-variational
 A restricted Hartree-Fock SCF calculation will be
 performed using Pulay DIIS extrapolation
 SCF converges when DIIS error is below 1.0E-08
 using 10 threads for integral computing
 -------------------------------------------------------
 OpenMP Integral computing Module                
 Release: version 1.0, May 2013, Q-Chem Inc. Pittsburgh 
 -------------------------------------------------------
 ---------------------------------------
  Cycle       Energy         DIIS Error
 ---------------------------------------
    1     -78.8003564983      7.36E-02
    2     -78.4465876823      6.48E-03
    3     -78.4845503070      1.48E-03
    4     -78.4864887659      4.79E-04
    5     -78.4866646539      7.72E-05
    6     -78.4866730541      1.81E-05
    7     -78.4866735431      8.86E-06
    8     -78.4866736493      1.76E-06
    9     -78.4866736593      5.90E-07
   10     -78.4866736608      1.26E-07
   11     -78.4866736609      2.42E-08
   12     -78.4866736609      8.83E-09 Convergence criterion met
 ---------------------------------------
 SCF time:  CPU 10.87 s  wall 1.09 s
 SCF   energy in the final basis set = -78.48667366
 Total energy in the final basis set = -78.48667366
================================================================================
|                                                                              |
|                                 A D C  M A N                                 |
|                                                                              |
 ------------------------------------------------------------------------------ 
|                                                                              |
| Components:                                                                  |
|                                                                              |
| - libvmm - 1.3-trunk                                                         |
|   Authors:                                                                   |
|   Evgeny Epifanovsky, Ilya Kaliman                                           |
|                                                                              |
| - libtensor - 2.5-trunk                                                      |
|   Authors:                                                                   |
|   Evgeny Epifanovsky, Michael Wormit, Dmitry Zuev, Sam Manzer,               |
|   Ilya Kaliman                                                               |
|                                                                              |
| - libwfa - 1.1-trunk                                                         |
|   Authors:                                                                   |
|   Felix Plasser, Stefanie Mewes (Baeppler), Benjamin Thomitzni,              |
|   Michael Wormit, Feng Chen, Anna I. Krylov, Pavel Pokhilko                  |
|                                                                              |
| - libadc - 1.1-trunk                                                         |
|   Authors:                                                                   |
|   Michael Wormit, Adrian L. Dempwolff, Philipp H. P. Harbach,                |
|   Caroline Krauter, Dirk Rehn, Matthias Schneider, Jan Wenzel                |
|                                                                              |
| - adcman - 2.6-trunk                                                         |
|   Authors:                                                                   |
|   Michael Wormit, Adrian L. Dempwolff, Philipp H. P. Harbach,                |
|   Caroline Krauter, Daniel Lefrancois, Jan-Michael Mewes, Dirk Rehn,         |
|   Matthias Schneider, Jan Wenzel, Andreas Dreuw                              |
|                                                                              |
| Authors of earlier versions of ADCMAN:                                       |
| Andreas Dreuw, Jan Hendrik Starcke, Dirk Rehn, Michael Wormit                |
|                                                                              |
================================================================================

 
 Alpha MOs, Restricted
 -- Occupied --                  
-11.187 -11.185  -0.992  -0.732  -0.611  -0.517  -0.465  -0.327
  1 A1    2 A1    3 A1    4 A1    1 B1    5 A1    2 B1    1 B2                 
  0.022
  6 A1                                                                         
 -- Virtual --                   
  0.104   0.112   0.120   0.138   0.142   0.142   0.171   0.212
  7 A1    3 B1    2 B2    3 B2    4 B1    8 A1    9 A1    4 B2                 
  0.248   0.311   0.312   0.333   0.336   0.341   0.346   0.390
 10 A1   11 A1    5 B1   12 A1    6 B1    5 B2   13 A1    7 B1                 
  0.413   0.423   0.598   0.651   0.859   0.910   0.939   0.980
 14 A1    6 B2    8 B1   15 A1   16 A1    9 B1   17 A1   18 A1                 
  0.992   1.058   1.070   1.088   1.105   1.114   1.136   1.164
 10 B1   19 A1    7 B2   20 A1   11 B1    8 B2   21 A1    1 A2                 
  1.318   1.334   1.336   1.432   1.666   1.676   1.768   1.916
 22 A1    2 A2    9 B2   12 B1   23 A1   13 B1   14 B1   10 B2                 
  1.967   1.967   1.967   1.992   1.995   2.067   2.092   2.131
 24 A1   15 B1   11 B2   12 B2   25 A1    3 A2   26 A1   16 B1                 
  2.227   2.373   2.462   2.510   2.625   2.633   2.859   2.868
 13 B2   27 A1    4 A2   28 A1   29 A1   17 B1   18 B1   30 A1                 
  3.294   3.389
 31 A1   19 B1                                                                 
 
 Beta MOs, Restricted
 -- Occupied --                  
-11.187 -11.185  -0.992  -0.732  -0.611  -0.517  -0.465  -0.327
  1 A1    2 A1    3 A1    4 A1    1 B1    5 A1    2 B1    1 B2                 
  0.022
  6 A1                                                                         
 -- Virtual --                   
  0.104   0.112   0.120   0.138   0.142   0.142   0.171   0.212
  7 A1    3 B1    2 B2    3 B2    4 B1    8 A1    9 A1    4 B2                 
  0.248   0.311   0.312   0.333   0.336   0.341   0.346   0.390
 10 A1   11 A1    5 B1   12 A1    6 B1    5 B2   13 A1    7 B1                 
  0.413   0.423   0.598   0.651   0.859   0.910   0.939   0.980
 14 A1    6 B2    8 B1   15 A1   16 A1    9 B1   17 A1   18 A1                 
  0.992   1.058   1.070   1.088   1.105   1.114   1.136   1.164
 10 B1   19 A1    7 B2   20 A1   11 B1    8 B2   21 A1    1 A2                 
  1.318   1.334   1.336   1.432   1.666   1.676   1.768   1.916
 22 A1    2 A2    9 B2   12 B1   23 A1   13 B1   14 B1   10 B2                 
  1.967   1.967   1.967   1.992   1.995   2.067   2.092   2.131
 24 A1   15 B1   11 B2   12 B2   25 A1    3 A2   26 A1   16 B1                 
  2.227   2.373   2.462   2.510   2.625   2.633   2.859   2.868
 13 B2   27 A1    4 A2   28 A1   29 A1   17 B1   18 B1   30 A1                 
  3.294   3.389
 31 A1   19 B1                                                                 

--------------------------------------------------------------------------------
                                   HF Summary                                   
--------------------------------------------------------------------------------
  Energy:                                                  -78.4866736609 a.u.
  Dip. moment [a.u.]:                  [   0.000000,   -0.000000,   18.879333]
  Total dipole [Debye]:                                              47.986487
  <r^2> [a.u.]:                        [  25.068699,   14.936201,  792.811523]
  Total <r^2> [a.u.]:                                               832.816423
--------------------------------------------------------------------------------

--------------------------------------------------------------------------------
                                 MP(2) Summary                                  
--------------------------------------------------------------------------------
  MP energy contribution:                                   -0.2985098347 a.u.
  Total energy:                                            -78.7851834956 a.u.
  Dip. moment [a.u.]:                  [  -0.000000,   -0.000000,   18.885020]
  Total dipole [Debye]:                                              48.000943
  <r^2> [a.u.]:                        [  25.057576,   14.744778,  792.859266]
  Total <r^2> [a.u.]:                                               832.661621

  Density matrix analysis:
  ------------------------
  NOs
    Occupation of frontier NOs:
       0.0447   1.9371
    Number of electrons: 18.000000
    Number of unpaired electrons: n_u =  0.43199, n_u,nl =  0.04672
    NO participation ratio (PR_NO): 15.330001
  
  
  Mulliken Population Analysis
  Atom      Charge (e)              h+              e-           Del q
  --------------------------------------------------------------------
   1 C       -0.187811        0.090439       -0.101571       -0.011133
   2 C       -0.181787        0.085173       -0.103524       -0.018350
   3 H        0.085972        0.017920       -0.010516        0.007405
   4 H        0.098737        0.017683       -0.010351        0.007332
   5 H        0.085972        0.017920       -0.010516        0.007405
   6 H        0.098737        0.017683       -0.010351        0.007332
   7 H       -0.999822        0.021964       -0.021954        0.000009
  --------------------------------------------------------------------
  Sum:       -1.000000        0.268782       -0.268782        0.000000
  
  Multipole moment analysis of the density matrix
    Molecular charge:                      -1.000000
    Number of electrons:                   18.000000
      Center of electronic charge [Ang]: [  0.000000,   0.000000,  -0.555196]
    Total nuclear charge:                  17.000000
      Center of nuclear charge [Ang]:    [ -0.000000,   0.000000,  -0.000000]
    Dipole moment [D]:                     48.000929
      Cartesian components [D]:          [ -0.000000,  -0.000000,  48.000929]
    RMS size of the density [Ang]:         3.556064
      Cartesian components [Ang]:        [  0.624359,   0.478943,   3.467907]
  
  Exciton analysis of the difference density matrix
    <r_h> [Ang]:                  [ -0.000000,  -0.000000,  -0.231770]
    <r_e> [Ang]:                  [  0.000000,   0.000000,  -0.242968]
    |<r_e - r_h>| [Ang]:            0.011198
    Hole size [Ang]:                3.252567
      Cartesian components [Ang]: [  0.735379,   0.754692,   3.077150]
    Electron size [Ang]:            3.226856
      Cartesian components [Ang]: [  0.727457,   0.608381,   3.084360]
--------------------------------------------------------------------------------

--------------------------------------------------------------------------------
                                 MP(3) Summary                                  
--------------------------------------------------------------------------------
  MP energy contribution:                                   -0.0281785735 a.u.
  Total energy:                                            -78.8133620692 a.u.
--------------------------------------------------------------------------------
  Starting Davidson for singlet states of irrep B2 ... 
--------------------------------------------------------------------------------
   It NVec Conv  Avg. Norm  Max. Norm  Conv. states           Remark
--------------------------------------------------------------------------------
       100    0  9.242e-02  4.271e-01  0.0711 n n n n n n n n Guess.
    1  110    0  3.250e-02  2.226e-01  0.0409 n n n n n n n n 
    2  120    0  2.743e-02  1.833e-01  0.0406 n n n n n n n n 
    3  130    0  2.111e-02  1.129e-01  0.0406 n n n n n n n n 
    4  140    0  1.187e-02  8.656e-02  0.0406 n n n n n n n n 
    5  150    0  6.310e-03  4.821e-02  0.0406 n n n n n n n n 
    6  160    1  5.173e-03  4.806e-02  0.0406 y n n n n n n n 
    7  170    2  1.979e-03  1.539e-02  0.0406 y y n n n n n n 
    8  180    3  7.337e-04  5.672e-03  0.0406 y y y n n n n n 
    9  190    3  3.040e-04  1.973e-03  0.0406 y y y n n n n n 
   10  200    3  7.486e-04  7.449e-03  0.0406 y y y n n n n n 
   11   20    6  2.838e-04  2.826e-03  0.0406 y y y y y y n n Subspace collapsed.
   12   30    6  2.387e-04  2.383e-03  0.0406 y y y y y y n n 
   13   40    7  2.024e-04  2.023e-03  0.0406 y y y y y y n n 
   14   50    7  1.384e-04  1.384e-03  0.0406 y y y y y y n n 
   15   60    8  1.158e-04  1.158e-03  0.0406 y y y y y y y n 
   16   70    9  7.893e-05  7.893e-04  0.0406 y y y y y y y y 
   17   80    9  5.787e-05  5.787e-04  0.0406 y y y y y y y y 
   18   90    9  4.585e-05  4.585e-04  0.0406 y y y y y y y y 
   19  100    9  4.360e-05  4.360e-04  0.0406 y y y y y y y y 
   20  110    9  5.792e-05  5.792e-04  0.0406 y y y y y y y y 
   21  119    9  5.616e-05  5.616e-04  0.0406 y y y y y y y y 
   22  127    9  5.012e-05  5.012e-04  0.0406 y y y y y y y y 
   23  135    9  3.911e-05  3.911e-04  0.0406 y y y y y y y y 
   24  143    9  2.146e-05  2.146e-04  0.0406 y y y y y y y y 
   25  150    9  8.183e-06  8.183e-05  0.0406 y y y y y y y y 
   26  157    9  2.724e-06  2.724e-05  0.0406 y y y y y y y y 
   27  164   10  8.797e-07  8.797e-06  0.0406 y y y y y y y y Converged.
--------------------------------------------------------------------------------
  Davidson Summary: 
 ------------------------------------------------------------
  State  0: excitation energy =   0.0406 a.u.   (converged)
  State  1: excitation energy =   0.0458 a.u.   (converged)
  State  2: excitation energy =   0.1004 a.u.   (converged)
  State  3: excitation energy =   0.1944 a.u.   (converged)
  State  4: excitation energy =   0.1995 a.u.   (converged)
  State  5: excitation energy =   0.2424 a.u.   (converged)
  State  6: excitation energy =   0.2760 a.u.   (converged)
  State  7: excitation energy =   0.2779 a.u.   (converged)
  State  8: excitation energy =   0.2800 a.u.   (converged)
  State  9: excitation energy =   0.2949 a.u.   (converged)
 ------------------------------------------------------------


--------------------------------------------------------------------------------
                   State-averaged natural transition orbitals
--------------------------------------------------------------------------------
--------------------------------------------------------------------------------

--------------------------------------------------------------------------------
                             Excited State Summary
--------------------------------------------------------------------------------
--------------------------------------------------------------------------------

  Excited state 1 (singlet, B2)                                    [converged]
  ----------------------------------------------------------------------------
  Term symbol:  1 (1) B2                                    R^2 =  5.61602e-15

  Total energy:                                            -78.7727948881 a.u.
  Excitation energy:                                               1.103889 eV

  Osc. strength:                                                      0.000000
  Trans. dip. moment [a.u.]:           [   0.000000,    0.001660,   -0.000000]
  <i|r^2|0> [a.u.]:                    [  -0.000000,    0.000000,   -0.000000]

  Dip. moment [a.u.]:                  [  -0.000000,    0.000000,   -1.181403]
  Total dipole [Debye]:                                               3.002827
  <r^2> [a.u.]:                        [  34.973371,   47.835492,  445.047683]
  Total <r^2> [a.u.]:                                               527.856546

  V1^2 = 0.9552, V2^2 = 0.0448

  Important amplitudes:
      occ i      occ j       vir a       vir b          v   
    ---------------------------------------------------------
     6 (A1) A               2 (B2) A                 -0.6307
     6 (A1) A               3 (B2) A                 -0.2807
    ---------------------------------------------------------

  Density matrix analysis:
  ------------------------
  NOs
    Occupation of frontier NOs:
       0.9946   1.0028
    Number of electrons: 18.000000
    Number of unpaired electrons: n_u =  2.41257, n_u,nl =  2.04908
    NO participation ratio (PR_NO):  2.915311
  
  
  Mulliken Population Analysis
  Atom      Charge (e)              h+              e-           Del q
  --------------------------------------------------------------------
   1 C       -0.646797        0.039359       -0.498344       -0.458986
   2 C       -0.652956        0.030994       -0.502164       -0.471170
   3 H        0.074770       -0.001771       -0.009432       -0.011203
   4 H        0.075105       -0.000877       -0.022755       -0.023633
   5 H        0.074770       -0.001771       -0.009432       -0.011203
   6 H        0.075105       -0.000877       -0.022755       -0.023633
   7 H        0.000005        1.061486       -0.061659        0.999827
  --------------------------------------------------------------------
  Sum:       -1.000000        1.126541       -1.126541        0.000000
  
  Multipole moment analysis of the density matrix
    Molecular charge:                      -1.000000
    Number of electrons:                   18.000000
      Center of electronic charge [Ang]: [  0.000000,  -0.000000,   0.034732]
    Total nuclear charge:                  17.000000
      Center of nuclear charge [Ang]:    [ -0.000000,   0.000000,  -0.000000]
    Dipole moment [D]:                     3.002826
      Cartesian components [D]:          [ -0.000000,   0.000000,  -3.002826]
    RMS size of the density [Ang]:         2.865437
      Cartesian components [Ang]:        [  0.737622,   0.862661,   2.631057]
  
  Exciton analysis of the difference density matrix
    <r_h> [Ang]:                  [  0.000000,  -0.000000,  -9.427944]
    <r_e> [Ang]:                  [  0.000000,  -0.000000,  -0.002016]
    |<r_e - r_h>| [Ang]:            9.425929
    Hole size [Ang]:                2.775977
      Cartesian components [Ang]: [  0.734666,   0.734098,   2.574377]
    Electron size [Ang]:            4.563511
      Cartesian components [Ang]: [  1.733361,   2.960470,   3.009436]

  Transition density matrix analysis:
  -----------------------------------
  
  CT numbers (Mulliken)
    omega =     0.9490
    <Phe> =     0.0001
  
  Exciton analysis of the transition density matrix
    Trans. dipole moment [D]:             0.002110
      Cartesian components [D]:         [  0.000000,   0.002110,  -0.000000]
    <r_h> [Ang]:                        [ -0.000000,   0.000000, -10.036093]
    <r_e> [Ang]:                        [  0.000000,  -0.000000,   0.621925]
    |<r_e - r_h>| [Ang]:                 10.658018
    Hole size [Ang]:                      1.118534
      Cartesian components [Ang]:       [  0.643469,   0.643479,   0.650384]
    Electron size [Ang]:                  4.069319
      Cartesian components [Ang]:       [  1.810380,   3.135757,   1.857126]
    RMS electron-hole separation [Ang]:  11.463553
      Cartesian components [Ang]:       [  1.921335,   3.201096,  10.838565]
    Covariance(r_h, r_e) [Ang^2]:        -0.004608
    Correlation coefficient:             -0.001012
    Center-of-mass size [Ang]:            2.109577
      Cartesian components [Ang]:       [  0.960668,   1.600551,   0.982685]

  Decomposition into state-averaged NTOs
    H- 0 -> L+ 0: -0.5527 ( 61.1%)
    H- 0 -> L+ 1:  0.3690 ( 27.2%)
    H- 0 -> L+ 3: -0.1811 (  6.6%)
                   omega =  94.9%
  ----------------------------------------------------------------------------


  Excited state 2 (singlet, B2)                                    [converged]
  ----------------------------------------------------------------------------
  Term symbol:  2 (1) B2                                    R^2 =  5.81920e-15

  Total energy:                                            -78.7675830303 a.u.
  Excitation energy:                                               1.245711 eV

  Osc. strength:                                                      0.000014
  Trans. dip. moment [a.u.]:           [   0.000000,    0.021450,   -0.000000]
  <i|r^2|0> [a.u.]:                    [  -0.000000,   -0.000000,   -0.000000]

  Dip. moment [a.u.]:                  [  -0.000000,   -0.000000,   -1.190845]
  Total dipole [Debye]:                                               3.026828
  <r^2> [a.u.]:                        [  30.549954,   33.521927,  454.023684]
  Total <r^2> [a.u.]:                                               518.095565

  V1^2 = 0.9377, V2^2 = 0.0623

  Important amplitudes:
      occ i      occ j       vir a       vir b          v   
    ---------------------------------------------------------
     6 (A1) A               3 (B2) A                 -0.6152
     6 (A1) A               2 (B2) A                  0.2677
    ---------------------------------------------------------

  Density matrix analysis:
  ------------------------
  NOs
    Occupation of frontier NOs:
       0.9871   1.0018
    Number of electrons: 18.000000
    Number of unpaired electrons: n_u =  2.42660, n_u,nl =  2.05069
    NO participation ratio (PR_NO):  2.968003
  
  
  Mulliken Population Analysis
  Atom      Charge (e)              h+              e-           Del q
  --------------------------------------------------------------------
   1 C       -0.637094        0.098740       -0.548022       -0.449283
   2 C       -0.635842        0.090340       -0.544396       -0.454056
   3 H        0.068076        0.003951       -0.021847       -0.017896
   4 H        0.068388        0.004028       -0.034378       -0.030349
   5 H        0.068076        0.003951       -0.021847       -0.017896
   6 H        0.068388        0.004028       -0.034378       -0.030349
   7 H        0.000007        1.058336       -0.058508        0.999829
  --------------------------------------------------------------------
  Sum:       -1.000000        1.263375       -1.263375        0.000000
  
  Multipole moment analysis of the density matrix
    Molecular charge:                      -1.000000
    Number of electrons:                   18.000000
      Center of electronic charge [Ang]: [  0.000000,   0.000000,   0.035009]
    Total nuclear charge:                  17.000000
      Center of nuclear charge [Ang]:    [ -0.000000,   0.000000,  -0.000000]
    Dipole moment [D]:                     3.026827
      Cartesian components [D]:          [ -0.000000,  -0.000000,  -3.026827]
    RMS size of the density [Ang]:         2.838813
      Cartesian components [Ang]:        [  0.689398,   0.722153,   2.657458]
  
  Exciton analysis of the difference density matrix
    <r_h> [Ang]:                  [  0.000000,  -0.000000,  -8.312479]
    <r_e> [Ang]:                  [  0.000000,   0.000000,   0.096498]
    |<r_e - r_h>| [Ang]:            8.408977
    Hole size [Ang]:                4.158688
      Cartesian components [Ang]: [  0.772939,   0.813649,   4.004401]
    Electron size [Ang]:            4.081513
      Cartesian components [Ang]: [  1.347155,   2.196361,   3.165426]

  Transition density matrix analysis:
  -----------------------------------
  
  CT numbers (Mulliken)
    omega =     0.9271
    <Phe> =     0.0000
  
  Exciton analysis of the transition density matrix
    Trans. dipole moment [D]:             0.027260
      Cartesian components [D]:         [  0.000000,   0.027260,  -0.000000]
    <r_h> [Ang]:                        [ -0.000000,   0.000000, -10.036519]
    <r_e> [Ang]:                        [  0.000000,   0.000000,   0.621366]
    |<r_e - r_h>| [Ang]:                 10.657885
    Hole size [Ang]:                      1.116352
      Cartesian components [Ang]:       [  0.643402,   0.643397,   0.646773]
    Electron size [Ang]:                  3.681421
      Cartesian components [Ang]:       [  1.380275,   2.386127,   2.440103]
    RMS electron-hole separation [Ang]:  11.330918
      Cartesian components [Ang]:       [  1.522868,   2.471343,  10.952764]
    Covariance(r_h, r_e) [Ang^2]:        -0.000043
    Correlation coefficient:             -0.000011
    Center-of-mass size [Ang]:            1.923475
      Cartesian components [Ang]:       [  0.761434,   1.235677,   1.262171]

  Decomposition into state-averaged NTOs
    H- 0 -> L+ 1: -0.4747 ( 45.1%)
    H- 0 -> L+ 4:  0.3677 ( 27.0%)
    H- 0 -> L+ 0: -0.3209 ( 20.6%)
                   omega =  92.7%
  ----------------------------------------------------------------------------


  Excited state 3 (singlet, B2)                                    [converged]
  ----------------------------------------------------------------------------
  Term symbol:  3 (1) B2                                    R^2 =  3.08933e-15

  Total energy:                                            -78.7129441938 a.u.
  Excitation energy:                                               2.732509 eV

  Osc. strength:                                                      0.000028
  Trans. dip. moment [a.u.]:           [   0.000000,    0.020409,   -0.000000]
  <i|r^2|0> [a.u.]:                    [   0.000000,    0.000000,   -0.000000]

  Dip. moment [a.u.]:                  [  -0.000000,    0.000000,   -1.185778]
  Total dipole [Debye]:                                               3.013947
  <r^2> [a.u.]:                        [  30.222367,   31.096411,  451.212349]
  Total <r^2> [a.u.]:                                               512.531127

  V1^2 = 0.8952, V2^2 = 0.1048

  Important amplitudes:
      occ i      occ j       vir a       vir b          v   
    ---------------------------------------------------------
     6 (A1) A               4 (B2) A                  0.6454
     6 (A1) A               3 (B2) A                 -0.1348
    ---------------------------------------------------------

  Density matrix analysis:
  ------------------------
  NOs
    Occupation of frontier NOs:
       0.9724   0.9998
    Number of electrons: 18.000000
    Number of unpaired electrons: n_u =  2.47766, n_u,nl =  2.06766
    NO participation ratio (PR_NO):  3.126443
  
  
  Mulliken Population Analysis
  Atom      Charge (e)              h+              e-           Del q
  --------------------------------------------------------------------
   1 C       -0.577995        0.172058       -0.562242       -0.390184
   2 C       -0.582318        0.185130       -0.585662       -0.400531
   3 H        0.039760        0.006856       -0.053069       -0.046213
   4 H        0.040391        0.007028       -0.065374       -0.058346
   5 H        0.039760        0.006856       -0.053069       -0.046213
   6 H        0.040391        0.007028       -0.065374       -0.058346
   7 H        0.000011        1.051699       -0.051866        0.999833
  --------------------------------------------------------------------
  Sum:       -1.000000        1.436655       -1.436655        0.000000
  
  Multipole moment analysis of the density matrix
    Molecular charge:                      -1.000000
    Number of electrons:                   18.000000
      Center of electronic charge [Ang]: [  0.000000,  -0.000000,   0.034860]
    Total nuclear charge:                  17.000000
      Center of nuclear charge [Ang]:    [ -0.000000,   0.000000,  -0.000000]
    Dipole moment [D]:                     3.013946
      Cartesian components [D]:          [ -0.000000,   0.000000,  -3.013946]
    RMS size of the density [Ang]:         2.823527
      Cartesian components [Ang]:        [  0.685692,   0.695537,   2.649218]
  
  Exciton analysis of the difference density matrix
    <r_h> [Ang]:                  [  0.000000,  -0.000000,  -7.196576]
    <r_e> [Ang]:                  [  0.000000,  -0.000000,   0.196299]
    |<r_e - r_h>| [Ang]:            7.392874
    Hole size [Ang]:                4.903957
      Cartesian components [Ang]: [  0.773628,   0.821666,   4.772332]
    Electron size [Ang]:            3.660884
      Cartesian components [Ang]: [  1.266967,   1.965285,   2.816827]

  Transition density matrix analysis:
  -----------------------------------
  
  CT numbers (Mulliken)
    omega =     0.8802
    <Phe> =     0.0000
  
  Exciton analysis of the transition density matrix
    Trans. dipole moment [D]:             0.025937
      Cartesian components [D]:         [  0.000000,   0.025937,  -0.000000]
    <r_h> [Ang]:                        [ -0.000000,   0.000000, -10.036518]
    <r_e> [Ang]:                        [  0.000000,  -0.000000,   0.621689]
    |<r_e - r_h>| [Ang]:                 10.658207
    Hole size [Ang]:                      1.116101
      Cartesian components [Ang]:       [  0.643252,   0.643246,   0.646639]
    Electron size [Ang]:                  3.404303
      Cartesian components [Ang]:       [  1.278065,   2.202894,   2.259002]
    RMS electron-hole separation [Ang]:  11.244218
      Cartesian components [Ang]:       [  1.430812,   2.294882,  10.914153]
    Covariance(r_h, r_e) [Ang^2]:        -0.000055
    Correlation coefficient:             -0.000015
    Center-of-mass size [Ang]:            1.791288
      Cartesian components [Ang]:       [  0.715406,   1.147446,   1.174850]

  Decomposition into state-averaged NTOs
    H- 0 -> L+ 4: -0.5412 ( 58.6%)
    H- 0 -> L+ 1: -0.3179 ( 20.2%)
    H- 0 -> L+ 0: -0.2139 (  9.1%)
                   omega =  88.0%
  ----------------------------------------------------------------------------


  Excited state 4 (singlet, B2)                                    [converged]
  ----------------------------------------------------------------------------
  Term symbol:  4 (1) B2                                    R^2 =  1.64540e-14

  Total energy:                                            -78.6189557203 a.u.
  Excitation energy:                                               5.290066 eV

  Osc. strength:                                                      0.000001
  Trans. dip. moment [a.u.]:           [  -0.000000,   -0.003061,    0.000000]
  <i|r^2|0> [a.u.]:                    [  -0.000000,   -0.000000,    0.000000]

  Dip. moment [a.u.]:                  [   0.000000,   -0.000000,   -0.842501]
  Total dipole [Debye]:                                               2.141424
  <r^2> [a.u.]:                        [  35.477872,   48.412927,  446.894260]
  Total <r^2> [a.u.]:                                               530.785058

  V1^2 = 0.0430, V2^2 = 0.9570

  Important amplitudes:
      occ i      occ j       vir a       vir b          v   
    ---------------------------------------------------------
     6 (A1) A   1 (B2) B    4 (B2) A    2 (B2) B     -0.2007
     6 (A1) A               4 (B2) A                 -0.1345
    ---------------------------------------------------------

  Density matrix analysis:
  ------------------------
  NOs
    Occupation of frontier NOs:
       0.9876   1.0088
    Number of electrons: 18.000000
    Number of unpaired electrons: n_u =  3.97854, n_u,nl =  3.89438
    NO participation ratio (PR_NO):  4.793590
  
  
  Mulliken Population Analysis
  Atom      Charge (e)              h+              e-           Del q
  --------------------------------------------------------------------
   1 C       -0.534177        0.499863       -0.846230       -0.346366
   2 C       -0.790984        0.487793       -1.096990       -0.609197
   3 H        0.075186        0.002807       -0.013593       -0.010786
   4 H        0.087350        0.002477       -0.013865       -0.011388
   5 H        0.075186        0.002807       -0.013593       -0.010786
   6 H        0.087350        0.002477       -0.013865       -0.011388
   7 H        0.000090        1.001710       -0.001799        0.999912
  --------------------------------------------------------------------
  Sum:       -1.000000        1.999934       -1.999934        0.000000
  
  Multipole moment analysis of the density matrix
    Molecular charge:                      -1.000000
    Number of electrons:                   18.000000
      Center of electronic charge [Ang]: [ -0.000000,   0.000000,   0.024768]
    Total nuclear charge:                  17.000000
      Center of nuclear charge [Ang]:    [ -0.000000,   0.000000,  -0.000000]
    Dipole moment [D]:                     2.141423
      Cartesian components [D]:          [  0.000000,  -0.000000,  -2.141423]
    RMS size of the density [Ang]:         2.873479
      Cartesian components [Ang]:        [  0.742923,   0.867852,   2.636623]
  
  Exciton analysis of the difference density matrix
    <r_h> [Ang]:                  [  0.000000,  -0.000000,  -4.708936]
    <r_e> [Ang]:                  [  0.000000,   0.000000,   0.510914]
    |<r_e - r_h>| [Ang]:            5.219850
    Hole size [Ang]:                5.482000
      Cartesian components [Ang]: [  0.611857,   0.811937,   5.386902]
    Electron size [Ang]:            3.113991
      Cartesian components [Ang]: [  1.354034,   2.318063,   1.578010]

  Transition density matrix analysis:
  -----------------------------------
  
  CT numbers (Mulliken)
    omega =     0.0424
    <Phe> =     0.0000
  
  Exciton analysis of the transition density matrix
    Trans. dipole moment [D]:             0.003890
      Cartesian components [D]:         [ -0.000000,  -0.003890,   0.000000]
    <r_h> [Ang]:                        [ -0.000000,   0.000000, -10.036054]
    <r_e> [Ang]:                        [  0.000000,  -0.000000,   0.641508]
    |<r_e - r_h>| [Ang]:                 10.677562
    Hole size [Ang]:                      1.119661
      Cartesian components [Ang]:       [  0.644007,   0.644018,   0.651258]
    Electron size [Ang]:                  3.127402
      Cartesian components [Ang]:       [  1.176480,   2.021725,   2.075853]
    RMS electron-hole separation [Ang]:  11.182789
      Cartesian components [Ang]:       [  1.341212,   2.121818,  10.897422]
    Covariance(r_h, r_e) [Ang^2]:        -0.005084
    Correlation coefficient:             -0.001452
    Center-of-mass size [Ang]:            1.660129
      Cartesian components [Ang]:       [  0.670606,   1.060914,   1.086636]

  Decomposition into state-averaged NTOs
    H- 0 -> L+ 4:  0.1277 (  3.3%)
                   omega =   4.2%
  ----------------------------------------------------------------------------


  Excited state 5 (singlet, B2)                                    [converged]
  ----------------------------------------------------------------------------
  Term symbol:  5 (1) B2                                    R^2 =  2.32689e-14

  Total energy:                                            -78.6138146268 a.u.
  Excitation energy:                                               5.429962 eV

  Osc. strength:                                                      0.000000
  Trans. dip. moment [a.u.]:           [   0.000000,    0.000322,   -0.000000]
  <i|r^2|0> [a.u.]:                    [  -0.000000,   -0.000000,   -0.000000]

  Dip. moment [a.u.]:                  [   0.000000,   -0.000000,   -1.598455]
  Total dipole [Debye]:                                               4.062869
  <r^2> [a.u.]:                        [  32.760170,   40.624830,  463.755326]
  Total <r^2> [a.u.]:                                               537.140326

  V1^2 = 0.0008, V2^2 = 0.9992

  Important amplitudes:
      occ i      occ j       vir a       vir b          v   
    ---------------------------------------------------------
     6 (A1) A   1 (B2) B    4 (B2) A    3 (B2) B     -0.1866
     6 (A1) A   1 (B2) B    3 (B2) A    3 (B2) B     -0.1683
    ---------------------------------------------------------

  Density matrix analysis:
  ------------------------
  NOs
    Occupation of frontier NOs:
       0.9463   0.9887
    Number of electrons: 18.000000
    Number of unpaired electrons: n_u =  3.25549, n_u,nl =  3.11764
    NO participation ratio (PR_NO):  4.487047
  
  
  Mulliken Population Analysis
  Atom      Charge (e)              h+              e-           Del q
  --------------------------------------------------------------------
   1 C       -0.777418        0.505479       -1.095086       -0.589607
   2 C       -0.586086        0.480689       -0.884988       -0.404299
   3 H        0.084713        0.003341       -0.004600       -0.001260
   4 H        0.096992        0.003236       -0.004981       -0.001745
   5 H        0.084713        0.003341       -0.004600       -0.001260
   6 H        0.096992        0.003236       -0.004981       -0.001745
   7 H        0.000094        0.999935       -0.000020        0.999915
  --------------------------------------------------------------------
  Sum:       -1.000000        1.999257       -1.999257        0.000000
  
  Multipole moment analysis of the density matrix
    Molecular charge:                      -1.000000
    Number of electrons:                   18.000000
      Center of electronic charge [Ang]: [ -0.000000,   0.000000,   0.046993]
    Total nuclear charge:                  17.000000
      Center of nuclear charge [Ang]:    [ -0.000000,   0.000000,  -0.000000]
    Dipole moment [D]:                     4.062867
      Cartesian components [D]:          [  0.000000,  -0.000000,  -4.062867]
    RMS size of the density [Ang]:         2.890356
      Cartesian components [Ang]:        [  0.713901,   0.794988,   2.685609]
  
  Exciton analysis of the difference density matrix
    <r_h> [Ang]:                  [  0.000000,  -0.000000,  -4.700064]
    <r_e> [Ang]:                  [ -0.000000,   0.000000,   0.721645]
    |<r_e - r_h>| [Ang]:            5.421709
    Hole size [Ang]:                5.468495
      Cartesian components [Ang]: [  0.580409,   0.760320,   5.384188]
    Electron size [Ang]:            3.175168
      Cartesian components [Ang]: [  1.189852,   2.050124,   2.112565]

  Transition density matrix analysis:
  -----------------------------------
  
  CT numbers (Mulliken)
    omega =     0.0013
    <Phe> =     0.0120
  
  Exciton analysis of the transition density matrix
    Trans. dipole moment [D]:             0.000409
      Cartesian components [D]:         [  0.000000,   0.000409,  -0.000000]
    <r_h> [Ang]:                        [ -0.000000,  -0.000000,  -5.692794]
    <r_e> [Ang]:                        [ -0.000000,  -0.000000,  -4.164010]
    |<r_e - r_h>| [Ang]:                  1.528784
    Hole size [Ang]:                      5.374583
      Cartesian components [Ang]:       [  0.592472,   0.741287,   5.290143]
    Electron size [Ang]:                  5.521323
      Cartesian components [Ang]:       [  1.199712,   1.994893,   5.006606]
    RMS electron-hole separation [Ang]:  10.617365
      Cartesian components [Ang]:       [  1.338033,   2.128165,  10.315475]
    Covariance(r_h, r_e) [Ang^2]:       -25.510052
    Correlation coefficient:             -0.859653
    Center-of-mass size [Ang]:            1.444909
      Cartesian components [Ang]:       [  0.669016,   1.064086,   0.712671]

  Decomposition into state-averaged NTOs
                   omega =   0.1%
  ----------------------------------------------------------------------------


  Excited state 6 (singlet, B2)                                    [converged]
  ----------------------------------------------------------------------------
  Term symbol:  6 (1) B2                                    R^2 =  1.52207e-13

  Total energy:                                            -78.5709271583 a.u.
  Excitation energy:                                               6.596989 eV

  Osc. strength:                                                      0.000001
  Trans. dip. moment [a.u.]:           [  -0.000000,   -0.001812,    0.000000]
  <i|r^2|0> [a.u.]:                    [   0.000000,    0.000000,    0.000000]

  Dip. moment [a.u.]:                  [   0.000000,    0.000000,   -1.184062]
  Total dipole [Debye]:                                               3.009585
  <r^2> [a.u.]:                        [  31.327633,   34.986405,  441.106461]
  Total <r^2> [a.u.]:                                               507.420499

  V1^2 = 0.8942, V2^2 = 0.1058

  Important amplitudes:
      occ i      occ j       vir a       vir b          v   
    ---------------------------------------------------------
     6 (A1) A               5 (B2) A                 -0.6666
     6 (A1) A   6 (A1) B   19 (A1) A    5 (B2) B      0.0648
    ---------------------------------------------------------

  Density matrix analysis:
  ------------------------
  NOs
    Occupation of frontier NOs:
       0.9369   0.9998
    Number of electrons: 18.000000
    Number of unpaired electrons: n_u =  2.53599, n_u,nl =  2.10629
    NO participation ratio (PR_NO):  3.370002
  
  
  Mulliken Population Analysis
  Atom      Charge (e)              h+              e-           Del q
  --------------------------------------------------------------------
   1 C       -0.607066        0.114244       -0.533499       -0.419255
   2 C       -0.614792        0.112926       -0.545931       -0.433005
   3 H        0.054825       -0.002466       -0.028681       -0.031147
   4 H        0.056099       -0.001855       -0.040784       -0.042639
   5 H        0.054825       -0.002466       -0.028681       -0.031147
   6 H        0.056099       -0.001855       -0.040784       -0.042639
   7 H        0.000011        1.053048       -0.053216        0.999833
  --------------------------------------------------------------------
  Sum:       -1.000000        1.271575       -1.271575        0.000000
  
  Multipole moment analysis of the density matrix
    Molecular charge:                      -1.000000
    Number of electrons:                   18.000000
      Center of electronic charge [Ang]: [ -0.000000,  -0.000000,   0.034810]
    Total nuclear charge:                  17.000000
      Center of nuclear charge [Ang]:    [ -0.000000,   0.000000,  -0.000000]
    Dipole moment [D]:                     3.009584
      Cartesian components [D]:          [  0.000000,   0.000000,  -3.009584]
    RMS size of the density [Ang]:         2.809413
      Cartesian components [Ang]:        [  0.698118,   0.737759,   2.619378]
  
  Exciton analysis of the difference density matrix
    <r_h> [Ang]:                  [  0.000000,  -0.000000,  -8.214400]
    <r_e> [Ang]:                  [ -0.000000,  -0.000000,   0.137525]
    |<r_e - r_h>| [Ang]:            8.351924
    Hole size [Ang]:                4.217486
      Cartesian components [Ang]: [  0.744658,   0.772081,   4.078795]
    Electron size [Ang]:            3.690458
      Cartesian components [Ang]: [  1.391157,   2.248056,   2.574958]

  Transition density matrix analysis:
  -----------------------------------
  
  CT numbers (Mulliken)
    omega =     0.8873
    <Phe> =     0.0004
  
  Exciton analysis of the transition density matrix
    Trans. dipole moment [D]:             0.002303
      Cartesian components [D]:         [ -0.000000,  -0.002303,   0.000000]
    <r_h> [Ang]:                        [ -0.000000,   0.000000, -10.032745]
    <r_e> [Ang]:                        [ -0.000000,  -0.000000,   0.619782]
    |<r_e - r_h>| [Ang]:                 10.652526
    Hole size [Ang]:                      1.134180
      Cartesian components [Ang]:       [  0.643281,   0.643409,   0.677185]
    Electron size [Ang]:                  3.210674
      Cartesian components [Ang]:       [  1.431947,   2.477586,   1.455858]
    RMS electron-hole separation [Ang]:  11.187120
      Cartesian components [Ang]:       [  1.569803,   2.559764,  10.776594]
    Covariance(r_h, r_e) [Ang^2]:        -0.040271
    Correlation coefficient:             -0.011059
    Center-of-mass size [Ang]:            1.696633
      Cartesian components [Ang]:       [  0.784901,   1.279885,   0.790181]

  Decomposition into state-averaged NTOs
    H- 0 -> L+ 3: -0.6394 ( 81.8%)
    H- 0 -> L+ 0:  0.1488 (  4.4%)
    H- 0 -> L+ 1: -0.1111 (  2.5%)
                   omega =  88.7%
  ----------------------------------------------------------------------------


  Excited state 7 (singlet, B2)                                    [converged]
  ----------------------------------------------------------------------------
  Term symbol:  7 (1) B2                                    R^2 =  5.13989e-11

  Total energy:                                            -78.5373474751 a.u.
  Excitation energy:                                               7.510739 eV

  Osc. strength:                                                      0.000049
  Trans. dip. moment [a.u.]:           [  -0.000000,   -0.016309,   -0.000000]
  <i|r^2|0> [a.u.]:                    [  -0.000000,    0.000000,   -0.000000]

  Dip. moment [a.u.]:                  [   0.000000,    0.000000,   -1.074536]
  Total dipole [Debye]:                                               2.731200
  <r^2> [a.u.]:                        [  40.895999,   29.125909,  497.780639]
  Total <r^2> [a.u.]:                                               567.802547

  V1^2 = 0.0098, V2^2 = 0.9902

  Important amplitudes:
      occ i      occ j       vir a       vir b          v   
    ---------------------------------------------------------
     6 (A1) A   1 (B2) B    7 (A1) A    8 (A1) B      0.1805
     6 (A1) A   1 (B2) B    8 (A1) A    7 (A1) B      0.1639
    ---------------------------------------------------------

  Density matrix analysis:
  ------------------------
  NOs
    Occupation of frontier NOs:
       0.9500   0.9882
    Number of electrons: 18.000000
    Number of unpaired electrons: n_u =  4.18489, n_u,nl =  3.99727
    NO participation ratio (PR_NO):  4.916425
  
  
  Mulliken Population Analysis
  Atom      Charge (e)              h+              e-           Del q
  --------------------------------------------------------------------
   1 C       -0.670232        0.499886       -0.982307       -0.482421
   2 C       -0.722949        0.480604       -1.021766       -0.541162
   3 H        0.092160        0.002859        0.003328        0.006187
   4 H        0.104643        0.002659        0.003247        0.005905
   5 H        0.092160        0.002859        0.003328        0.006187
   6 H        0.104643        0.002659        0.003247        0.005905
   7 H       -0.000425        0.999733       -0.000335        0.999397
  --------------------------------------------------------------------
  Sum:       -1.000000        1.991259       -1.991259       -0.000000
  
  Multipole moment analysis of the density matrix
    Molecular charge:                      -1.000000
    Number of electrons:                   18.000000
      Center of electronic charge [Ang]: [ -0.000000,  -0.000000,   0.031590]
    Total nuclear charge:                  17.000000
      Center of nuclear charge [Ang]:    [ -0.000000,   0.000000,  -0.000000]
    Dipole moment [D]:                     2.731199
      Cartesian components [D]:          [  0.000000,   0.000000,  -2.731199]
    RMS size of the density [Ang]:         2.971933
      Cartesian components [Ang]:        [  0.797637,   0.673139,   2.782633]
  
  Exciton analysis of the difference density matrix
    <r_h> [Ang]:                  [  0.000000,  -0.000000,  -4.720560]
    <r_e> [Ang]:                  [ -0.000000,  -0.000000,   0.583693]
    |<r_e - r_h>| [Ang]:            5.304253
    Hole size [Ang]:                5.468936
      Cartesian components [Ang]: [  0.581989,   0.763227,   5.384054]
    Electron size [Ang]:            3.821704
      Cartesian components [Ang]: [  1.601890,   1.613976,   3.071555]

  Transition density matrix analysis:
  -----------------------------------
  
  CT numbers (Mulliken)
    omega =     0.0097
    <Phe> =    -0.0002
  
  Exciton analysis of the transition density matrix
    Trans. dipole moment [D]:             0.020727
      Cartesian components [D]:         [ -0.000000,  -0.020727,  -0.000000]
    <r_h> [Ang]:                        [ -0.000000,   0.000000,  -9.386199]
    <r_e> [Ang]:                        [  0.000000,  -0.000000,   0.612922]
    |<r_e - r_h>| [Ang]:                  9.999122
    Hole size [Ang]:                      2.792610
      Cartesian components [Ang]:       [  0.636316,   0.659062,   2.638069]
    Electron size [Ang]:                  3.092743
      Cartesian components [Ang]:       [  1.379908,   2.322543,   1.505559]
    RMS electron-hole separation [Ang]:  10.709793
      Cartesian components [Ang]:       [  1.519505,   2.413820,  10.322996]
    Covariance(r_h, r_e) [Ang^2]:         1.323247
    Correlation coefficient:              0.153210
    Center-of-mass size [Ang]:            2.236639
      Cartesian components [Ang]:       [  0.759801,   1.207333,   1.722674]

  Decomposition into state-averaged NTOs
                   omega =   1.0%
  ----------------------------------------------------------------------------


  Excited state 8 (singlet, B2)                                    [converged]
  ----------------------------------------------------------------------------
  Term symbol:  8 (1) B2                                    R^2 =  2.70319e-10

  Total energy:                                            -78.5354922289 a.u.
  Excitation energy:                                               7.561223 eV

  Osc. strength:                                                      0.001015
  Trans. dip. moment [a.u.]:           [   0.000000,    0.074027,   -0.000000]
  <i|r^2|0> [a.u.]:                    [   0.000000,   -0.000000,    0.000000]

  Dip. moment [a.u.]:                  [   0.000000,    0.000000,   -1.180739]
  Total dipole [Debye]:                                               3.001140
  <r^2> [a.u.]:                        [  41.421607,   30.080657,  496.208775]
  Total <r^2> [a.u.]:                                               567.711038

  V1^2 = 0.0130, V2^2 = 0.9870

  Important amplitudes:
      occ i      occ j       vir a       vir b          v   
    ---------------------------------------------------------
     6 (A1) A   1 (B2) A    7 (A1) A    8 (A1) A      0.2272
     6 (A1) A   1 (B2) B    8 (A1) A    7 (A1) B     -0.1432
    ---------------------------------------------------------

  Density matrix analysis:
  ------------------------
  NOs
    Occupation of frontier NOs:
       0.9305   0.9448
    Number of electrons: 18.000000
    Number of unpaired electrons: n_u =  4.13846, n_u,nl =  3.98126
    NO participation ratio (PR_NO):  5.076427
  
  
  Mulliken Population Analysis
  Atom      Charge (e)              h+              e-           Del q
  --------------------------------------------------------------------
   1 C       -0.725916        0.504173       -1.042278       -0.538105
   2 C       -0.701698        0.480889       -1.000801       -0.519912
   3 H        0.102551        0.003725        0.012854        0.016579
   4 H        0.115099        0.003206        0.013156        0.016362
   5 H        0.102551        0.003725        0.012854        0.016579
   6 H        0.115099        0.003206        0.013156        0.016362
   7 H       -0.007686        0.994163       -0.002027        0.992136
  --------------------------------------------------------------------
  Sum:       -1.000000        1.993088       -1.993088       -0.000000
  
  Multipole moment analysis of the density matrix
    Molecular charge:                      -1.000000
    Number of electrons:                   18.000000
      Center of electronic charge [Ang]: [ -0.000000,  -0.000000,   0.034712]
    Total nuclear charge:                  17.000000
      Center of nuclear charge [Ang]:    [ -0.000000,   0.000000,  -0.000000]
    Dipole moment [D]:                     3.001139
      Cartesian components [D]:          [  0.000000,   0.000000,  -3.001139]
    RMS size of the density [Ang]:         2.971659
      Cartesian components [Ang]:        [  0.802746,   0.684083,   2.778198]
  
  Exciton analysis of the difference density matrix
    <r_h> [Ang]:                  [ -0.000000,  -0.000000,  -4.686677]
    <r_e> [Ang]:                  [ -0.000000,  -0.000000,   0.640907]
    |<r_e - r_h>| [Ang]:            5.327584
    Hole size [Ang]:                5.468964
      Cartesian components [Ang]: [  0.583347,   0.763450,   5.383904]
    Electron size [Ang]:            3.773359
      Cartesian components [Ang]: [  1.624635,   1.654553,   2.976786]

  Transition density matrix analysis:
  -----------------------------------
  
  CT numbers (Mulliken)
    omega =     0.0127
    <Phe> =    -0.0071
  
  Exciton analysis of the transition density matrix
    Trans. dipole moment [D]:             0.094079
      Cartesian components [D]:         [  0.000000,   0.094079,  -0.000000]
    <r_h> [Ang]:                        [ -0.000000,   0.000000,  -3.116204]
    <r_e> [Ang]:                        [  0.000000,  -0.000000,   1.817652]
    |<r_e - r_h>| [Ang]:                  4.933856
    Hole size [Ang]:                      5.248155
      Cartesian components [Ang]:       [  0.560123,   0.791977,   5.157728]
    Electron size [Ang]:                  3.131351
      Cartesian components [Ang]:       [  1.479650,   1.862046,   2.036854]
    RMS electron-hole separation [Ang]:   7.358432
      Cartesian components [Ang]:       [  1.581600,   2.017496,   6.897447]
    Covariance(r_h, r_e) [Ang^2]:         3.772451
    Correlation coefficient:              0.229554
    Center-of-mass size [Ang]:            3.350126
      Cartesian components [Ang]:       [  0.791320,   1.014716,   3.093139]

  Decomposition into state-averaged NTOs
                   omega =   1.3%
  ----------------------------------------------------------------------------


  Excited state 9 (singlet, B2)                                    [converged]
  ----------------------------------------------------------------------------
  Term symbol:  9 (1) B2                                    R^2 =  5.62328e-11

  Total energy:                                            -78.5333552158 a.u.
  Excitation energy:                                               7.619374 eV

  Osc. strength:                                                      0.115325
  Trans. dip. moment [a.u.]:           [   0.000000,    0.786001,   -0.000000]
  <i|r^2|0> [a.u.]:                    [   0.000000,   -0.000000,    0.000000]

  Dip. moment [a.u.]:                  [  -0.000000,    0.000000,   16.076789]
  Total dipole [Debye]:                                              40.863130
  <r^2> [a.u.]:                        [  31.433385,   20.097019,  810.753767]
  Total <r^2> [a.u.]:                                               862.284172

  V1^2 = 0.9285, V2^2 = 0.0715

  Important amplitudes:
      occ i      occ j       vir a       vir b          v   
    ---------------------------------------------------------
     1 (B2) A               9 (A1) A                 -0.4410
     1 (B2) A               7 (A1) A                 -0.4322
    ---------------------------------------------------------

  Density matrix analysis:
  ------------------------
  NOs
    Occupation of frontier NOs:
       0.9800   0.9835
    Number of electrons: 18.000000
    Number of unpaired electrons: n_u =  2.33784, n_u,nl =  2.02879
    NO participation ratio (PR_NO):  2.823821
  
  
  Mulliken Population Analysis
  Atom      Charge (e)              h+              e-           Del q
  --------------------------------------------------------------------
   1 C        0.170633        0.653941       -0.295497        0.358444
   2 C       -0.888961        0.389878       -1.097052       -0.707175
   3 H        0.174022        0.107546       -0.019496        0.088049
   4 H        0.180876        0.069445        0.012693        0.082138
   5 H        0.174022        0.107546       -0.019496        0.088049
   6 H        0.180876        0.069445        0.012693        0.082138
   7 H       -0.991467        0.055604       -0.047249        0.008355
  --------------------------------------------------------------------
  Sum:       -1.000000        1.453405       -1.453405        0.000000
  
  Multipole moment analysis of the density matrix
    Molecular charge:                      -1.000000
    Number of electrons:                   18.000000
      Center of electronic charge [Ang]: [  0.000000,  -0.000000,  -0.472637]
    Total nuclear charge:                  17.000000
      Center of nuclear charge [Ang]:    [ -0.000000,   0.000000,  -0.000000]
    Dipole moment [D]:                     40.863117
      Cartesian components [D]:          [ -0.000000,   0.000000,  40.863117]
    RMS size of the density [Ang]:         3.631981
      Cartesian components [Ang]:        [  0.699295,   0.559153,   3.519890]
  
  Exciton analysis of the difference density matrix
    <r_h> [Ang]:                  [ -0.000000,  -0.000000,   0.297816]
    <r_e> [Ang]:                  [  0.000000,  -0.000000,   1.320279]
    |<r_e - r_h>| [Ang]:            1.022463
    Hole size [Ang]:                2.648312
      Cartesian components [Ang]: [  0.807830,   0.898787,   2.356513]
    Electron size [Ang]:            3.326637
      Cartesian components [Ang]: [  1.371503,   1.356111,   2.710435]

  Transition density matrix analysis:
  -----------------------------------
  
  CT numbers (Mulliken)
    omega =     0.8981
    <Phe> =    -0.0116
  
  Exciton analysis of the transition density matrix
    Trans. dipole moment [D]:             0.998907
      Cartesian components [D]:         [  0.000000,   0.998907,  -0.000000]
    <r_h> [Ang]:                        [  0.000000,  -0.000000,   0.650062]
    <r_e> [Ang]:                        [  0.000000,  -0.000000,   2.211025]
    |<r_e - r_h>| [Ang]:                  1.560963
    Hole size [Ang]:                      1.257010
      Cartesian components [Ang]:       [  0.509036,   0.861895,   0.760325]
    Electron size [Ang]:                  2.719764
      Cartesian components [Ang]:       [  1.552580,   1.547111,   1.610298]
    RMS electron-hole separation [Ang]:   3.369189
      Cartesian components [Ang]:       [  1.633085,   1.760020,   2.363641]
    Covariance(r_h, r_e) [Ang^2]:         0.031181
    Correlation coefficient:              0.009121
    Center-of-mass size [Ang]:            1.503293
      Cartesian components [Ang]:       [  0.817355,   0.890949,   0.893325]

  Decomposition into state-averaged NTOs
    H- 1 -> L+ 2: -0.6697 ( 89.7%)
                   omega =  89.8%
  ----------------------------------------------------------------------------


  Excited state 10 (singlet, B2)                                    [converged]
  ----------------------------------------------------------------------------
  Term symbol:  10 (1) B2                                   R^2 =  8.79677e-06

  Total energy:                                            -78.5184735523 a.u.
  Excitation energy:                                               8.024325 eV

  Osc. strength:                                                      0.000594
  Trans. dip. moment [a.u.]:           [   0.000000,    0.054974,   -0.000000]
  <i|r^2|0> [a.u.]:                    [   0.000000,    0.000000,    0.000000]

  Dip. moment [a.u.]:                  [   0.000000,   -0.000000,    0.958975]
  Total dipole [Debye]:                                               2.437472
  <r^2> [a.u.]:                        [  56.362206,   31.892507,  463.228124]
  Total <r^2> [a.u.]:                                               551.482837

  V1^2 = 0.0223, V2^2 = 0.9777

  Important amplitudes:
      occ i      occ j       vir a       vir b          v   
    ---------------------------------------------------------
     6 (A1) A   1 (B2) B    3 (B1) A    3 (B1) B     -0.1768
     6 (A1) A   1 (B2) B    9 (A1) A    8 (A1) B     -0.1103
    ---------------------------------------------------------

  Density matrix analysis:
  ------------------------
  NOs
    Occupation of frontier NOs:
       0.8889   0.9523
    Number of electrons: 18.000000
    Number of unpaired electrons: n_u =  4.21844, n_u,nl =  4.00234
    NO participation ratio (PR_NO):  5.381045
  
  
  Mulliken Population Analysis
  Atom      Charge (e)              h+              e-           Del q
  --------------------------------------------------------------------
   1 C       -2.047827        0.496888       -2.356904       -1.860016
   2 C        0.774765        0.482002        0.474550        0.956552
   3 H        0.088887        0.003012       -0.000097        0.002915
   4 H        0.053694        0.002902       -0.047945       -0.045043
   5 H        0.088887        0.003012       -0.000097        0.002915
   6 H        0.053694        0.002902       -0.047945       -0.045043
   7 H       -0.012101        0.988871       -0.001150        0.987721
  --------------------------------------------------------------------
  Sum:       -1.000000        1.979589       -1.979589        0.000000
  
  Multipole moment analysis of the density matrix
    Molecular charge:                      -1.000000
    Number of electrons:                   18.000000
      Center of electronic charge [Ang]: [ -0.000000,   0.000000,  -0.028193]
    Total nuclear charge:                  17.000000
      Center of nuclear charge [Ang]:    [ -0.000000,   0.000000,  -0.000000]
    Dipole moment [D]:                     2.437471
      Cartesian components [D]:          [  0.000000,  -0.000000,   2.437471]
    RMS size of the density [Ang]:         2.928942
      Cartesian components [Ang]:        [  0.936395,   0.704384,   2.684345]
  
  Exciton analysis of the difference density matrix
    <r_h> [Ang]:                  [ -0.000000,  -0.000000,  -4.694015]
    <r_e> [Ang]:                  [ -0.000000,   0.000000,   0.097916]
    |<r_e - r_h>| [Ang]:            4.791931
    Hole size [Ang]:                5.470158
      Cartesian components [Ang]: [  0.584735,   0.768113,   5.384303]
    Electron size [Ang]:            3.488818
      Cartesian components [Ang]: [  2.184079,   1.736571,   2.094272]

  Transition density matrix analysis:
  -----------------------------------
  
  CT numbers (Mulliken)
    omega =     0.0218
    <Phe> =    -0.0035
  
  Exciton analysis of the transition density matrix
    Trans. dipole moment [D]:             0.069865
      Cartesian components [D]:         [  0.000000,   0.069865,  -0.000000]
    <r_h> [Ang]:                        [ -0.000000,  -0.000000,  -4.444016]
    <r_e> [Ang]:                        [ -0.000000,  -0.000000,   0.631536]
    |<r_e - r_h>| [Ang]:                  5.075552
    Hole size [Ang]:                      5.458381
      Cartesian components [Ang]:       [  0.577358,   0.765940,   5.373445]
    Electron size [Ang]:                  3.318182
      Cartesian components [Ang]:       [  1.535160,   1.982518,   2.173301]
    RMS electron-hole separation [Ang]:   8.334171
      Cartesian components [Ang]:       [  1.639671,   2.121151,   7.891173]
    Covariance(r_h, r_e) [Ang^2]:        -1.446466
    Correlation coefficient:             -0.079863
    Center-of-mass size [Ang]:            3.078609
      Cartesian components [Ang]:       [  0.820304,   1.064754,   2.769699]

  Decomposition into state-averaged NTOs
    H- 1 -> L+ 6:  0.0755 (  1.1%)
                   omega =   2.2%
  ----------------------------------------------------------------------------


--------------------------------------------------------------------------------
  Time of ADC calculation:  CPU 650.95 s  wall 161.79 s
================================================================================
 
 --------------------------------------------------------------
             Orbital Energies (a.u.) and Symmetries
 --------------------------------------------------------------
 
 Alpha MOs, Restricted
 -- Occupied --                  
-11.187 -11.185  -0.992  -0.732  -0.611  -0.517  -0.465  -0.327
  1 A1    2 A1    3 A1    4 A1    1 B1    5 A1    2 B1    1 B2                 
  0.022
  6 A1                                                                         
 -- Virtual --                   
  0.104   0.112   0.120   0.138   0.142   0.142   0.171   0.212
  7 A1    3 B1    2 B2    3 B2    4 B1    8 A1    9 A1    4 B2                 
  0.248   0.311   0.312   0.333   0.336   0.341   0.346   0.390
 10 A1   11 A1    5 B1   12 A1    6 B1    5 B2   13 A1    7 B1                 
  0.413   0.423   0.598   0.651   0.859   0.910   0.939   0.980
 14 A1    6 B2    8 B1   15 A1   16 A1    9 B1   17 A1   18 A1                 
  0.992   1.058   1.070   1.088   1.105   1.114   1.136   1.164
 10 B1   19 A1    7 B2   20 A1   11 B1    8 B2   21 A1    1 A2                 
  1.318   1.334   1.336   1.432   1.666   1.676   1.768   1.916
 22 A1    2 A2    9 B2   12 B1   23 A1   13 B1   14 B1   10 B2                 
  1.967   1.967   1.967   1.992   1.995   2.067   2.092   2.131
 24 A1   15 B1   11 B2   12 B2   25 A1    3 A2   26 A1   16 B1                 
  2.227   2.373   2.462   2.510   2.625   2.633   2.859   2.868
 13 B2   27 A1    4 A2   28 A1   29 A1   17 B1   18 B1   30 A1                 
  3.294   3.389
 31 A1   19 B1                                                                 
 
 Beta MOs, Restricted
 -- Occupied --                  
-11.187 -11.185  -0.992  -0.732  -0.611  -0.517  -0.465  -0.327
  1 A1    2 A1    3 A1    4 A1    1 B1    5 A1    2 B1    1 B2                 
  0.022
  6 A1                                                                         
 -- Virtual --                   
  0.104   0.112   0.120   0.138   0.142   0.142   0.171   0.212
  7 A1    3 B1    2 B2    3 B2    4 B1    8 A1    9 A1    4 B2                 
  0.248   0.311   0.312   0.333   0.336   0.341   0.346   0.390
 10 A1   11 A1    5 B1   12 A1    6 B1    5 B2   13 A1    7 B1                 
  0.413   0.423   0.598   0.651   0.859   0.910   0.939   0.980
 14 A1    6 B2    8 B1   15 A1   16 A1    9 B1   17 A1   18 A1                 
  0.992   1.058   1.070   1.088   1.105   1.114   1.136   1.164
 10 B1   19 A1    7 B2   20 A1   11 B1    8 B2   21 A1    1 A2                 
  1.318   1.334   1.336   1.432   1.666   1.676   1.768   1.916
 22 A1    2 A2    9 B2   12 B1   23 A1   13 B1   14 B1   10 B2                 
  1.967   1.967   1.967   1.992   1.995   2.067   2.092   2.131
 24 A1   15 B1   11 B2   12 B2   25 A1    3 A2   26 A1   16 B1                 
  2.227   2.373   2.462   2.510   2.625   2.633   2.859   2.868
 13 B2   27 A1    4 A2   28 A1   29 A1   17 B1   18 B1   30 A1                 
  3.294   3.389
 31 A1   19 B1                                                                 
 --------------------------------------------------------------
 
          Ground-State Mulliken Net Atomic Charges

     Atom                 Charge (a.u.)
  ----------------------------------------
      1 C                    -0.176678
      2 C                    -0.163436
      3 H                     0.078568
      4 H                     0.091405
      5 H                     0.078568
      6 H                     0.091405
      7 H                    -0.999831
  ----------------------------------------
  Sum of atomic charges =    -1.000000

 -----------------------------------------------------------------
                    Cartesian Multipole Moments
 -----------------------------------------------------------------
    Charge (ESU x 10^10)
                -4.8032
    Dipole Moment (Debye)
         X       0.0000      Y      -0.0000      Z      47.9865
       Tot      47.9865
    Quadrupole Moments (Debye-Ang)
        XX     -15.9250     XY      -0.0000     YY     -20.0897
        XZ       0.0000     YZ      -0.0000     ZZ    -500.9540
    Octopole Moments (Debye-Ang^2)
       XXX       0.0000    XXY      -0.0000    XYY       0.0000
       YYY      -0.0000    XXZ      31.9599    XYZ      -0.0000
       YYZ      29.3797    XZZ       0.0000    YZZ      -0.0000
       ZZZ    4950.0420
    Hexadecapole Moments (Debye-Ang^3)
      XXXX     -32.8486   XXXY       0.0000   XXYY     -10.9562
      XYYY       0.0000   YYYY     -27.5378   XXXZ       0.0000
      XXYZ      -0.0000   XYYZ       0.0000   YYYZ      -0.0000
      XXZZ    -418.5094   XYZZ       0.0000   YYZZ    -422.4686
      XZZZ       0.0000   YZZZ       0.0000   ZZZZ  -51237.8120
 -----------------------------------------------------------------
 Total job time:  244.57s(wall), 695.97s(cpu) 
 Sat Mar 26 15:58:59 2022

        *************************************************************
        *                                                           *
        *  Thank you very much for using Q-Chem.  Have a nice day.  *
        *                                                           *
        *************************************************************


