/src/tsommerfeld/qchem/exe/qcprog.exe .input1.111111.19963.qcin.1 /src/jdavis/qchem.scratch/qchem19963/

                  Welcome to Q-Chem
     A Quantum Leap Into The Future Of Chemistry


 Q-Chem 5.4 (devel), Q-Chem, Inc., Pleasanton, CA (2021)

 E. Epifanovsky,  A. T. B. Gilbert,  Xintian Feng,  Joonho Lee,  Yuezhi Mao,  
 N. Mardirossian,  P. Pokhilko,  A. White,  M. Wormit,  M. P. Coons,  
 A. L. Dempwolff,  Zhengting Gan,  D. Hait,  P. R. Horn,  L. D. Jacobson,  
 I. Kaliman,  J. Kussmann,  A. W. Lange,  Ka Un Lao,  D. S. Levine,  Jie Liu,  
 S. C. McKenzie,  A. F. Morrison,  K. Nanda,  F. Plasser,  D. R. Rehn,  
 M. L. Vidal,  Zhi-Qiang You,  Ying Zhu,  B. Alam,  B. Albrecht,  
 A. Aldossary,  E. Alguire,  J. H. Andersen,  D. Barton,  K. Begam,  A. Behn,  
 Y. A. Bernard,  E. J. Berquist,  H. Burton,  A. Carreras,  K. Carter-Fenk,  
 R. Chakraborty,  A. D. Chien,  K. D. Closser,  V. Cofer-Shabica,  
 S. Dasgupta,  Jia Deng,  M. de Wergifosse,  M. Diedenhofen,  Hainam Do,  
 S. Ehlert,  Po-Tung Fang,  S. Fatehi,  Qingguo Feng,  T. Friedhoff,  
 J. Gayvert,  Qinghui Ge,  G. Gidofalvi,  M. Goldey,  J. Gomes,  
 C. Gonzalez-Espinoza,  S. Gulania,  A. Gunina,  M. W. D. Hanson-Heine,  
 P. H. P. Harbach,  A. W. Hauser,  M. F. Herbst,  M. Hernandez Vera,  
 M. Hodecker,  Z. C. Holden,  S. Houck,  Xunkun Huang,  Kerwin Hui,  
 B. C. Huynh,  M. Ivanov,  Hyunjun Ji,  Hanjie Jiang,  B. Kaduk,  S. Kaehler,  
 K. Khistyaev,  Jaehoon Kim,  P. Klunzinger,  Z. Koczor-Benda,  
 Joong Hoon Koh,  D. Kosenkov,  L. Koulias,  T. Kowalczyk,  C. M. Krauter,  
 K. Kue,  A. Kunitsa,  T. Kus,  A. Landau,  K. V. Lawler,  D. Lefrancois,  
 S. Lehtola,  Rain Li,  Yi-Pei Li,  Jiashu Liang,  M. Liebenthal,  
 Hung-Hsuan Lin,  You-Sheng Lin,  Fenglai Liu,  Kuan-Yu Liu,  
 M. Loipersberger,  A. Luenser,  A. Manjanath,  P. Manohar,  E. Mansoor,  
 S. F. Manzer,  Shan-Ping Mao,  A. V. Marenich,  T. Markovich,  S. Mason,  
 S. A. Maurer,  P. F. McLaughlin,  M. F. S. J. Menger,  J.-M. Mewes,  
 S. A. Mewes,  P. Morgante,  J. W. Mullinax,  K. J. Oosterbaan,  G. Paran,  
 Alexander C. Paul,  Suranjan K. Paul,  F. Pavosevic,  Zheng Pei,  S. Prager,  
 E. I. Proynov,  E. Ramos,  B. Rana,  A. E. Rask,  A. Rettig,  R. M. Richard,  
 F. Rob,  E. Rossomme,  T. Scheele,  M. Scheurer,  M. Schneider,  
 N. Sergueev,  S. M. Sharada,  W. Skomorowski,  D. W. Small,  C. J. Stein,  
 Yu-Chuan Su,  E. J. Sundstrom,  Zhen Tao,  J. Thirman,  T. Tsuchimochi,  
 N. M. Tubman,  S. P. Veccham,  O. Vydrov,  J. Wenzel,  J. Witte,  A. Yamada,  
 Kun Yao,  S. Yeganeh,  S. R. Yost,  A. Zech,  Igor Ying Zhang,  Xing Zhang,  
 Yu Zhang,  D. Zuev,  A. Aspuru-Guzik,  A. T. Bell,  N. A. Besley,  
 K. B. Bravaya,  B. R. Brooks,  D. Casanova,  Jeng-Da Chai,  S. Coriani,  
 C. J. Cramer,  A. E. DePrince, III,  R. A. DiStasio Jr.,  A. Dreuw,  
 B. D. Dunietz,  T. R. Furlani,  W. A. Goddard III,  S. Grimme,  
 S. Hammes-Schiffer,  T. Head-Gordon,  W. J. Hehre,  Chao-Ping Hsu,  
 T.-C. Jagau,  Yousung Jung,  A. Klamt,  Jing Kong,  D. S. Lambrecht,  
 WanZhen Liang,  N. J. Mayhall,  C. W. McCurdy,  J. B. Neaton,  
 C. Ochsenfeld,  J. A. Parkhill,  R. Peverati,  V. A. Rassolov,  Yihan Shao,  
 L. V. Slipchenko,  T. Stauch,  R. P. Steele,  J. E. Subotnik,  
 A. J. W. Thom,  A. Tkatchenko,  D. G. Truhlar,  T. Van Voorhis,  
 T. A. Wesolowski,  K. B. Whaley,  H. L. Woodcock III,  P. M. Zimmerman,  
 S. Faraji,  P. M. W. Gill,  M. Head-Gordon,  J. M. Herbert,  A. I. Krylov

 Additional authors for Version 5.4.1: 
 S. Kotaru,  Shaozhi Li,  Xiangyuan Li,  F. Matz,  A. Molle,  Haisheng Ren,  
 Yingli Su,  Hung-Yi Tsai,  C. Utku,  Fang Wang

 Contributors to earlier versions of Q-Chem not listed above: 
 R. D. Adamson,  B. Austin,  R. Baer,  J. Baker,  G. J. O. Beran,  
 K. Brandhorst,  S. T. Brown,  E. F. C. Byrd,  A. K. Chakraborty,  
 G. K. L. Chan,  Chun-Min Chang,  Yunqing Chen,  C.-L. Cheng,  
 Siu Hung Chien,  D. M. Chipman,  D. L. Crittenden,  H. Dachsel,  
 R. J. Doerksen,  A. D. Dutoi,  R. G. Edgar,  J. Fosso-Tande,  
 L. Fusti-Molnar,  D. Ghosh,  A. Ghysels,  A. Golubeva-Zadorozhnaya,  
 J. Gonthier,  M. S. Gordon,  S. R. Gwaltney,  G. Hawkins,  J. E. Herr,  
 A. Heyden,  S. Hirata,  E. G. Hohenstein,  G. Kedziora,  F. J. Keil,  
 C. Kelley,  Jihan Kim,  R. A. King,  R. Z. Khaliullin,  P. P. Korambath,  
 W. Kurlancheek,  A. Laurent,  A. M. Lee,  M. S. Lee,  S. V. Levchenko,  
 Ching Yeh Lin,  D. Liotard,  E. Livshits,  R. C. Lochan,  I. Lotan,  
 L. A. Martinez-Martinez,  P. E. Maslen,  N. Nair,  D. P. O'Neill,  
 D. Neuhauser,  E. Neuscamman,  C. M. Oana,  R. Olivares-Amaya,  R. Olson,  
 T. M. Perrine,  B. Peters,  P. A. Pieniazek,  A. Prociuk,  Y. M. Rhee,  
 J. Ritchie,  M. A. Rohrdanz,  E. Rosta,  N. J. Russ,  H. F. Schaefer III,  
 M. W. Schmidt,  N. E. Schultz,  S. Sharma,  N. Shenvi,  C. D. Sherrill,  
 A. C. Simmonett,  A. Sodt,  T. Stein,  D. Stuck,  K. S. Thanthiriwatte,  
 V. Vanovschi,  L. Vogt,  Tao Wang,  A. Warshel,  M. A. Watson,  
 C. F. Williams,  Q. Wu,  X. Xu,  Jun Yang,  W. Zhang,  Yan Zhao

 Please cite Q-Chem as follows:
 Y. Shao et al., Mol. Phys. 113, 184-215 (2015)
 DOI: 10.1080/00268976.2014.952696

 Q-Chem 5.4.1 for Intel X86 EM64T Linux

 Parts of Q-Chem use Armadillo 9.900.5 (Nocturnal Misbehaviour).
 http://arma.sourceforge.net/

 Q-Chem begins on Sat Mar 26 16:02:38 2022  

 Host: node01
0

     Scratch files written to /src/jdavis/qchem.scratch/qchem19963//
 Processing $rem in /src/tsommerfeld/qchem/config/preferences:
 Processing $rem in /home/jdavis/.qchemrc:

 Checking the input file for inconsistencies... 	...done.

--------------------------------------------------------------
User input:
--------------------------------------------------------------
$molecule
-1 1
C         0.0000000000    0.0000000000    0.8417902907
C         0.0000000000    0.0000000000   -0.4872097093
H         0.9623488518    0.0000000000    1.3363703127
H         0.9623489048    0.0000000000   -0.9817896873
H        -0.9623488518    0.0000000000    1.3363703127
H        -0.9623489048    0.0000000000   -0.9817896873
H         0.0000000000    0.0000000000   -10.4872097093
$end

$rem
   METHOD adc(3)
   BASIS gen
   PURECART 11
   EE_STATES [0,0,0,10]
   scf_convergence 8
   ADC_DAVIDSON_MAXITER 120
   ADC_DAVIDSON_MAXSUBSPACE 200
   adc_nguess_singles 100
   THRESH 14
   S2THRESH 14
   adc_davidson_conv 5
   adc_davidson_thresh 14
   THREADS 10
   MEM_TOTAL 95000
   STATE_ANALYSIS TRUE
$end
$basis
C 1
S   9   1.00
      6.665000D+03           6.920000D-04
      1.000000D+03           5.329000D-03
      2.280000D+02           2.707700D-02
      6.471000D+01           1.017180D-01
      2.106000D+01           2.747400D-01
      7.495000D+00           4.485640D-01
      2.797000D+00           2.850740D-01
      5.215000D-01           1.520400D-02
      1.596000D-01          -3.191000D-03
S   9   1.00
      6.665000D+03          -1.460000D-04
      1.000000D+03          -1.154000D-03
      2.280000D+02          -5.725000D-03
      6.471000D+01          -2.331200D-02
      2.106000D+01          -6.395500D-02
      7.495000D+00          -1.499810D-01
      2.797000D+00          -1.272620D-01
      5.215000D-01           5.445290D-01
      1.596000D-01           5.804960D-01
S   1   1.00
      1.596000D-01           1.000000D+00
S   1   1.00
      0.0469000              1.0000000
P   4   1.00
      9.439000D+00           3.810900D-02
      2.002000D+00           2.094800D-01
      5.456000D-01           5.085570D-01
      1.517000D-01           4.688420D-01
P   1   1.00
      1.517000D-01           1.000000D+00
P   1   1.00
      0.0674222      1.0000000
P   1   1.00
      0.0337111      1.0000000
D   1   1.00
      5.500000D-01           1.0000000
****
C 2
S   9   1.00
      6.665000D+03           6.920000D-04
      1.000000D+03           5.329000D-03
      2.280000D+02           2.707700D-02
      6.471000D+01           1.017180D-01
      2.106000D+01           2.747400D-01
      7.495000D+00           4.485640D-01
      2.797000D+00           2.850740D-01
      5.215000D-01           1.520400D-02
      1.596000D-01          -3.191000D-03
S   9   1.00
      6.665000D+03          -1.460000D-04
      1.000000D+03          -1.154000D-03
      2.280000D+02          -5.725000D-03
      6.471000D+01          -2.331200D-02
      2.106000D+01          -6.395500D-02
      7.495000D+00          -1.499810D-01
      2.797000D+00          -1.272620D-01
      5.215000D-01           5.445290D-01
      1.596000D-01           5.804960D-01
S   1   1.00
      1.596000D-01           1.000000D+00
S   1   1.00
      0.0469000              1.0000000
P   4   1.00
      9.439000D+00           3.810900D-02
      2.002000D+00           2.094800D-01
      5.456000D-01           5.085570D-01
      1.517000D-01           4.688420D-01
P   1   1.00
      1.517000D-01           1.000000D+00
P   1   1.00
      0.0674222      1.0000000
P   1   1.00
      0.0337111      1.0000000
D   1   1.00
      5.500000D-01           1.0000000
****
H 3
cc-pVDZ
****
H 4
cc-pVDZ
****
H 5
cc-pVDZ
****
H 6
cc-pVDZ
****
H 7
aug-cc-pVDZ
****
$end
--------------------------------------------------------------
 ----------------------------------------------------------------
             Standard Nuclear Orientation (Angstroms)
    I     Atom           X                Y                Z
 ----------------------------------------------------------------
    1      C       0.0000000000     0.0000000000     1.2918235242
    2      C       0.0000000000     0.0000000000    -0.0371764758
    3      H       0.9623488518     0.0000000000     1.7864035462
    4      H       0.9623489048     0.0000000000    -0.5317564538
    5      H      -0.9623488518     0.0000000000     1.7864035462
    6      H      -0.9623489048     0.0000000000    -0.5317564538
    7      H       0.0000000000     0.0000000000   -10.0371764758
 ----------------------------------------------------------------
 Molecular Point Group                 C2v   NOp =  4
 Largest Abelian Subgroup              C2v   NOp =  4
 Nuclear Repulsion Energy =          34.38697142 hartrees
 There are        9 alpha and        9 beta electrons
 Requested basis set is non-standard
 There are 33 shells and 67 basis functions
 Total memory of 95000 MB is distributed as follows: 
   MEM_STATIC is set to 192 MB
   QALLOC/CCMAN JOB total memory use is  94808 MB
 Warning: actual memory use might exceed 95000 MB

 Total QAlloc Memory Limit  95000 MB
 Mega-Array Size       188 MB
 MEM_STATIC part       192 MB

                       Distance Matrix (Angstroms)
             C (  1)   C (  2)   H (  3)   H (  4)   H (  5)   H (  6)
   C (  2)  1.329000
   H (  3)  1.082000  2.061931
   H (  4)  2.061931  1.082000  2.318160
   H (  5)  1.082000  2.061931  1.924698  3.013026
   H (  6)  2.061931  1.082000  3.013026  1.924698  2.318160
   H (  7) 11.329000 10.000000 11.862679  9.554011 11.862679  9.554011

 
 A cutoff of  1.0D-14 yielded    495 shell pairs
 There are      2107 function pairs (      2244 Cartesian)
 Smallest overlap matrix eigenvalue = 2.54E-04

 Scale SEOQF with 1.000000e-01/1.000000e-01/1.000000e-02

 Standard Electronic Orientation quadrupole field applied
 Nucleus-field energy     =    -0.0000000011 hartrees
 ================ Generating on-the-fly SAD Guess ================
Attempting to make child job directory: /src/jdavis/qchem.scratch/qchem19963//Frg1/
Attempting to make child job directory: /src/jdavis/qchem.scratch/qchem19963//Frg2/
Creating input file /src/jdavis/qchem.scratch/qchem19963/Frg1.input
using default PutDataFrgm: nothing
calling putenv with: QCSCRATCH=/src/jdavis/qchem.scratch/qchem19963/ 
Spawning Job For Fragment 0
Done Job For Fragment 0
calling putenv with: QCSCRATCH=/src/jdavis/qchem.scratch 
calling putenv with: QCTHREADS=1 
Creating input file /src/jdavis/qchem.scratch/qchem19963/Frg2.input
using default PutDataFrgm: nothing
calling putenv with: QCSCRATCH=/src/jdavis/qchem.scratch/qchem19963/ 
Spawning Job For Fragment 1
Done Job For Fragment 1
calling putenv with: QCSCRATCH=/src/jdavis/qchem.scratch 
calling putenv with: QCTHREADS=1 
 Time for running child jobs:  CPU 1.77 s  wall 54.37 s
 ============= Method Specific SAD Guess Constructed =============
 Guess from on-the-fly superposition of atomic densities
 Warning: Energy on first SCF cycle will be non-variational
 A restricted Hartree-Fock SCF calculation will be
 performed using Pulay DIIS extrapolation
 SCF converges when DIIS error is below 1.0E-08
 using 10 threads for integral computing
 -------------------------------------------------------
 OpenMP Integral computing Module                
 Release: version 1.0, May 2013, Q-Chem Inc. Pittsburgh 
 -------------------------------------------------------
 ---------------------------------------
  Cycle       Energy         DIIS Error
 ---------------------------------------
    1     -78.8005314304      7.36E-02
    2     -78.4466133698      6.48E-03
    3     -78.4845689451      1.48E-03
    4     -78.4865069962      4.79E-04
    5     -78.4866827663      7.72E-05
    6     -78.4866911213      1.81E-05
    7     -78.4866915989      8.85E-06
    8     -78.4866916995      1.73E-06
    9     -78.4866917077      5.72E-07
   10     -78.4866917086      1.19E-07
   11     -78.4866917086      1.68E-08
   12     -78.4866917086      5.52E-09 Convergence criterion met
 ---------------------------------------
 SCF time:  CPU 11.66 s  wall 1.17 s
 SCF   energy in the final basis set = -78.48669171
 Total energy in the final basis set = -78.48669171
================================================================================
|                                                                              |
|                                 A D C  M A N                                 |
|                                                                              |
 ------------------------------------------------------------------------------ 
|                                                                              |
| Components:                                                                  |
|                                                                              |
| - libvmm - 1.3-trunk                                                         |
|   Authors:                                                                   |
|   Evgeny Epifanovsky, Ilya Kaliman                                           |
|                                                                              |
| - libtensor - 2.5-trunk                                                      |
|   Authors:                                                                   |
|   Evgeny Epifanovsky, Michael Wormit, Dmitry Zuev, Sam Manzer,               |
|   Ilya Kaliman                                                               |
|                                                                              |
| - libwfa - 1.1-trunk                                                         |
|   Authors:                                                                   |
|   Felix Plasser, Stefanie Mewes (Baeppler), Benjamin Thomitzni,              |
|   Michael Wormit, Feng Chen, Anna I. Krylov, Pavel Pokhilko                  |
|                                                                              |
| - libadc - 1.1-trunk                                                         |
|   Authors:                                                                   |
|   Michael Wormit, Adrian L. Dempwolff, Philipp H. P. Harbach,                |
|   Caroline Krauter, Dirk Rehn, Matthias Schneider, Jan Wenzel                |
|                                                                              |
| - adcman - 2.6-trunk                                                         |
|   Authors:                                                                   |
|   Michael Wormit, Adrian L. Dempwolff, Philipp H. P. Harbach,                |
|   Caroline Krauter, Daniel Lefrancois, Jan-Michael Mewes, Dirk Rehn,         |
|   Matthias Schneider, Jan Wenzel, Andreas Dreuw                              |
|                                                                              |
| Authors of earlier versions of ADCMAN:                                       |
| Andreas Dreuw, Jan Hendrik Starcke, Dirk Rehn, Michael Wormit                |
|                                                                              |
================================================================================

 
 Alpha MOs, Restricted
 -- Occupied --                  
-11.187 -11.185  -0.992  -0.732  -0.611  -0.517  -0.465  -0.327
  1 A1    2 A1    3 A1    4 A1    1 B1    5 A1    2 B1    1 B2                 
  0.022
  6 A1                                                                         
 -- Virtual --                   
  0.106   0.116   0.124   0.141   0.144   0.147   0.175   0.216
  7 A1    3 B1    2 B2    3 B2    8 A1    4 B1    9 A1    4 B2                 
  0.251   0.311   0.325   0.343   0.351   0.355   0.356   0.390
 10 A1   11 A1    5 B1   12 A1    6 B1    5 B2   13 A1    7 B1                 
  0.416   0.437   0.602   0.655   0.868   0.908   0.951   0.982
 14 A1    6 B2    8 B1   15 A1   16 A1    9 B1   17 A1   18 A1                 
  1.014   1.058   1.090   1.091   1.097   1.134   1.151   1.164
 10 B1   19 A1   20 A1    7 B2   11 B1    8 B2   21 A1    1 A2                 
  1.317   1.334   1.337   1.446   1.667   1.683   1.771   1.918
 22 A1    2 A2    9 B2   12 B1   23 A1   13 B1   14 B1   10 B2                 
  1.967   1.967   1.967   1.993   1.999   2.067   2.099   2.135
 24 A1   15 B1   11 B2   12 B2   25 A1    3 A2   26 A1   16 B1                 
  2.228   2.374   2.462   2.513   2.626   2.633   2.863   2.872
 13 B2   27 A1    4 A2   28 A1   29 A1   17 B1   18 B1   30 A1                 
  3.298   3.389
 31 A1   19 B1                                                                 
 
 Beta MOs, Restricted
 -- Occupied --                  
-11.187 -11.185  -0.992  -0.732  -0.611  -0.517  -0.465  -0.327
  1 A1    2 A1    3 A1    4 A1    1 B1    5 A1    2 B1    1 B2                 
  0.022
  6 A1                                                                         
 -- Virtual --                   
  0.106   0.116   0.124   0.141   0.144   0.147   0.175   0.216
  7 A1    3 B1    2 B2    3 B2    8 A1    4 B1    9 A1    4 B2                 
  0.251   0.311   0.325   0.343   0.351   0.355   0.356   0.390
 10 A1   11 A1    5 B1   12 A1    6 B1    5 B2   13 A1    7 B1                 
  0.416   0.437   0.602   0.655   0.868   0.908   0.951   0.982
 14 A1    6 B2    8 B1   15 A1   16 A1    9 B1   17 A1   18 A1                 
  1.014   1.058   1.090   1.091   1.097   1.134   1.151   1.164
 10 B1   19 A1   20 A1    7 B2   11 B1    8 B2   21 A1    1 A2                 
  1.317   1.334   1.337   1.446   1.667   1.683   1.771   1.918
 22 A1    2 A2    9 B2   12 B1   23 A1   13 B1   14 B1   10 B2                 
  1.967   1.967   1.967   1.993   1.999   2.067   2.099   2.135
 24 A1   15 B1   11 B2   12 B2   25 A1    3 A2   26 A1   16 B1                 
  2.228   2.374   2.462   2.513   2.626   2.633   2.863   2.872
 13 B2   27 A1    4 A2   28 A1   29 A1   17 B1   18 B1   30 A1                 
  3.298   3.389
 31 A1   19 B1                                                                 

--------------------------------------------------------------------------------
                                   HF Summary                                   
--------------------------------------------------------------------------------
  Energy:                                                  -78.4866917086 a.u.
  Dip. moment [a.u.]:                  [  -0.000000,   -0.000000,   18.880101]
  Total dipole [Debye]:                                              47.988439
  <r^2> [a.u.]:                        [  25.067675,   14.937892,  792.830948]
  Total <r^2> [a.u.]:                                               832.836514
--------------------------------------------------------------------------------

--------------------------------------------------------------------------------
                                 MP(2) Summary                                  
--------------------------------------------------------------------------------
  MP energy contribution:                                   -0.2986525069 a.u.
  Total energy:                                            -78.7853442156 a.u.
  Dip. moment [a.u.]:                  [  -0.000000,   -0.000000,   18.885832]
  Total dipole [Debye]:                                              48.003006
  <r^2> [a.u.]:                        [  25.056408,   14.746279,  792.879878]
  Total <r^2> [a.u.]:                                               832.682564

  Density matrix analysis:
  ------------------------
  NOs
    Occupation of frontier NOs:
       0.0447   1.9371
    Number of electrons: 18.000000
    Number of unpaired electrons: n_u =  0.43206, n_u,nl =  0.04674
    NO participation ratio (PR_NO): 15.330577
  
  
  Mulliken Population Analysis
  Atom      Charge (e)              h+              e-           Del q
  --------------------------------------------------------------------
   1 C       -0.193593        0.090371       -0.101594       -0.011223
   2 C       -0.187046        0.085147       -0.103493       -0.018346
   3 H        0.088681        0.017963       -0.010535        0.007427
   4 H        0.101585        0.017723       -0.010368        0.007355
   5 H        0.088681        0.017963       -0.010535        0.007427
   6 H        0.101585        0.017723       -0.010368        0.007355
   7 H       -0.999892        0.021960       -0.021954        0.000006
  --------------------------------------------------------------------
  Sum:       -1.000000        0.268848       -0.268848        0.000000
  
  Multipole moment analysis of the density matrix
    Molecular charge:                      -1.000000
    Number of electrons:                   18.000000
      Center of electronic charge [Ang]: [  0.000000,   0.000000,  -0.555220]
    Total nuclear charge:                  17.000000
      Center of nuclear charge [Ang]:    [ -0.000000,   0.000000,  -0.000000]
    Dipole moment [D]:                     48.002991
      Cartesian components [D]:          [ -0.000000,  -0.000000,  48.002991]
    RMS size of the density [Ang]:         3.556106
      Cartesian components [Ang]:        [  0.624344,   0.478968,   3.467950]
  
  Exciton analysis of the difference density matrix
    <r_h> [Ang]:                  [ -0.000000,  -0.000000,  -0.231418]
    <r_e> [Ang]:                  [  0.000000,   0.000000,  -0.242698]
    |<r_e - r_h>| [Ang]:            0.011280
    Hole size [Ang]:                3.251631
      Cartesian components [Ang]: [  0.734738,   0.754490,   3.076363]
    Electron size [Ang]:            3.226051
      Cartesian components [Ang]: [  0.726708,   0.608009,   3.083768]
--------------------------------------------------------------------------------

--------------------------------------------------------------------------------
                                 MP(3) Summary                                  
--------------------------------------------------------------------------------
  MP energy contribution:                                   -0.0281787828 a.u.
  Total energy:                                            -78.8135229984 a.u.
--------------------------------------------------------------------------------
  Starting Davidson for singlet states of irrep B2 ... 
--------------------------------------------------------------------------------
   It NVec Conv  Avg. Norm  Max. Norm  Conv. states           Remark
--------------------------------------------------------------------------------
       100    0  9.279e-02  4.274e-01  0.0752 n n n n n n n n Guess.
    1  110    0  3.445e-02  2.584e-01  0.0445 n n n n n n n n 
    2  120    0  2.609e-02  1.564e-01  0.0443 n n n n n n n n 
    3  130    0  1.821e-02  1.132e-01  0.0442 n n n n n n n n 
    4  140    0  8.018e-03  5.967e-02  0.0442 n n n n n n n n 
    5  150    0  5.689e-03  5.261e-02  0.0442 n n n n n n n n 
    6  160    1  5.020e-03  4.963e-02  0.0442 y n n n n n n n 
    7  170    2  2.248e-03  2.208e-02  0.0442 y y n n n n n n 
    8  180    3  7.626e-04  7.536e-03  0.0442 y y y n n n n n 
    9  190    3  2.417e-04  2.370e-03  0.0442 y y y n n n n n 
   10  200    4  8.054e-05  7.685e-04  0.0442 y y y y n n n n 
   11   20    5  2.807e-05  2.575e-04  0.0442 y y y y y n n n Subspace collapsed.
   12   30    7  1.406e-05  1.245e-04  0.0442 y y y y y y n n 
   13   40    8  6.897e-06  5.901e-05  0.0442 y y y y y y n y 
   14   50    8  3.747e-06  2.968e-05  0.0442 y y y y y y n y 
   15   60    8  3.257e-06  2.564e-05  0.0442 y y y y y y n y 
   16   70    8  3.345e-06  3.147e-05  0.0442 y y y y y y n y 
   17   80    9  3.814e-06  3.789e-05  0.0442 y y y y y y y y 
   18   90    9  3.248e-06  3.244e-05  0.0442 y y y y y y y y 
   19  100    9  1.542e-06  1.540e-05  0.0442 y y y y y y y y 
   20  110   10  8.414e-07  8.409e-06  0.0442 y y y y y y y y Converged.
--------------------------------------------------------------------------------
  Davidson Summary: 
 ------------------------------------------------------------
  State  0: excitation energy =   0.0442 a.u.   (converged)
  State  1: excitation energy =   0.0475 a.u.   (converged)
  State  2: excitation energy =   0.1047 a.u.   (converged)
  State  3: excitation energy =   0.1990 a.u.   (converged)
  State  4: excitation energy =   0.2027 a.u.   (converged)
  State  5: excitation energy =   0.2545 a.u.   (converged)
  State  6: excitation energy =   0.2771 a.u.   (converged)
  State  7: excitation energy =   0.2789 a.u.   (converged)
  State  8: excitation energy =   0.2800 a.u.   (converged)
  State  9: excitation energy =   0.2957 a.u.   (converged)
 ------------------------------------------------------------


--------------------------------------------------------------------------------
                   State-averaged natural transition orbitals
--------------------------------------------------------------------------------
--------------------------------------------------------------------------------

--------------------------------------------------------------------------------
                             Excited State Summary
--------------------------------------------------------------------------------
--------------------------------------------------------------------------------

  Excited state 1 (singlet, B2)                                    [converged]
  ----------------------------------------------------------------------------
  Term symbol:  1 (1) B2                                    R^2 =  1.62253e-14

  Total energy:                                            -78.7692745840 a.u.
  Excitation energy:                                               1.204061 eV

  Osc. strength:                                                      0.000000
  Trans. dip. moment [a.u.]:           [   0.000000,    0.001731,    0.000000]
  <i|r^2|0> [a.u.]:                    [  -0.000000,   -0.000000,   -0.000000]

  Dip. moment [a.u.]:                  [  -0.000000,   -0.000000,   -1.179665]
  Total dipole [Debye]:                                               2.998410
  <r^2> [a.u.]:                        [  34.499793,   46.385176,  444.570279]
  Total <r^2> [a.u.]:                                               525.455247

  V1^2 = 0.9547, V2^2 = 0.0453

  Important amplitudes:
      occ i      occ j       vir a       vir b          v   
    ---------------------------------------------------------
     6 (A1) A               2 (B2) A                 -0.6255
     6 (A1) A               3 (B2) A                 -0.2916
    ---------------------------------------------------------

  Density matrix analysis:
  ------------------------
  NOs
    Occupation of frontier NOs:
       0.9942   1.0028
    Number of electrons: 18.000000
    Number of unpaired electrons: n_u =  2.41343, n_u,nl =  2.04936
    NO participation ratio (PR_NO):  2.918412
  
  
  Mulliken Population Analysis
  Atom      Charge (e)              h+              e-           Del q
  --------------------------------------------------------------------
   1 C       -0.649090        0.041041       -0.496537       -0.455497
   2 C       -0.656335        0.032607       -0.501896       -0.469289
   3 H        0.076162       -0.001875       -0.010644       -0.012519
   4 H        0.076548       -0.000965       -0.024071       -0.025036
   5 H        0.076162       -0.001875       -0.010644       -0.012519
   6 H        0.076548       -0.000965       -0.024071       -0.025036
   7 H        0.000003        1.061435       -0.061540        0.999895
  --------------------------------------------------------------------
  Sum:       -1.000000        1.129403       -1.129403        0.000000
  
  Multipole moment analysis of the density matrix
    Molecular charge:                      -1.000000
    Number of electrons:                   18.000000
      Center of electronic charge [Ang]: [  0.000000,   0.000000,   0.034681]
    Total nuclear charge:                  17.000000
      Center of nuclear charge [Ang]:    [ -0.000000,   0.000000,  -0.000000]
    Dipole moment [D]:                     2.998409
      Cartesian components [D]:          [ -0.000000,  -0.000000,  -2.998409]
    RMS size of the density [Ang]:         2.858912
      Cartesian components [Ang]:        [  0.732610,   0.849483,   2.629646]
  
  Exciton analysis of the difference density matrix
    <r_h> [Ang]:                  [  0.000000,   0.000000,  -9.401742]
    <r_e> [Ang]:                  [  0.000000,  -0.000000,  -0.000132]
    |<r_e - r_h>| [Ang]:            9.401610
    Hole size [Ang]:                2.820502
      Cartesian components [Ang]: [  0.734923,   0.733602,   2.622393]
    Electron size [Ang]:            4.491418
      Cartesian components [Ang]: [  1.697510,   2.895314,   2.984703]

  Transition density matrix analysis:
  -----------------------------------
  
  CT numbers (Mulliken)
    omega =     0.9485
    <Phe> =     0.0001
  
  Exciton analysis of the transition density matrix
    Trans. dipole moment [D]:             0.002199
      Cartesian components [D]:         [  0.000000,   0.002199,   0.000000]
    <r_h> [Ang]:                        [ -0.000000,   0.000000, -10.036287]
    <r_e> [Ang]:                        [ -0.000000,  -0.000000,   0.620841]
    |<r_e - r_h>| [Ang]:                 10.657128
    Hole size [Ang]:                      1.117898
      Cartesian components [Ang]:       [  0.643384,   0.643398,   0.649456]
    Electron size [Ang]:                  3.984848
      Cartesian components [Ang]:       [  1.772449,   3.070071,   1.819918]
    RMS electron-hole separation [Ang]:  11.432989
      Cartesian components [Ang]:       [  1.885609,   3.136762,  10.831364]
    Covariance(r_h, r_e) [Ang^2]:        -0.005080
    Correlation coefficient:             -0.001140
    Center-of-mass size [Ang]:            2.068729
      Cartesian components [Ang]:       [  0.942804,   1.568384,   0.964846]

  Decomposition into state-averaged NTOs
    H- 0 -> L+ 0:  0.5049 ( 51.0%)
    H- 0 -> L+ 1: -0.4458 ( 39.8%)
    H- 0 -> L+ 5: -0.1435 (  4.1%)
                   omega =  94.9%
  ----------------------------------------------------------------------------


  Excited state 2 (singlet, B2)                                    [converged]
  ----------------------------------------------------------------------------
  Term symbol:  2 (1) B2                                    R^2 =  4.49671e-14

  Total energy:                                            -78.7660211031 a.u.
  Excitation energy:                                               1.292592 eV

  Osc. strength:                                                      0.000007
  Trans. dip. moment [a.u.]:           [   0.000000,    0.015387,   -0.000000]
  <i|r^2|0> [a.u.]:                    [   0.000000,    0.000000,   -0.000000]

  Dip. moment [a.u.]:                  [  -0.000000,   -0.000000,   -1.192597]
  Total dipole [Debye]:                                               3.031279
  <r^2> [a.u.]:                        [  30.057918,   31.888680,  452.402908]
  Total <r^2> [a.u.]:                                               514.349506

  V1^2 = 0.9351, V2^2 = 0.0649

  Important amplitudes:
      occ i      occ j       vir a       vir b          v   
    ---------------------------------------------------------
     6 (A1) A               3 (B2) A                 -0.6089
     6 (A1) A               2 (B2) A                  0.2773
    ---------------------------------------------------------

  Density matrix analysis:
  ------------------------
  NOs
    Occupation of frontier NOs:
       0.9864   1.0017
    Number of electrons: 18.000000
    Number of unpaired electrons: n_u =  2.42805, n_u,nl =  2.05081
    NO participation ratio (PR_NO):  2.973115
  
  
  Mulliken Population Analysis
  Atom      Charge (e)              h+              e-           Del q
  --------------------------------------------------------------------
   1 C       -0.638424        0.107780       -0.552611       -0.444831
   2 C       -0.635887        0.100704       -0.549545       -0.448841
   3 H        0.068426        0.004433       -0.024687       -0.020254
   4 H        0.068726        0.004515       -0.037374       -0.032858
   5 H        0.068426        0.004433       -0.024687       -0.020254
   6 H        0.068726        0.004515       -0.037374       -0.032858
   7 H        0.000004        1.057891       -0.057995        0.999897
  --------------------------------------------------------------------
  Sum:       -1.000000        1.284272       -1.284272        0.000000
  
  Multipole moment analysis of the density matrix
    Molecular charge:                      -1.000000
    Number of electrons:                   18.000000
      Center of electronic charge [Ang]: [  0.000000,   0.000000,   0.035061]
    Total nuclear charge:                  17.000000
      Center of nuclear charge [Ang]:    [ -0.000000,   0.000000,  -0.000000]
    Dipole moment [D]:                     3.031278
      Cartesian components [D]:          [ -0.000000,  -0.000000,  -3.031278]
    RMS size of the density [Ang]:         2.828529
      Cartesian components [Ang]:        [  0.683824,   0.704341,   2.652709]
  
  Exciton analysis of the difference density matrix
    <r_h> [Ang]:                  [  0.000000,  -0.000000,  -8.163520]
    <r_e> [Ang]:                  [  0.000000,  -0.000000,   0.109685]
    |<r_e - r_h>| [Ang]:            8.273205
    Hole size [Ang]:                4.285207
      Cartesian components [Ang]: [  0.774792,   0.816464,   4.134740]
    Electron size [Ang]:            3.947561
      Cartesian components [Ang]: [  1.300329,   2.098671,   3.080254]

  Transition density matrix analysis:
  -----------------------------------
  
  CT numbers (Mulliken)
    omega =     0.9239
    <Phe> =     0.0000
  
  Exciton analysis of the transition density matrix
    Trans. dipole moment [D]:             0.019555
      Cartesian components [D]:         [  0.000000,   0.019555,  -0.000000]
    <r_h> [Ang]:                        [ -0.000000,   0.000000, -10.036758]
    <r_e> [Ang]:                        [  0.000000,  -0.000000,   0.621885]
    |<r_e - r_h>| [Ang]:                 10.658643
    Hole size [Ang]:                      1.115483
      Cartesian components [Ang]:       [  0.643308,   0.643304,   0.645459]
    Electron size [Ang]:                  3.526096
      Cartesian components [Ang]:       [  1.321065,   2.282751,   2.340340]
    RMS electron-hole separation [Ang]:  11.282040
      Cartesian components [Ang]:       [  1.469373,   2.371659,  10.931633]
    Covariance(r_h, r_e) [Ang^2]:        -0.000042
    Correlation coefficient:             -0.000011
    Center-of-mass size [Ang]:            1.849160
      Cartesian components [Ang]:       [  0.734687,   1.185835,   1.213847]

  Decomposition into state-averaged NTOs
    H- 0 -> L+ 1:  0.4213 ( 35.5%)
    H- 0 -> L+ 4: -0.3800 ( 28.9%)
    H- 0 -> L+ 0:  0.3741 ( 28.0%)
                   omega =  92.4%
  ----------------------------------------------------------------------------


  Excited state 3 (singlet, B2)                                    [converged]
  ----------------------------------------------------------------------------
  Term symbol:  3 (1) B2                                    R^2 =  3.06864e-13

  Total energy:                                            -78.7088000456 a.u.
  Excitation energy:                                               2.849656 eV

  Osc. strength:                                                      0.000018
  Trans. dip. moment [a.u.]:           [  -0.000000,   -0.015970,    0.000000]
  <i|r^2|0> [a.u.]:                    [  -0.000000,   -0.000000,    0.000000]

  Dip. moment [a.u.]:                  [  -0.000000,   -0.000000,   -1.185679]
  Total dipole [Debye]:                                               3.013697
  <r^2> [a.u.]:                        [  30.230196,   31.216009,  451.294006]
  Total <r^2> [a.u.]:                                               512.740210

  V1^2 = 0.8948, V2^2 = 0.1052

  Important amplitudes:
      occ i      occ j       vir a       vir b          v   
    ---------------------------------------------------------
     6 (A1) A               4 (B2) A                 -0.6442
     6 (A1) A               3 (B2) A                  0.1380
    ---------------------------------------------------------

  Density matrix analysis:
  ------------------------
  NOs
    Occupation of frontier NOs:
       0.9703   0.9998
    Number of electrons: 18.000000
    Number of unpaired electrons: n_u =  2.48246, n_u,nl =  2.07034
    NO participation ratio (PR_NO):  3.144007
  
  
  Mulliken Population Analysis
  Atom      Charge (e)              h+              e-           Del q
  --------------------------------------------------------------------
   1 C       -0.585702        0.167451       -0.559561       -0.392110
   2 C       -0.590061        0.179350       -0.582365       -0.403015
   3 H        0.043617        0.006417       -0.051481       -0.045064
   4 H        0.044262        0.006588       -0.063911       -0.057323
   5 H        0.043617        0.006417       -0.051481       -0.045064
   6 H        0.044262        0.006588       -0.063911       -0.057323
   7 H        0.000007        1.051811       -0.051912        0.999899
  --------------------------------------------------------------------
  Sum:       -1.000000        1.424623       -1.424623        0.000000
  
  Multipole moment analysis of the density matrix
    Molecular charge:                      -1.000000
    Number of electrons:                   18.000000
      Center of electronic charge [Ang]: [  0.000000,   0.000000,   0.034857]
    Total nuclear charge:                  17.000000
      Center of nuclear charge [Ang]:    [ -0.000000,   0.000000,  -0.000000]
    Dipole moment [D]:                     3.013696
      Cartesian components [D]:          [ -0.000000,  -0.000000,  -3.013696]
    RMS size of the density [Ang]:         2.824103
      Cartesian components [Ang]:        [  0.685781,   0.696873,   2.649458]
  
  Exciton analysis of the difference density matrix
    <r_h> [Ang]:                  [  0.000000,   0.000000,  -7.262827]
    <r_e> [Ang]:                  [  0.000000,   0.000000,   0.192749]
    |<r_e - r_h>| [Ang]:            7.455576
    Hole size [Ang]:                4.867490
      Cartesian components [Ang]: [  0.770009,   0.815223,   4.736555]
    Electron size [Ang]:            3.676284
      Cartesian components [Ang]: [  1.268814,   1.975331,   2.829000]

  Transition density matrix analysis:
  -----------------------------------
  
  CT numbers (Mulliken)
    omega =     0.8803
    <Phe> =     0.0000
  
  Exciton analysis of the transition density matrix
    Trans. dipole moment [D]:             0.020295
      Cartesian components [D]:         [ -0.000000,  -0.020295,   0.000000]
    <r_h> [Ang]:                        [ -0.000000,   0.000000, -10.036757]
    <r_e> [Ang]:                        [  0.000000,   0.000000,   0.622179]
    |<r_e - r_h>| [Ang]:                 10.658937
    Hole size [Ang]:                      1.115261
      Cartesian components [Ang]:       [  0.643174,   0.643171,   0.645341]
    Electron size [Ang]:                  3.417628
      Cartesian components [Ang]:       [  1.283169,   2.212351,   2.266972]
    RMS electron-hole separation [Ang]:  11.248867
      Cartesian components [Ang]:       [  1.435338,   2.303941,  10.916441]
    Covariance(r_h, r_e) [Ang^2]:        -0.000050
    Correlation coefficient:             -0.000013
    Center-of-mass size [Ang]:            1.797490
      Cartesian components [Ang]:       [  0.717669,   1.151976,   1.178505]

  Decomposition into state-averaged NTOs
    H- 0 -> L+ 4: -0.5314 ( 56.5%)
    H- 0 -> L+ 1: -0.2972 ( 17.7%)
    H- 0 -> L+ 0: -0.2632 ( 13.9%)
                   omega =  88.0%
  ----------------------------------------------------------------------------


  Excited state 4 (singlet, B2)                                    [converged]
  ----------------------------------------------------------------------------
  Term symbol:  4 (1) B2                                    R^2 =  1.29834e-10

  Total energy:                                            -78.6144926528 a.u.
  Excitation energy:                                               5.415891 eV

  Osc. strength:                                                      0.000001
  Trans. dip. moment [a.u.]:           [  -0.000000,   -0.002467,    0.000000]
  <i|r^2|0> [a.u.]:                    [  -0.000000,   -0.000000,    0.000000]

  Dip. moment [a.u.]:                  [  -0.000000,    0.000000,   -0.680307]
  Total dipole [Debye]:                                               1.729168
  <r^2> [a.u.]:                        [  34.968621,   46.838090,  446.077615]
  Total <r^2> [a.u.]:                                               527.884326

  V1^2 = 0.0442, V2^2 = 0.9558

  Important amplitudes:
      occ i      occ j       vir a       vir b          v   
    ---------------------------------------------------------
     6 (A1) A   1 (B2) B    4 (B2) A    2 (B2) B     -0.1924
     6 (A1) A               4 (B2) A                 -0.1375
    ---------------------------------------------------------

  Density matrix analysis:
  ------------------------
  NOs
    Occupation of frontier NOs:
       0.9876   1.0083
    Number of electrons: 18.000000
    Number of unpaired electrons: n_u =  3.95907, n_u,nl =  3.87902
    NO participation ratio (PR_NO):  4.795813
  
  
  Mulliken Population Analysis
  Atom      Charge (e)              h+              e-           Del q
  --------------------------------------------------------------------
   1 C       -0.492071        0.498960       -0.797439       -0.298479
   2 C       -0.840388        0.491628       -1.144971       -0.653343
   3 H        0.076911        0.002852       -0.014622       -0.011770
   4 H        0.089292        0.002399       -0.014692       -0.012293
   5 H        0.076911        0.002852       -0.014622       -0.011770
   6 H        0.089292        0.002399       -0.014692       -0.012293
   7 H        0.000054        1.001821       -0.001875        0.999946
  --------------------------------------------------------------------
  Sum:       -1.000000        2.002913       -2.002913        0.000000
  
  Multipole moment analysis of the density matrix
    Molecular charge:                      -1.000000
    Number of electrons:                   18.000000
      Center of electronic charge [Ang]: [  0.000000,  -0.000000,   0.020000]
    Total nuclear charge:                  17.000000
      Center of nuclear charge [Ang]:    [ -0.000000,   0.000000,  -0.000000]
    Dipole moment [D]:                     1.729168
      Cartesian components [D]:          [ -0.000000,   0.000000,  -1.729168]
    RMS size of the density [Ang]:         2.865654
      Cartesian components [Ang]:        [  0.737572,   0.853620,   2.634254]
  
  Exciton analysis of the difference density matrix
    <r_h> [Ang]:                  [  0.000000,   0.000000,  -4.701991]
    <r_e> [Ang]:                  [  0.000000,  -0.000000,   0.467457]
    |<r_e - r_h>| [Ang]:            5.169448
    Hole size [Ang]:                5.482392
      Cartesian components [Ang]: [  0.613594,   0.814347,   5.386739]
    Electron size [Ang]:            3.054962
      Cartesian components [Ang]: [  1.327528,   2.269347,   1.555805]

  Transition density matrix analysis:
  -----------------------------------
  
  CT numbers (Mulliken)
    omega =     0.0436
    <Phe> =     0.0000
  
  Exciton analysis of the transition density matrix
    Trans. dipole moment [D]:             0.003136
      Cartesian components [D]:         [ -0.000000,  -0.003136,   0.000000]
    <r_h> [Ang]:                        [ -0.000000,   0.000000, -10.035619]
    <r_e> [Ang]:                        [  0.000000,  -0.000000,   0.643768]
    |<r_e - r_h>| [Ang]:                 10.679387
    Hole size [Ang]:                      1.122085
      Cartesian components [Ang]:       [  0.643955,   0.643992,   0.655493]
    Electron size [Ang]:                  3.046640
      Cartesian components [Ang]:       [  1.145412,   1.966406,   2.025659]
    RMS electron-hole separation [Ang]:  11.163104
      Cartesian components [Ang]:       [  1.314019,   2.069168,  10.890674]
    Covariance(r_h, r_e) [Ang^2]:        -0.012241
    Correlation coefficient:             -0.003581
    Center-of-mass size [Ang]:            1.621466
      Cartesian components [Ang]:       [  0.657010,   1.034589,   1.061657]

  Decomposition into state-averaged NTOs
    H- 0 -> L+ 4: -0.1313 (  3.4%)
                   omega =   4.4%
  ----------------------------------------------------------------------------


  Excited state 5 (singlet, B2)                                    [converged]
  ----------------------------------------------------------------------------
  Term symbol:  5 (1) B2                                    R^2 =  1.58818e-10

  Total energy:                                            -78.6108485628 a.u.
  Excitation energy:                                               5.515052 eV

  Osc. strength:                                                      0.000000
  Trans. dip. moment [a.u.]:           [  -0.000000,   -0.000333,    0.000000]
  <i|r^2|0> [a.u.]:                    [  -0.000000,   -0.000000,    0.000000]

  Dip. moment [a.u.]:                  [  -0.000000,    0.000000,   -1.759610]
  Total dipole [Debye]:                                               4.472484
  <r^2> [a.u.]:                        [  32.280039,   39.182136,  462.622919]
  Total <r^2> [a.u.]:                                               534.085094

  V1^2 = 0.0008, V2^2 = 0.9992

  Important amplitudes:
      occ i      occ j       vir a       vir b          v   
    ---------------------------------------------------------
     6 (A1) A   1 (B2) B    4 (B2) A    3 (B2) B      0.1760
     6 (A1) A   1 (B2) B    3 (B2) A    3 (B2) B      0.1721
    ---------------------------------------------------------

  Density matrix analysis:
  ------------------------
  NOs
    Occupation of frontier NOs:
       0.9465   0.9887
    Number of electrons: 18.000000
    Number of unpaired electrons: n_u =  3.20379, n_u,nl =  3.03747
    NO participation ratio (PR_NO):  4.439879
  
  
  Mulliken Population Analysis
  Atom      Charge (e)              h+              e-           Del q
  --------------------------------------------------------------------
   1 C       -0.829076        0.507665       -1.143149       -0.635484
   2 C       -0.545463        0.478587       -0.837005       -0.358418
   3 H        0.087461        0.003325       -0.004545       -0.001220
   4 H        0.099781        0.003268       -0.005072       -0.001804
   5 H        0.087461        0.003325       -0.004545       -0.001220
   6 H        0.099781        0.003268       -0.005072       -0.001804
   7 H        0.000057        0.999971       -0.000022        0.999949
  --------------------------------------------------------------------
  Sum:       -1.000000        1.999410       -1.999410       -0.000000
  
  Multipole moment analysis of the density matrix
    Molecular charge:                      -1.000000
    Number of electrons:                   18.000000
      Center of electronic charge [Ang]: [  0.000000,  -0.000000,   0.051730]
    Total nuclear charge:                  17.000000
      Center of nuclear charge [Ang]:    [ -0.000000,   0.000000,  -0.000000]
    Dipole moment [D]:                     4.472482
      Cartesian components [D]:          [ -0.000000,   0.000000,  -4.472482]
    RMS size of the density [Ang]:         2.882041
      Cartesian components [Ang]:        [  0.708650,   0.780744,   2.682240]
  
  Exciton analysis of the difference density matrix
    <r_h> [Ang]:                  [  0.000000,   0.000000,  -4.699537]
    <r_e> [Ang]:                  [ -0.000000,  -0.000000,   0.764624]
    |<r_e - r_h>| [Ang]:            5.464161
    Hole size [Ang]:                5.468817
      Cartesian components [Ang]: [  0.580519,   0.760416,   5.384489]
    Electron size [Ang]:            3.096564
      Cartesian components [Ang]: [  1.161341,   2.000153,   2.058977]

  Transition density matrix analysis:
  -----------------------------------
  
  CT numbers (Mulliken)
    omega =     0.0014
    <Phe> =     0.0110
  
  Exciton analysis of the transition density matrix
    Trans. dipole moment [D]:             0.000423
      Cartesian components [D]:         [ -0.000000,  -0.000423,   0.000000]
    <r_h> [Ang]:                        [  0.000000,   0.000000,  -5.526154]
    <r_e> [Ang]:                        [ -0.000000,  -0.000000,  -4.427744]
    |<r_e - r_h>| [Ang]:                  1.098410
    Hole size [Ang]:                      5.403383
      Cartesian components [Ang]:       [  0.590450,   0.744823,   5.319131]
    Electron size [Ang]:                  5.420751
      Cartesian components [Ang]:       [  1.153684,   1.906927,   4.941374]
    RMS electron-hole separation [Ang]:  10.506771
      Cartesian components [Ang]:       [  1.296000,   2.047222,  10.223576]
    Covariance(r_h, r_e) [Ang^2]:       -25.302330
    Correlation coefficient:             -0.863844
    Center-of-mass size [Ang]:            1.412128
      Cartesian components [Ang]:       [  0.648000,   1.023615,   0.725544]

  Decomposition into state-averaged NTOs
                   omega =   0.1%
  ----------------------------------------------------------------------------


  Excited state 6 (singlet, B2)                                    [converged]
  ----------------------------------------------------------------------------
  Term symbol:  6 (1) B2                                    R^2 =  2.12934e-09

  Total energy:                                            -78.5590117317 a.u.
  Excitation energy:                                               6.925604 eV

  Osc. strength:                                                      0.000000
  Trans. dip. moment [a.u.]:           [   0.000000,   -0.001537,    0.000000]
  <i|r^2|0> [a.u.]:                    [  -0.000000,   -0.000000,    0.000000]

  Dip. moment [a.u.]:                  [  -0.000000,   -0.000000,   -1.182705]
  Total dipole [Debye]:                                               3.006137
  <r^2> [a.u.]:                        [  31.378842,   34.414513,  441.323381]
  Total <r^2> [a.u.]:                                               507.116736

  V1^2 = 0.8654, V2^2 = 0.1346

  Important amplitudes:
      occ i      occ j       vir a       vir b          v   
    ---------------------------------------------------------
     6 (A1) A               5 (B2) A                 -0.6558
     6 (A1) A   6 (A1) B   19 (A1) A    5 (B2) B      0.0636
    ---------------------------------------------------------

  Density matrix analysis:
  ------------------------
  NOs
    Occupation of frontier NOs:
       0.9079   0.9986
    Number of electrons: 18.000000
    Number of unpaired electrons: n_u =  2.59581, n_u,nl =  2.14859
    NO participation ratio (PR_NO):  3.607892
  
  
  Mulliken Population Analysis
  Atom      Charge (e)              h+              e-           Del q
  --------------------------------------------------------------------
   1 C       -0.618229        0.127336       -0.551972       -0.424636
   2 C       -0.626592        0.124064       -0.563611       -0.439547
   3 H        0.060342       -0.002957       -0.025383       -0.028339
   4 H        0.062065       -0.002421       -0.037099       -0.039520
   5 H        0.060342       -0.002957       -0.025383       -0.028339
   6 H        0.062065       -0.002421       -0.037099       -0.039520
   7 H        0.000008        1.050440       -0.050540        0.999900
  --------------------------------------------------------------------
  Sum:       -1.000000        1.291086       -1.291086       -0.000000
  
  Multipole moment analysis of the density matrix
    Molecular charge:                      -1.000000
    Number of electrons:                   18.000000
      Center of electronic charge [Ang]: [  0.000000,   0.000000,   0.034770]
    Total nuclear charge:                  17.000000
      Center of nuclear charge [Ang]:    [ -0.000000,   0.000000,  -0.000000]
    Dipole moment [D]:                     3.006136
      Cartesian components [D]:          [ -0.000000,  -0.000000,  -3.006136]
    RMS size of the density [Ang]:         2.808572
      Cartesian components [Ang]:        [  0.698688,   0.731704,   2.620023]
  
  Exciton analysis of the difference density matrix
    <r_h> [Ang]:                  [  0.000000,  -0.000000,  -8.056540]
    <r_e> [Ang]:                  [  0.000000,   0.000000,   0.168946]
    |<r_e - r_h>| [Ang]:            8.225486
    Hole size [Ang]:                4.341398
      Cartesian components [Ang]: [  0.732984,   0.762706,   4.210553]
    Electron size [Ang]:            3.621305
      Cartesian components [Ang]: [  1.381507,   2.201735,   2.521438]

  Transition density matrix analysis:
  -----------------------------------
  
  CT numbers (Mulliken)
    omega =     0.8587
    <Phe> =     0.0004
  
  Exciton analysis of the transition density matrix
    Trans. dipole moment [D]:             0.001953
      Cartesian components [D]:         [  0.000000,  -0.001953,   0.000000]
    <r_h> [Ang]:                        [ -0.000000,   0.000000, -10.032443]
    <r_e> [Ang]:                        [ -0.000000,   0.000000,   0.619310]
    |<r_e - r_h>| [Ang]:                 10.651754
    Hole size [Ang]:                      1.135876
      Cartesian components [Ang]:       [  0.643180,   0.643331,   0.680191]
    Electron size [Ang]:                  3.159562
      Cartesian components [Ang]:       [  1.408882,   2.437352,   1.434292]
    RMS electron-hole separation [Ang]:  11.172507
      Cartesian components [Ang]:       [  1.548751,   2.520822,  10.773660]
    Covariance(r_h, r_e) [Ang^2]:        -0.046008
    Correlation coefficient:             -0.012820
    Center-of-mass size [Ang]:            1.671902
      Cartesian components [Ang]:       [  0.774375,   1.260414,   0.779074]

  Decomposition into state-averaged NTOs
    H- 0 -> L+ 5: -0.6380 ( 81.4%)
    H- 0 -> L+ 0: -0.1093 (  2.4%)
    H- 0 -> L+ 1:  0.1006 (  2.0%)
                   omega =  85.9%
  ----------------------------------------------------------------------------


  Excited state 7 (singlet, B2)                                    [converged]
  ----------------------------------------------------------------------------
  Term symbol:  7 (1) B2                                    R^2 =  2.69185e-07

  Total energy:                                            -78.5363751865 a.u.
  Excitation energy:                                               7.541576 eV

  Osc. strength:                                                      0.000064
  Trans. dip. moment [a.u.]:           [  -0.000000,   -0.018586,    0.000000]
  <i|r^2|0> [a.u.]:                    [   0.000000,    0.000000,   -0.000000]

  Dip. moment [a.u.]:                  [   0.000000,   -0.000000,   -1.063347]
  Total dipole [Debye]:                                               2.702760
  <r^2> [a.u.]:                        [  40.313173,   28.693595,  495.061579]
  Total <r^2> [a.u.]:                                               564.068347

  V1^2 = 0.0234, V2^2 = 0.9766

  Important amplitudes:
      occ i      occ j       vir a       vir b          v   
    ---------------------------------------------------------
     6 (A1) A   1 (B2) B    7 (A1) A    8 (A1) B      0.1817
     6 (A1) A   1 (B2) B    8 (A1) A    7 (A1) B      0.1638
    ---------------------------------------------------------

  Density matrix analysis:
  ------------------------
  NOs
    Occupation of frontier NOs:
       0.9646   0.9827
    Number of electrons: 18.000000
    Number of unpaired electrons: n_u =  4.28359, n_u,nl =  4.01820
    NO participation ratio (PR_NO):  4.935788
  
  
  Mulliken Population Analysis
  Atom      Charge (e)              h+              e-           Del q
  --------------------------------------------------------------------
   1 C       -0.672690        0.493715       -0.972812       -0.479097
   2 C       -0.725669        0.475106       -1.013729       -0.538623
   3 H        0.093603        0.002645        0.002277        0.004922
   4 H        0.105860        0.002430        0.001845        0.004275
   5 H        0.093603        0.002645        0.002277        0.004922
   6 H        0.105860        0.002430        0.001845        0.004275
   7 H       -0.000567        1.000114       -0.000788        0.999326
  --------------------------------------------------------------------
  Sum:       -1.000000        1.979085       -1.979085       -0.000000
  
  Multipole moment analysis of the density matrix
    Molecular charge:                      -1.000000
    Number of electrons:                   18.000000
      Center of electronic charge [Ang]: [ -0.000000,   0.000000,   0.031261]
    Total nuclear charge:                  17.000000
      Center of nuclear charge [Ang]:    [ -0.000000,   0.000000,  -0.000000]
    Dipole moment [D]:                     2.702759
      Cartesian components [D]:          [  0.000000,  -0.000000,  -2.702759]
    RMS size of the density [Ang]:         2.962147
      Cartesian components [Ang]:        [  0.791933,   0.668124,   2.775025]
  
  Exciton analysis of the difference density matrix
    <r_h> [Ang]:                  [ -0.000000,   0.000000,  -4.755572]
    <r_e> [Ang]:                  [ -0.000000,   0.000000,   0.578533]
    |<r_e - r_h>| [Ang]:            5.334106
    Hole size [Ang]:                5.469107
      Cartesian components [Ang]: [  0.584006,   0.763723,   5.383939]
    Electron size [Ang]:            3.766248
      Cartesian components [Ang]: [  1.581076,   1.598979,   3.021273]

  Transition density matrix analysis:
  -----------------------------------
  
  CT numbers (Mulliken)
    omega =     0.0232
    <Phe> =     0.0002
  
  Exciton analysis of the transition density matrix
    Trans. dipole moment [D]:             0.023621
      Cartesian components [D]:         [ -0.000000,  -0.023621,   0.000000]
    <r_h> [Ang]:                        [ -0.000000,   0.000000,  -9.725632]
    <r_e> [Ang]:                        [ -0.000000,   0.000000,   0.610528]
    |<r_e - r_h>| [Ang]:                 10.336160
    Hole size [Ang]:                      2.117629
      Cartesian components [Ang]:       [  0.639943,   0.650861,   1.910813]
    Electron size [Ang]:                  3.065058
      Cartesian components [Ang]:       [  1.367193,   2.334764,   1.440222]
    RMS electron-hole separation [Ang]:  10.936666
      Cartesian components [Ang]:       [  1.509528,   2.423581,  10.557378]
    Covariance(r_h, r_e) [Ang^2]:         0.552244
    Correlation coefficient:              0.085083
    Center-of-mass size [Ang]:            1.935422
      Cartesian components [Ang]:       [  0.754788,   1.211997,   1.306605]

  Decomposition into state-averaged NTOs
    H- 0 -> L+ 5:  0.1046 (  2.2%)
                   omega =   2.3%
  ----------------------------------------------------------------------------


  Excited state 8 (singlet, B2)                                    [converged]
  ----------------------------------------------------------------------------
  Term symbol:  8 (1) B2                                    R^2 =  4.84810e-08

  Total energy:                                            -78.5345736370 a.u.
  Excitation energy:                                               7.590598 eV

  Osc. strength:                                                      0.003168
  Trans. dip. moment [a.u.]:           [  -0.000000,   -0.130515,    0.000000]
  <i|r^2|0> [a.u.]:                    [   0.000000,    0.000000,   -0.000000]

  Dip. moment [a.u.]:                  [   0.000000,   -0.000000,   -0.869383]
  Total dipole [Debye]:                                               2.209751
  <r^2> [a.u.]:                        [  40.866032,   29.386600,  501.379176]
  Total <r^2> [a.u.]:                                               571.631808

  V1^2 = 0.0277, V2^2 = 0.9723

  Important amplitudes:
      occ i      occ j       vir a       vir b          v   
    ---------------------------------------------------------
     6 (A1) A   1 (B2) A    7 (A1) A    8 (A1) A     -0.2351
     6 (A1) A   1 (B2) B    8 (A1) A    7 (A1) B      0.1490
    ---------------------------------------------------------

  Density matrix analysis:
  ------------------------
  NOs
    Occupation of frontier NOs:
       0.9386   0.9427
    Number of electrons: 18.000000
    Number of unpaired electrons: n_u =  3.98661, n_u,nl =  3.90264
    NO participation ratio (PR_NO):  5.065002
  
  
  Mulliken Population Analysis
  Atom      Charge (e)              h+              e-           Del q
  --------------------------------------------------------------------
   1 C       -0.704393        0.512728       -1.023529       -0.510801
   2 C       -0.711818        0.479009       -1.003781       -0.524772
   3 H        0.104029        0.005501        0.009847        0.015348
   4 H        0.116809        0.004375        0.010850        0.015225
   5 H        0.104029        0.005501        0.009847        0.015348
   6 H        0.116809        0.004375        0.010850        0.015225
   7 H       -0.025465        0.981077       -0.006650        0.974427
  --------------------------------------------------------------------
  Sum:       -1.000000        1.992565       -1.992565       -0.000000
  
  Multipole moment analysis of the density matrix
    Molecular charge:                      -1.000000
    Number of electrons:                   18.000000
      Center of electronic charge [Ang]: [ -0.000000,   0.000000,   0.025559]
    Total nuclear charge:                  17.000000
      Center of nuclear charge [Ang]:    [ -0.000000,   0.000000,  -0.000000]
    Dipole moment [D]:                     2.209751
      Cartesian components [D]:          [  0.000000,  -0.000000,  -2.209751]
    RMS size of the density [Ang]:         2.981996
      Cartesian components [Ang]:        [  0.797345,   0.676145,   2.792736]
  
  Exciton analysis of the difference density matrix
    <r_h> [Ang]:                  [ -0.000000,   0.000000,  -4.621596]
    <r_e> [Ang]:                  [ -0.000000,   0.000000,   0.624912]
    |<r_e - r_h>| [Ang]:            5.246508
    Hole size [Ang]:                5.468707
      Cartesian components [Ang]: [  0.590618,   0.768164,   5.382179]
    Electron size [Ang]:            3.766720
      Cartesian components [Ang]: [  1.603328,   1.627138,   2.994986]

  Transition density matrix analysis:
  -----------------------------------
  
  CT numbers (Mulliken)
    omega =     0.0269
    <Phe> =    -0.0105
  
  Exciton analysis of the transition density matrix
    Trans. dipole moment [D]:             0.165868
      Cartesian components [D]:         [ -0.000000,  -0.165868,   0.000000]
    <r_h> [Ang]:                        [ -0.000000,   0.000000,  -0.188259]
    <r_e> [Ang]:                        [ -0.000000,  -0.000000,   2.154633]
    |<r_e - r_h>| [Ang]:                  2.342891
    Hole size [Ang]:                      3.133540
      Cartesian components [Ang]:       [  0.520900,   0.846958,   2.971599]
    Electron size [Ang]:                  2.819151
      Cartesian components [Ang]:       [  1.535089,   1.628562,   1.714322]
    RMS electron-hole separation [Ang]:   4.629618
      Cartesian components [Ang]:       [  1.620312,   1.826045,   3.933638]
    Covariance(r_h, r_e) [Ang^2]:         0.911232
    Correlation coefficient:              0.103151
    Center-of-mass size [Ang]:            2.212981
      Cartesian components [Ang]:       [  0.810903,   0.922586,   1.840803]

  Decomposition into state-averaged NTOs
    H- 1 -> L+ 2: -0.1089 (  2.4%)
                   omega =   2.7%
  ----------------------------------------------------------------------------


  Excited state 9 (singlet, B2)                                    [converged]
  ----------------------------------------------------------------------------
  Term symbol:  9 (1) B2                                    R^2 =  1.57028e-08

  Total energy:                                            -78.5335715966 a.u.
  Excitation energy:                                               7.617865 eV

  Osc. strength:                                                      0.115069
  Trans. dip. moment [a.u.]:           [   0.000000,    0.785205,   -0.000000]
  <i|r^2|0> [a.u.]:                    [  -0.000000,   -0.000000,    0.000000]

  Dip. moment [a.u.]:                  [   0.000000,    0.000000,   15.820335]
  Total dipole [Debye]:                                              40.211289
  <r^2> [a.u.]:                        [  31.560239,   20.191904,  804.555164]
  Total <r^2> [a.u.]:                                               856.307306

  V1^2 = 0.9113, V2^2 = 0.0887

  Important amplitudes:
      occ i      occ j       vir a       vir b          v   
    ---------------------------------------------------------
     1 (B2) A               7 (A1) A                 -0.4312
     1 (B2) A               9 (A1) A                 -0.4145
    ---------------------------------------------------------

  Density matrix analysis:
  ------------------------
  NOs
    Occupation of frontier NOs:
       0.9789   0.9808
    Number of electrons: 18.000000
    Number of unpaired electrons: n_u =  2.35271, n_u,nl =  2.03056
    NO participation ratio (PR_NO):  2.870313
  
  
  Mulliken Population Analysis
  Atom      Charge (e)              h+              e-           Del q
  --------------------------------------------------------------------
   1 C        0.242710        0.690601       -0.254298        0.436303
   2 C       -0.980251        0.380439       -1.173644       -0.793205
   3 H        0.173295        0.104992       -0.020378        0.084614
   4 H        0.182342        0.067946        0.012811        0.080758
   5 H        0.173295        0.104992       -0.020378        0.084614
   6 H        0.182342        0.067946        0.012811        0.080758
   7 H       -0.973733        0.102290       -0.076131        0.026159
  --------------------------------------------------------------------
  Sum:       -1.000000        1.519206       -1.519206       -0.000000
  
  Multipole moment analysis of the density matrix
    Molecular charge:                      -1.000000
    Number of electrons:                   18.000000
      Center of electronic charge [Ang]: [ -0.000000,  -0.000000,  -0.465098]
    Total nuclear charge:                  17.000000
      Center of nuclear charge [Ang]:    [ -0.000000,   0.000000,  -0.000000]
    Dipole moment [D]:                     40.211277
      Cartesian components [D]:          [  0.000000,   0.000000,  40.211277]
    RMS size of the density [Ang]:         3.620135
      Cartesian components [Ang]:        [  0.700705,   0.560471,   3.507173]
  
  Exciton analysis of the difference density matrix
    <r_h> [Ang]:                  [ -0.000000,   0.000000,  -0.062939]
    <r_e> [Ang]:                  [ -0.000000,  -0.000000,   1.004849]
    |<r_e - r_h>| [Ang]:            1.067788
    Hole size [Ang]:                3.181555
      Cartesian components [Ang]: [  0.822395,   0.910651,   2.935417]
    Electron size [Ang]:            3.670310
      Cartesian components [Ang]: [  1.369363,   1.353903,   3.124575]

  Transition density matrix analysis:
  -----------------------------------
  
  CT numbers (Mulliken)
    omega =     0.8814
    <Phe> =    -0.0117
  
  Exciton analysis of the transition density matrix
    Trans. dipole moment [D]:             0.997896
      Cartesian components [D]:         [  0.000000,   0.997896,  -0.000000]
    <r_h> [Ang]:                        [ -0.000000,   0.000000,   0.649443]
    <r_e> [Ang]:                        [ -0.000000,  -0.000000,   2.174938]
    |<r_e - r_h>| [Ang]:                  1.525495
    Hole size [Ang]:                      1.258663
      Cartesian components [Ang]:       [  0.509029,   0.861902,   0.763052]
    Electron size [Ang]:                  2.713875
      Cartesian components [Ang]:       [  1.548317,   1.540320,   1.610978]
    RMS electron-hole separation [Ang]:   3.348582
      Cartesian components [Ang]:       [  1.629022,   1.754057,   2.341490]
    Covariance(r_h, r_e) [Ang^2]:         0.031743
    Correlation coefficient:              0.009293
    Center-of-mass size [Ang]:            1.501069
      Cartesian components [Ang]:       [  0.815334,   0.888004,   0.894365]

  Decomposition into state-averaged NTOs
    H- 1 -> L+ 2:  0.6522 ( 85.1%)
    H- 1 -> L+ 3:  0.1215 (  3.0%)
                   omega =  88.1%
  ----------------------------------------------------------------------------


  Excited state 10 (singlet, B2)                                    [converged]
  ----------------------------------------------------------------------------
  Term symbol:  10 (1) B2                                   R^2 =  8.40918e-06

  Total energy:                                            -78.5178152691 a.u.
  Excitation energy:                                               8.046617 eV

  Osc. strength:                                                      0.046284
  Trans. dip. moment [a.u.]:           [  -0.000000,   -0.484538,    0.000000]
  <i|r^2|0> [a.u.]:                    [  -0.000000,    0.000000,   -0.000000]

  Dip. moment [a.u.]:                  [   0.000000,   -0.000000,   19.280994]
  Total dipole [Debye]:                                              49.007409
  <r^2> [a.u.]:                        [  32.567644,   20.374564,  813.049374]
  Total <r^2> [a.u.]:                                               865.991581

  V1^2 = 0.9367, V2^2 = 0.0633

  Important amplitudes:
      occ i      occ j       vir a       vir b          v   
    ---------------------------------------------------------
     1 (B2) A               7 (A1) A                 -0.4713
     1 (B2) A               8 (A1) A                 -0.3427
    ---------------------------------------------------------

  Density matrix analysis:
  ------------------------
  NOs
    Occupation of frontier NOs:
       0.9800   0.9817
    Number of electrons: 18.000000
    Number of unpaired electrons: n_u =  2.33748, n_u,nl =  2.02996
    NO participation ratio (PR_NO):  2.827619
  
  
  Mulliken Population Analysis
  Atom      Charge (e)              h+              e-           Del q
  --------------------------------------------------------------------
   1 C       -1.396765        0.441251       -1.644424       -1.203172
   2 C        0.771354        0.556437        0.401962        0.958399
   3 H        0.172387        0.090495       -0.006788        0.083706
   4 H        0.139969        0.100129       -0.061744        0.038384
   5 H        0.172387        0.090495       -0.006788        0.083706
   6 H        0.139969        0.100129       -0.061744        0.038384
   7 H       -0.999301        0.001217       -0.000625        0.000592
  --------------------------------------------------------------------
  Sum:       -1.000000        1.380152       -1.380152       -0.000000
  
  Multipole moment analysis of the density matrix
    Molecular charge:                      -1.000000
    Number of electrons:                   18.000000
      Center of electronic charge [Ang]: [ -0.000000,   0.000000,  -0.566837]
    Total nuclear charge:                  17.000000
      Center of nuclear charge [Ang]:    [ -0.000000,   0.000000,  -0.000000]
    Dipole moment [D]:                     49.007394
      Cartesian components [D]:          [  0.000000,  -0.000000,  49.007394]
    RMS size of the density [Ang]:         3.626437
      Cartesian components [Ang]:        [  0.711800,   0.563001,   3.511042]
  
  Exciton analysis of the difference density matrix
    <r_h> [Ang]:                  [  0.000000,   0.000000,   0.556827]
    <r_e> [Ang]:                  [ -0.000000,  -0.000000,   0.405314]
    |<r_e - r_h>| [Ang]:            0.151513
    Hole size [Ang]:                1.593591
      Cartesian components [Ang]: [  0.787099,   0.859512,   1.086852]
    Electron size [Ang]:            3.073045
      Cartesian components [Ang]: [  1.464080,   1.371394,   2.327950]

  Transition density matrix analysis:
  -----------------------------------
  
  CT numbers (Mulliken)
    omega =     0.9064
    <Phe> =    -0.0071
  
  Exciton analysis of the transition density matrix
    Trans. dipole moment [D]:             0.615786
      Cartesian components [D]:         [ -0.000000,  -0.615786,   0.000000]
    <r_h> [Ang]:                        [  0.000000,   0.000000,   0.628984]
    <r_e> [Ang]:                        [ -0.000000,  -0.000000,   0.328116]
    |<r_e - r_h>| [Ang]:                  0.300868
    Hole size [Ang]:                      1.255648
      Cartesian components [Ang]:       [  0.509520,   0.861716,   0.757949]
    Electron size [Ang]:                  3.508231
      Cartesian components [Ang]:       [  1.666775,   1.579335,   2.652404]
    RMS electron-hole separation [Ang]:   3.725812
      Cartesian components [Ang]:       [  1.742062,   1.789728,   2.764737]
    Covariance(r_h, r_e) [Ang^2]:         0.046591
    Correlation coefficient:              0.010577
    Center-of-mass size [Ang]:            1.869326
      Cartesian components [Ang]:       [  0.871883,   0.904237,   1.384397]

  Decomposition into state-averaged NTOs
    H- 1 -> L+ 3:  0.6608 ( 87.3%)
    H- 1 -> L+ 2: -0.1238 (  3.1%)
                   omega =  90.6%
  ----------------------------------------------------------------------------


--------------------------------------------------------------------------------
  Time of ADC calculation:  CPU 472.78 s  wall 120.05 s
================================================================================
 
 --------------------------------------------------------------
             Orbital Energies (a.u.) and Symmetries
 --------------------------------------------------------------
 
 Alpha MOs, Restricted
 -- Occupied --                  
-11.187 -11.185  -0.992  -0.732  -0.611  -0.517  -0.465  -0.327
  1 A1    2 A1    3 A1    4 A1    1 B1    5 A1    2 B1    1 B2                 
  0.022
  6 A1                                                                         
 -- Virtual --                   
  0.106   0.116   0.124   0.141   0.144   0.147   0.175   0.216
  7 A1    3 B1    2 B2    3 B2    8 A1    4 B1    9 A1    4 B2                 
  0.251   0.311   0.325   0.343   0.351   0.355   0.356   0.390
 10 A1   11 A1    5 B1   12 A1    6 B1    5 B2   13 A1    7 B1                 
  0.416   0.437   0.602   0.655   0.868   0.908   0.951   0.982
 14 A1    6 B2    8 B1   15 A1   16 A1    9 B1   17 A1   18 A1                 
  1.014   1.058   1.090   1.091   1.097   1.134   1.151   1.164
 10 B1   19 A1   20 A1    7 B2   11 B1    8 B2   21 A1    1 A2                 
  1.317   1.334   1.337   1.446   1.667   1.683   1.771   1.918
 22 A1    2 A2    9 B2   12 B1   23 A1   13 B1   14 B1   10 B2                 
  1.967   1.967   1.967   1.993   1.999   2.067   2.099   2.135
 24 A1   15 B1   11 B2   12 B2   25 A1    3 A2   26 A1   16 B1                 
  2.228   2.374   2.462   2.513   2.626   2.633   2.863   2.872
 13 B2   27 A1    4 A2   28 A1   29 A1   17 B1   18 B1   30 A1                 
  3.298   3.389
 31 A1   19 B1                                                                 
 
 Beta MOs, Restricted
 -- Occupied --                  
-11.187 -11.185  -0.992  -0.732  -0.611  -0.517  -0.465  -0.327
  1 A1    2 A1    3 A1    4 A1    1 B1    5 A1    2 B1    1 B2                 
  0.022
  6 A1                                                                         
 -- Virtual --                   
  0.106   0.116   0.124   0.141   0.144   0.147   0.175   0.216
  7 A1    3 B1    2 B2    3 B2    8 A1    4 B1    9 A1    4 B2                 
  0.251   0.311   0.325   0.343   0.351   0.355   0.356   0.390
 10 A1   11 A1    5 B1   12 A1    6 B1    5 B2   13 A1    7 B1                 
  0.416   0.437   0.602   0.655   0.868   0.908   0.951   0.982
 14 A1    6 B2    8 B1   15 A1   16 A1    9 B1   17 A1   18 A1                 
  1.014   1.058   1.090   1.091   1.097   1.134   1.151   1.164
 10 B1   19 A1   20 A1    7 B2   11 B1    8 B2   21 A1    1 A2                 
  1.317   1.334   1.337   1.446   1.667   1.683   1.771   1.918
 22 A1    2 A2    9 B2   12 B1   23 A1   13 B1   14 B1   10 B2                 
  1.967   1.967   1.967   1.993   1.999   2.067   2.099   2.135
 24 A1   15 B1   11 B2   12 B2   25 A1    3 A2   26 A1   16 B1                 
  2.228   2.374   2.462   2.513   2.626   2.633   2.863   2.872
 13 B2   27 A1    4 A2   28 A1   29 A1   17 B1   18 B1   30 A1                 
  3.298   3.389
 31 A1   19 B1                                                                 
 --------------------------------------------------------------
 
          Ground-State Mulliken Net Atomic Charges

     Atom                 Charge (a.u.)
  ----------------------------------------
      1 C                    -0.182369
      2 C                    -0.168700
      3 H                     0.081254
      4 H                     0.094230
      5 H                     0.081254
      6 H                     0.094230
      7 H                    -0.999898
  ----------------------------------------
  Sum of atomic charges =    -1.000000

 -----------------------------------------------------------------
                    Cartesian Multipole Moments
 -----------------------------------------------------------------
    Charge (ESU x 10^10)
                -4.8032
    Dipole Moment (Debye)
         X      -0.0000      Y      -0.0000      Z      47.9884
       Tot      47.9884
    Quadrupole Moments (Debye-Ang)
        XX     -15.9236     XY       0.0000     YY     -20.0920
        XZ      -0.0000     YZ      -0.0000     ZZ    -500.9801
    Octopole Moments (Debye-Ang^2)
       XXX      -0.0000    XXY      -0.0000    XYY      -0.0000
       YYY      -0.0000    XXZ      31.9585    XYZ       0.0000
       YYZ      29.3760    XZZ      -0.0000    YZZ      -0.0000
       ZZZ    4950.3526
    Hexadecapole Moments (Debye-Ang^3)
      XXXX     -32.8407   XXXY       0.0000   XXYY     -10.9656
      XYYY       0.0000   YYYY     -27.5779   XXXZ      -0.0000
      XXYZ      -0.0000   XYYZ      -0.0000   YYYZ      -0.0000
      XXZZ    -418.5069   XYZZ       0.0000   YYZZ    -422.4852
      XZZZ      -0.0000   YZZZ       0.0000   ZZZZ  -51241.1099
 -----------------------------------------------------------------
 Total job time:  202.90s(wall), 518.57s(cpu) 
 Sat Mar 26 16:06:01 2022

        *************************************************************
        *                                                           *
        *  Thank you very much for using Q-Chem.  Have a nice day.  *
        *                                                           *
        *************************************************************


