/src/tsommerfeld/qchem/exe/qcprog.exe .input0.638889.18622.qcin.1 /src/jdavis/qchem.scratch/qchem18622/

                  Welcome to Q-Chem
     A Quantum Leap Into The Future Of Chemistry


 Q-Chem 5.4 (devel), Q-Chem, Inc., Pleasanton, CA (2021)

 E. Epifanovsky,  A. T. B. Gilbert,  Xintian Feng,  Joonho Lee,  Yuezhi Mao,  
 N. Mardirossian,  P. Pokhilko,  A. White,  M. Wormit,  M. P. Coons,  
 A. L. Dempwolff,  Zhengting Gan,  D. Hait,  P. R. Horn,  L. D. Jacobson,  
 I. Kaliman,  J. Kussmann,  A. W. Lange,  Ka Un Lao,  D. S. Levine,  Jie Liu,  
 S. C. McKenzie,  A. F. Morrison,  K. Nanda,  F. Plasser,  D. R. Rehn,  
 M. L. Vidal,  Zhi-Qiang You,  Ying Zhu,  B. Alam,  B. Albrecht,  
 A. Aldossary,  E. Alguire,  J. H. Andersen,  D. Barton,  K. Begam,  A. Behn,  
 Y. A. Bernard,  E. J. Berquist,  H. Burton,  A. Carreras,  K. Carter-Fenk,  
 R. Chakraborty,  A. D. Chien,  K. D. Closser,  V. Cofer-Shabica,  
 S. Dasgupta,  Jia Deng,  M. de Wergifosse,  M. Diedenhofen,  Hainam Do,  
 S. Ehlert,  Po-Tung Fang,  S. Fatehi,  Qingguo Feng,  T. Friedhoff,  
 J. Gayvert,  Qinghui Ge,  G. Gidofalvi,  M. Goldey,  J. Gomes,  
 C. Gonzalez-Espinoza,  S. Gulania,  A. Gunina,  M. W. D. Hanson-Heine,  
 P. H. P. Harbach,  A. W. Hauser,  M. F. Herbst,  M. Hernandez Vera,  
 M. Hodecker,  Z. C. Holden,  S. Houck,  Xunkun Huang,  Kerwin Hui,  
 B. C. Huynh,  M. Ivanov,  Hyunjun Ji,  Hanjie Jiang,  B. Kaduk,  S. Kaehler,  
 K. Khistyaev,  Jaehoon Kim,  P. Klunzinger,  Z. Koczor-Benda,  
 Joong Hoon Koh,  D. Kosenkov,  L. Koulias,  T. Kowalczyk,  C. M. Krauter,  
 K. Kue,  A. Kunitsa,  T. Kus,  A. Landau,  K. V. Lawler,  D. Lefrancois,  
 S. Lehtola,  Rain Li,  Yi-Pei Li,  Jiashu Liang,  M. Liebenthal,  
 Hung-Hsuan Lin,  You-Sheng Lin,  Fenglai Liu,  Kuan-Yu Liu,  
 M. Loipersberger,  A. Luenser,  A. Manjanath,  P. Manohar,  E. Mansoor,  
 S. F. Manzer,  Shan-Ping Mao,  A. V. Marenich,  T. Markovich,  S. Mason,  
 S. A. Maurer,  P. F. McLaughlin,  M. F. S. J. Menger,  J.-M. Mewes,  
 S. A. Mewes,  P. Morgante,  J. W. Mullinax,  K. J. Oosterbaan,  G. Paran,  
 Alexander C. Paul,  Suranjan K. Paul,  F. Pavosevic,  Zheng Pei,  S. Prager,  
 E. I. Proynov,  E. Ramos,  B. Rana,  A. E. Rask,  A. Rettig,  R. M. Richard,  
 F. Rob,  E. Rossomme,  T. Scheele,  M. Scheurer,  M. Schneider,  
 N. Sergueev,  S. M. Sharada,  W. Skomorowski,  D. W. Small,  C. J. Stein,  
 Yu-Chuan Su,  E. J. Sundstrom,  Zhen Tao,  J. Thirman,  T. Tsuchimochi,  
 N. M. Tubman,  S. P. Veccham,  O. Vydrov,  J. Wenzel,  J. Witte,  A. Yamada,  
 Kun Yao,  S. Yeganeh,  S. R. Yost,  A. Zech,  Igor Ying Zhang,  Xing Zhang,  
 Yu Zhang,  D. Zuev,  A. Aspuru-Guzik,  A. T. Bell,  N. A. Besley,  
 K. B. Bravaya,  B. R. Brooks,  D. Casanova,  Jeng-Da Chai,  S. Coriani,  
 C. J. Cramer,  A. E. DePrince, III,  R. A. DiStasio Jr.,  A. Dreuw,  
 B. D. Dunietz,  T. R. Furlani,  W. A. Goddard III,  S. Grimme,  
 S. Hammes-Schiffer,  T. Head-Gordon,  W. J. Hehre,  Chao-Ping Hsu,  
 T.-C. Jagau,  Yousung Jung,  A. Klamt,  Jing Kong,  D. S. Lambrecht,  
 WanZhen Liang,  N. J. Mayhall,  C. W. McCurdy,  J. B. Neaton,  
 C. Ochsenfeld,  J. A. Parkhill,  R. Peverati,  V. A. Rassolov,  Yihan Shao,  
 L. V. Slipchenko,  T. Stauch,  R. P. Steele,  J. E. Subotnik,  
 A. J. W. Thom,  A. Tkatchenko,  D. G. Truhlar,  T. Van Voorhis,  
 T. A. Wesolowski,  K. B. Whaley,  H. L. Woodcock III,  P. M. Zimmerman,  
 S. Faraji,  P. M. W. Gill,  M. Head-Gordon,  J. M. Herbert,  A. I. Krylov

 Additional authors for Version 5.4.1: 
 S. Kotaru,  Shaozhi Li,  Xiangyuan Li,  F. Matz,  A. Molle,  Haisheng Ren,  
 Yingli Su,  Hung-Yi Tsai,  C. Utku,  Fang Wang

 Contributors to earlier versions of Q-Chem not listed above: 
 R. D. Adamson,  B. Austin,  R. Baer,  J. Baker,  G. J. O. Beran,  
 K. Brandhorst,  S. T. Brown,  E. F. C. Byrd,  A. K. Chakraborty,  
 G. K. L. Chan,  Chun-Min Chang,  Yunqing Chen,  C.-L. Cheng,  
 Siu Hung Chien,  D. M. Chipman,  D. L. Crittenden,  H. Dachsel,  
 R. J. Doerksen,  A. D. Dutoi,  R. G. Edgar,  J. Fosso-Tande,  
 L. Fusti-Molnar,  D. Ghosh,  A. Ghysels,  A. Golubeva-Zadorozhnaya,  
 J. Gonthier,  M. S. Gordon,  S. R. Gwaltney,  G. Hawkins,  J. E. Herr,  
 A. Heyden,  S. Hirata,  E. G. Hohenstein,  G. Kedziora,  F. J. Keil,  
 C. Kelley,  Jihan Kim,  R. A. King,  R. Z. Khaliullin,  P. P. Korambath,  
 W. Kurlancheek,  A. Laurent,  A. M. Lee,  M. S. Lee,  S. V. Levchenko,  
 Ching Yeh Lin,  D. Liotard,  E. Livshits,  R. C. Lochan,  I. Lotan,  
 L. A. Martinez-Martinez,  P. E. Maslen,  N. Nair,  D. P. O'Neill,  
 D. Neuhauser,  E. Neuscamman,  C. M. Oana,  R. Olivares-Amaya,  R. Olson,  
 T. M. Perrine,  B. Peters,  P. A. Pieniazek,  A. Prociuk,  Y. M. Rhee,  
 J. Ritchie,  M. A. Rohrdanz,  E. Rosta,  N. J. Russ,  H. F. Schaefer III,  
 M. W. Schmidt,  N. E. Schultz,  S. Sharma,  N. Shenvi,  C. D. Sherrill,  
 A. C. Simmonett,  A. Sodt,  T. Stein,  D. Stuck,  K. S. Thanthiriwatte,  
 V. Vanovschi,  L. Vogt,  Tao Wang,  A. Warshel,  M. A. Watson,  
 C. F. Williams,  Q. Wu,  X. Xu,  Jun Yang,  W. Zhang,  Yan Zhao

 Please cite Q-Chem as follows:
 Y. Shao et al., Mol. Phys. 113, 184-215 (2015)
 DOI: 10.1080/00268976.2014.952696

 Q-Chem 5.4.1 for Intel X86 EM64T Linux

 Parts of Q-Chem use Armadillo 9.900.5 (Nocturnal Misbehaviour).
 http://arma.sourceforge.net/

 Q-Chem begins on Sat Mar 26 14:59:43 2022  

 Host: node01
0

     Scratch files written to /src/jdavis/qchem.scratch/qchem18622//
 Processing $rem in /src/tsommerfeld/qchem/config/preferences:
 Processing $rem in /home/jdavis/.qchemrc:

 Checking the input file for inconsistencies... 	...done.

--------------------------------------------------------------
User input:
--------------------------------------------------------------
$molecule
-1 1
C         0.0000000000    0.0000000000    0.8417902907
C         0.0000000000    0.0000000000   -0.4872097093
H         0.9623488518    0.0000000000    1.3363703127
H         0.9623489048    0.0000000000   -0.9817896873
H        -0.9623488518    0.0000000000    1.3363703127
H        -0.9623489048    0.0000000000   -0.9817896873
H         0.0000000000    0.0000000000   -10.4872097093
$end

$rem
   METHOD adc(3)
   BASIS gen
   PURECART 11
   EE_STATES [0,0,0,10]
   scf_convergence 8
   ADC_DAVIDSON_MAXITER 120
   ADC_DAVIDSON_MAXSUBSPACE 200
   adc_nguess_singles 100
   THRESH 14
   S2THRESH 14
   adc_davidson_conv 5
   adc_davidson_thresh 14
   THREADS 10
   MEM_TOTAL 95000
   STATE_ANALYSIS TRUE
$end
$basis
C 1
S   9   1.00
      6.665000D+03           6.920000D-04
      1.000000D+03           5.329000D-03
      2.280000D+02           2.707700D-02
      6.471000D+01           1.017180D-01
      2.106000D+01           2.747400D-01
      7.495000D+00           4.485640D-01
      2.797000D+00           2.850740D-01
      5.215000D-01           1.520400D-02
      1.596000D-01          -3.191000D-03
S   9   1.00
      6.665000D+03          -1.460000D-04
      1.000000D+03          -1.154000D-03
      2.280000D+02          -5.725000D-03
      6.471000D+01          -2.331200D-02
      2.106000D+01          -6.395500D-02
      7.495000D+00          -1.499810D-01
      2.797000D+00          -1.272620D-01
      5.215000D-01           5.445290D-01
      1.596000D-01           5.804960D-01
S   1   1.00
      1.596000D-01           1.000000D+00
S   1   1.00
      0.0469000              1.0000000
P   4   1.00
      9.439000D+00           3.810900D-02
      2.002000D+00           2.094800D-01
      5.456000D-01           5.085570D-01
      1.517000D-01           4.688420D-01
P   1   1.00
      1.517000D-01           1.000000D+00
P   1   1.00
      0.0387678      1.0000000
P   1   1.00
      0.0193839      1.0000000
D   1   1.00
      5.500000D-01           1.0000000
****
C 2
S   9   1.00
      6.665000D+03           6.920000D-04
      1.000000D+03           5.329000D-03
      2.280000D+02           2.707700D-02
      6.471000D+01           1.017180D-01
      2.106000D+01           2.747400D-01
      7.495000D+00           4.485640D-01
      2.797000D+00           2.850740D-01
      5.215000D-01           1.520400D-02
      1.596000D-01          -3.191000D-03
S   9   1.00
      6.665000D+03          -1.460000D-04
      1.000000D+03          -1.154000D-03
      2.280000D+02          -5.725000D-03
      6.471000D+01          -2.331200D-02
      2.106000D+01          -6.395500D-02
      7.495000D+00          -1.499810D-01
      2.797000D+00          -1.272620D-01
      5.215000D-01           5.445290D-01
      1.596000D-01           5.804960D-01
S   1   1.00
      1.596000D-01           1.000000D+00
S   1   1.00
      0.0469000              1.0000000
P   4   1.00
      9.439000D+00           3.810900D-02
      2.002000D+00           2.094800D-01
      5.456000D-01           5.085570D-01
      1.517000D-01           4.688420D-01
P   1   1.00
      1.517000D-01           1.000000D+00
P   1   1.00
      0.0387678      1.0000000
P   1   1.00
      0.0193839      1.0000000
D   1   1.00
      5.500000D-01           1.0000000
****
H 3
cc-pVDZ
****
H 4
cc-pVDZ
****
H 5
cc-pVDZ
****
H 6
cc-pVDZ
****
H 7
aug-cc-pVDZ
****
$end
--------------------------------------------------------------
 ----------------------------------------------------------------
             Standard Nuclear Orientation (Angstroms)
    I     Atom           X                Y                Z
 ----------------------------------------------------------------
    1      C       0.0000000000     0.0000000000     1.2918235242
    2      C       0.0000000000     0.0000000000    -0.0371764758
    3      H       0.9623488518     0.0000000000     1.7864035462
    4      H       0.9623489048     0.0000000000    -0.5317564538
    5      H      -0.9623488518     0.0000000000     1.7864035462
    6      H      -0.9623489048     0.0000000000    -0.5317564538
    7      H       0.0000000000     0.0000000000   -10.0371764758
 ----------------------------------------------------------------
 Molecular Point Group                 C2v   NOp =  4
 Largest Abelian Subgroup              C2v   NOp =  4
 Nuclear Repulsion Energy =          34.38697142 hartrees
 There are        9 alpha and        9 beta electrons
 Requested basis set is non-standard
 There are 33 shells and 67 basis functions
 Total memory of 95000 MB is distributed as follows: 
   MEM_STATIC is set to 192 MB
   QALLOC/CCMAN JOB total memory use is  94808 MB
 Warning: actual memory use might exceed 95000 MB

 Total QAlloc Memory Limit  95000 MB
 Mega-Array Size       188 MB
 MEM_STATIC part       192 MB

                       Distance Matrix (Angstroms)
             C (  1)   C (  2)   H (  3)   H (  4)   H (  5)   H (  6)
   C (  2)  1.329000
   H (  3)  1.082000  2.061931
   H (  4)  2.061931  1.082000  2.318160
   H (  5)  1.082000  2.061931  1.924698  3.013026
   H (  6)  2.061931  1.082000  3.013026  1.924698  2.318160
   H (  7) 11.329000 10.000000 11.862679  9.554011 11.862679  9.554011

 
 A cutoff of  1.0D-14 yielded    495 shell pairs
 There are      2107 function pairs (      2244 Cartesian)
 Smallest overlap matrix eigenvalue = 3.40E-04

 Scale SEOQF with 1.000000e-01/1.000000e-01/1.000000e-02

 Standard Electronic Orientation quadrupole field applied
 Nucleus-field energy     =    -0.0000000011 hartrees
 ================ Generating on-the-fly SAD Guess ================
Attempting to make child job directory: /src/jdavis/qchem.scratch/qchem18622//Frg1/
Attempting to make child job directory: /src/jdavis/qchem.scratch/qchem18622//Frg2/
Creating input file /src/jdavis/qchem.scratch/qchem18622/Frg1.input
using default PutDataFrgm: nothing
calling putenv with: QCSCRATCH=/src/jdavis/qchem.scratch/qchem18622/ 
Spawning Job For Fragment 0
Done Job For Fragment 0
calling putenv with: QCSCRATCH=/src/jdavis/qchem.scratch 
calling putenv with: QCTHREADS=1 
Creating input file /src/jdavis/qchem.scratch/qchem18622/Frg2.input
using default PutDataFrgm: nothing
calling putenv with: QCSCRATCH=/src/jdavis/qchem.scratch/qchem18622/ 
Spawning Job For Fragment 1
Done Job For Fragment 1
calling putenv with: QCSCRATCH=/src/jdavis/qchem.scratch 
calling putenv with: QCTHREADS=1 
 Time for running child jobs:  CPU 1.76 s  wall 54.34 s
 ============= Method Specific SAD Guess Constructed =============
 Guess from on-the-fly superposition of atomic densities
 Warning: Energy on first SCF cycle will be non-variational
 A restricted Hartree-Fock SCF calculation will be
 performed using Pulay DIIS extrapolation
 SCF converges when DIIS error is below 1.0E-08
 using 10 threads for integral computing
 -------------------------------------------------------
 OpenMP Integral computing Module                
 Release: version 1.0, May 2013, Q-Chem Inc. Pittsburgh 
 -------------------------------------------------------
 ---------------------------------------
  Cycle       Energy         DIIS Error
 ---------------------------------------
    1     -78.7999777732      7.36E-02
    2     -78.4466355481      6.48E-03
    3     -78.4849738344      1.48E-03
    4     -78.4869782838      4.81E-04
    5     -78.4871802653      8.41E-05
    6     -78.4872081215      2.59E-05
    7     -78.4872154120      1.55E-05
    8     -78.4872197424      6.96E-06
    9     -78.4872212074      2.61E-06
   10     -78.4872213792      3.57E-07
   11     -78.4872213812      1.11E-07
   12     -78.4872213813      2.68E-08
   13     -78.4872213813      3.30E-09 Convergence criterion met
 ---------------------------------------
 SCF time:  CPU 12.48 s  wall 1.26 s
 SCF   energy in the final basis set = -78.48722138
 Total energy in the final basis set = -78.48722138
================================================================================
|                                                                              |
|                                 A D C  M A N                                 |
|                                                                              |
 ------------------------------------------------------------------------------ 
|                                                                              |
| Components:                                                                  |
|                                                                              |
| - libvmm - 1.3-trunk                                                         |
|   Authors:                                                                   |
|   Evgeny Epifanovsky, Ilya Kaliman                                           |
|                                                                              |
| - libtensor - 2.5-trunk                                                      |
|   Authors:                                                                   |
|   Evgeny Epifanovsky, Michael Wormit, Dmitry Zuev, Sam Manzer,               |
|   Ilya Kaliman                                                               |
|                                                                              |
| - libwfa - 1.1-trunk                                                         |
|   Authors:                                                                   |
|   Felix Plasser, Stefanie Mewes (Baeppler), Benjamin Thomitzni,              |
|   Michael Wormit, Feng Chen, Anna I. Krylov, Pavel Pokhilko                  |
|                                                                              |
| - libadc - 1.1-trunk                                                         |
|   Authors:                                                                   |
|   Michael Wormit, Adrian L. Dempwolff, Philipp H. P. Harbach,                |
|   Caroline Krauter, Dirk Rehn, Matthias Schneider, Jan Wenzel                |
|                                                                              |
| - adcman - 2.6-trunk                                                         |
|   Authors:                                                                   |
|   Michael Wormit, Adrian L. Dempwolff, Philipp H. P. Harbach,                |
|   Caroline Krauter, Daniel Lefrancois, Jan-Michael Mewes, Dirk Rehn,         |
|   Matthias Schneider, Jan Wenzel, Andreas Dreuw                              |
|                                                                              |
| Authors of earlier versions of ADCMAN:                                       |
| Andreas Dreuw, Jan Hendrik Starcke, Dirk Rehn, Michael Wormit                |
|                                                                              |
================================================================================

 
 Alpha MOs, Restricted
 -- Occupied --                  
-11.186 -11.185  -0.991  -0.731  -0.610  -0.516  -0.465  -0.326
  1 A1    2 A1    3 A1    4 A1    1 B1    5 A1    2 B1    1 B2                 
  0.018
  6 A1                                                                         
 -- Virtual --                   
  0.083   0.084   0.088   0.111   0.113   0.126   0.148   0.178
  7 A1    3 B1    2 B2    4 B1    3 B2    8 A1    9 A1    4 B2                 
  0.184   0.207   0.230   0.233   0.253   0.311   0.316   0.346
 10 A1    5 B1    6 B1    5 B2   11 A1    6 B2   12 A1   13 A1                 
  0.388   0.399   0.509   0.557   0.734   0.815   0.910   0.912
  7 B1   14 A1    8 B1   15 A1   16 A1    9 B1   17 A1    7 B2                 
  0.950   0.971   0.982   1.039   1.051   1.077   1.093   1.165
 10 B1    8 B2   18 A1   19 A1   20 A1   21 A1   11 B1    1 A2                 
  1.334   1.335   1.376   1.397   1.657   1.666   1.747   1.899
  9 B2    2 A2   22 A1   12 B1   23 A1   13 B1   14 B1   10 B2                 
  1.959   1.959   1.959   1.967   1.989   2.030   2.068   2.089
 15 B1   11 B2   24 A1   25 A1   12 B2   26 A1    3 A2   16 B1                 
  2.221   2.328   2.463   2.491   2.595   2.623   2.850   2.851
 13 B2   27 A1    4 A2   28 A1   17 B1   29 A1   30 A1   18 B1                 
  3.312   3.391
 31 A1   19 B1                                                                 
 
 Beta MOs, Restricted
 -- Occupied --                  
-11.186 -11.185  -0.991  -0.731  -0.610  -0.516  -0.465  -0.326
  1 A1    2 A1    3 A1    4 A1    1 B1    5 A1    2 B1    1 B2                 
  0.018
  6 A1                                                                         
 -- Virtual --                   
  0.083   0.084   0.088   0.111   0.113   0.126   0.148   0.178
  7 A1    3 B1    2 B2    4 B1    3 B2    8 A1    9 A1    4 B2                 
  0.184   0.207   0.230   0.233   0.253   0.311   0.316   0.346
 10 A1    5 B1    6 B1    5 B2   11 A1    6 B2   12 A1   13 A1                 
  0.388   0.399   0.509   0.557   0.734   0.815   0.910   0.912
  7 B1   14 A1    8 B1   15 A1   16 A1    9 B1   17 A1    7 B2                 
  0.950   0.971   0.982   1.039   1.051   1.077   1.093   1.165
 10 B1    8 B2   18 A1   19 A1   20 A1   21 A1   11 B1    1 A2                 
  1.334   1.335   1.376   1.397   1.657   1.666   1.747   1.899
  9 B2    2 A2   22 A1   12 B1   23 A1   13 B1   14 B1   10 B2                 
  1.959   1.959   1.959   1.967   1.989   2.030   2.068   2.089
 15 B1   11 B2   24 A1   25 A1   12 B2   26 A1    3 A2   16 B1                 
  2.221   2.328   2.463   2.491   2.595   2.623   2.850   2.851
 13 B2   27 A1    4 A2   28 A1   17 B1   29 A1   30 A1   18 B1                 
  3.312   3.391
 31 A1   19 B1                                                                 

--------------------------------------------------------------------------------
                                   HF Summary                                   
--------------------------------------------------------------------------------
  Energy:                                                  -78.4872213813 a.u.
  Dip. moment [a.u.]:                  [  -0.000000,    0.000000,   18.621020]
  Total dipole [Debye]:                                              47.329921
  <r^2> [a.u.]:                        [  25.458139,   15.325892,  787.219247]
  Total <r^2> [a.u.]:                                               828.003279
--------------------------------------------------------------------------------

--------------------------------------------------------------------------------
                                 MP(2) Summary                                  
--------------------------------------------------------------------------------
  MP energy contribution:                                   -0.2978304043 a.u.
  Total energy:                                            -78.7850517855 a.u.
  Dip. moment [a.u.]:                  [   0.000000,   -0.000000,   18.538662]
  Total dipole [Debye]:                                              47.120589
  <r^2> [a.u.]:                        [  25.567686,   15.257968,  785.529245]
  Total <r^2> [a.u.]:                                               826.354899

  Density matrix analysis:
  ------------------------
  NOs
    Occupation of frontier NOs:
       0.0446   1.9373
    Number of electrons: 18.000000
    Number of unpaired electrons: n_u =  0.43356, n_u,nl =  0.04675
    NO participation ratio (PR_NO): 15.435615
  
  
  Mulliken Population Analysis
  Atom      Charge (e)              h+              e-           Del q
  --------------------------------------------------------------------
   1 C       -0.170770        0.095168       -0.105585       -0.010417
   2 C       -0.189350        0.089179       -0.112919       -0.023739
   3 H        0.077566        0.017589       -0.010508        0.007081
   4 H        0.089476        0.017440       -0.010355        0.007085
   5 H        0.077566        0.017589       -0.010508        0.007081
   6 H        0.089476        0.017440       -0.010355        0.007085
   7 H       -0.973962        0.030208       -0.024385        0.005824
  --------------------------------------------------------------------
  Sum:       -1.000000        0.284614       -0.284614       -0.000000
  
  Multipole moment analysis of the density matrix
    Molecular charge:                      -1.000000
    Number of electrons:                   18.000000
      Center of electronic charge [Ang]: [ -0.000000,   0.000000,  -0.545013]
    Total nuclear charge:                  17.000000
      Center of nuclear charge [Ang]:    [ -0.000000,   0.000000,  -0.000000]
    Dipole moment [D]:                     47.120575
      Cartesian components [D]:          [  0.000000,  -0.000000,  47.120575]
    RMS size of the density [Ang]:         3.543823
      Cartesian components [Ang]:        [  0.630682,   0.487207,   3.453049]
  
  Exciton analysis of the difference density matrix
    <r_h> [Ang]:                  [ -0.000000,  -0.000000,  -0.503283]
    <r_e> [Ang]:                  [ -0.000000,   0.000000,  -0.350156]
    |<r_e - r_h>| [Ang]:            0.153126
    Hole size [Ang]:                3.680114
      Cartesian components [Ang]: [  0.835693,   0.849555,   3.481826]
    Electron size [Ang]:            3.471613
      Cartesian components [Ang]: [  0.897867,   0.809267,   3.254385]
--------------------------------------------------------------------------------

--------------------------------------------------------------------------------
                                 MP(3) Summary                                  
--------------------------------------------------------------------------------
  MP energy contribution:                                   -0.0280283596 a.u.
  Total energy:                                            -78.8130801452 a.u.
--------------------------------------------------------------------------------
  Starting Davidson for singlet states of irrep B2 ... 
--------------------------------------------------------------------------------
   It NVec Conv  Avg. Norm  Max. Norm  Conv. states           Remark
--------------------------------------------------------------------------------
       100    0  8.883e-02  4.223e-01  0.0456 n n n n n n n n Guess.
    1  110    0  3.658e-02  2.706e-01  0.0142 n n n n n n n n 
    2  120    0  2.620e-02  2.034e-01  0.0139 n n n n n n n n 
    3  130    0  2.378e-02  1.635e-01  0.0139 n n n n n n n n 
    4  140    0  9.803e-03  6.194e-02  0.0139 n n n n n n n n 
    5  150    0  6.409e-03  4.344e-02  0.0138 n n n n n n n n 
    6  160    1  8.288e-03  6.950e-02  0.0138 y n n n n n n n 
    7  170    2  3.587e-03  3.318e-02  0.0138 y y n n n n n n 
    8  180    4  2.475e-03  2.018e-02  0.0138 y y y y n n n n 
    9  190    4  3.385e-03  3.248e-02  0.0138 y y y y n n n n 
   10  200    5  1.688e-03  1.336e-02  0.0138 y y y y n n y n 
   11   20    7  6.933e-04  5.104e-03  0.0138 y y y y y y y n Subspace collapsed.
   12   30    7  5.385e-04  3.803e-03  0.0138 y y y y y y y n 
   13   40    7  3.405e-04  2.461e-03  0.0138 y y y y y y y n 
   14   50    7  1.821e-04  1.293e-03  0.0138 y y y y y y y n 
   15   60    7  1.441e-04  1.028e-03  0.0138 y y y y y y y n 
   16   70    7  8.719e-05  6.218e-04  0.0138 y y y y y y y n 
   17   80    7  5.386e-05  3.868e-04  0.0138 y y y y y y y n 
   18   90    7  3.793e-05  2.738e-04  0.0138 y y y y y y y n 
   19  100    8  2.491e-05  1.778e-04  0.0138 y y y y y y y y 
   20  110    8  1.684e-05  1.231e-04  0.0138 y y y y y y y y 
   21  119    8  1.074e-05  8.310e-05  0.0138 y y y y y y y y 
   22  127    8  5.073e-06  4.035e-05  0.0138 y y y y y y y y 
   23  135    8  1.943e-06  1.556e-05  0.0138 y y y y y y y y 
   24  142   10  6.465e-07  5.227e-06  0.0138 y y y y y y y y Converged.
--------------------------------------------------------------------------------
  Davidson Summary: 
 ------------------------------------------------------------
  State  0: excitation energy =   0.0138 a.u.   (converged)
  State  1: excitation energy =   0.0265 a.u.   (converged)
  State  2: excitation energy =   0.0732 a.u.   (converged)
  State  3: excitation energy =   0.1430 a.u.   (converged)
  State  4: excitation energy =   0.1630 a.u.   (converged)
  State  5: excitation energy =   0.1756 a.u.   (converged)
  State  6: excitation energy =   0.1993 a.u.   (converged)
  State  7: excitation energy =   0.2580 a.u.   (converged)
  State  8: excitation energy =   0.2703 a.u.   (converged)
  State  9: excitation energy =   0.2715 a.u.   (converged)
 ------------------------------------------------------------


--------------------------------------------------------------------------------
                   State-averaged natural transition orbitals
--------------------------------------------------------------------------------
--------------------------------------------------------------------------------

--------------------------------------------------------------------------------
                             Excited State Summary
--------------------------------------------------------------------------------
--------------------------------------------------------------------------------

  Excited state 1 (singlet, B2)                                    [converged]
  ----------------------------------------------------------------------------
  Term symbol:  1 (1) B2                                    R^2 =  4.56577e-15

  Total energy:                                            -78.7992301479 a.u.
  Excitation energy:                                               0.376878 eV

  Osc. strength:                                                      0.000078
  Trans. dip. moment [a.u.]:           [  -0.000000,   -0.091881,    0.000000]
  <i|r^2|0> [a.u.]:                    [  -0.000000,   -0.000000,    0.000000]

  Dip. moment [a.u.]:                  [   0.000000,   -0.000000,   -1.217597]
  Total dipole [Debye]:                                               3.094825
  <r^2> [a.u.]:                        [  41.299632,   66.960475,  450.571547]
  Total <r^2> [a.u.]:                                               558.831654

  V1^2 = 0.9495, V2^2 = 0.0505

  Important amplitudes:
      occ i      occ j       vir a       vir b          v   
    ---------------------------------------------------------
     6 (A1) A               2 (B2) A                 -0.6280
     6 (A1) A               3 (B2) A                 -0.2824
    ---------------------------------------------------------

  Density matrix analysis:
  ------------------------
  NOs
    Occupation of frontier NOs:
       0.9976   1.0007
    Number of electrons: 18.000000
    Number of unpaired electrons: n_u =  2.41110, n_u,nl =  2.04725
    NO participation ratio (PR_NO):  2.897790
  
  
  Mulliken Population Analysis
  Atom      Charge (e)              h+              e-           Del q
  --------------------------------------------------------------------
   1 C       -0.645595        0.024193       -0.499018       -0.474825
   2 C       -0.655451        0.063411       -0.529512       -0.466101
   3 H        0.074437       -0.001281       -0.001848       -0.003129
   4 H        0.074827       -0.000498       -0.014151       -0.014649
   5 H        0.074437       -0.001281       -0.001848       -0.003129
   6 H        0.074827       -0.000498       -0.014151       -0.014649
   7 H        0.002520        1.039746       -0.063264        0.976482
  --------------------------------------------------------------------
  Sum:       -1.000000        1.123792       -1.123792        0.000000
  
  Multipole moment analysis of the density matrix
    Molecular charge:                      -1.000000
    Number of electrons:                   18.000000
      Center of electronic charge [Ang]: [ -0.000000,   0.000000,   0.035796]
    Total nuclear charge:                  17.000000
      Center of nuclear charge [Ang]:    [ -0.000000,   0.000000,  -0.000000]
    Dipole moment [D]:                     3.094824
      Cartesian components [D]:          [  0.000000,  -0.000000,  -3.094824]
    RMS size of the density [Ang]:         2.948312
      Cartesian components [Ang]:        [  0.801564,   1.020644,   2.647324]
  
  Exciton analysis of the difference density matrix
    <r_h> [Ang]:                  [ -0.000000,   0.000000,  -9.364039]
    <r_e> [Ang]:                  [ -0.000000,   0.000000,  -0.061109]
    |<r_e - r_h>| [Ang]:            9.302931
    Hole size [Ang]:                2.874538
      Cartesian components [Ang]: [  0.856590,   0.860814,   2.605422]
    Electron size [Ang]:            5.411337
      Cartesian components [Ang]: [  2.157281,   3.691114,   3.317286]

  Transition density matrix analysis:
  -----------------------------------
  
  CT numbers (Mulliken)
    omega =     0.9433
    <Phe> =     0.0041
  
  Exciton analysis of the transition density matrix
    Trans. dipole moment [D]:             0.116769
      Cartesian components [D]:         [ -0.000000,  -0.116769,   0.000000]
    <r_h> [Ang]:                        [ -0.000000,  -0.000000,  -9.939739]
    <r_e> [Ang]:                        [ -0.000000,   0.000000,   0.621067]
    |<r_e - r_h>| [Ang]:                 10.560806
    Hole size [Ang]:                      1.500792
      Cartesian components [Ang]:       [  0.700250,   0.700502,   1.127530]
    Electron size [Ang]:                  5.046787
      Cartesian components [Ang]:       [  2.248988,   3.895381,   2.288692]
    RMS electron-hole separation [Ang]:  11.800730
      Cartesian components [Ang]:       [  2.355482,   3.957855,  10.864820]
    Covariance(r_h, r_e) [Ang^2]:        -0.002084
    Correlation coefficient:             -0.000275
    Center-of-mass size [Ang]:            2.632407
      Cartesian components [Ang]:       [  1.177741,   1.978938,   1.275264]

  Decomposition into state-averaged NTOs
    H- 0 -> L+ 1:  0.4670 ( 43.6%)
    H- 0 -> L+ 0: -0.4611 ( 42.5%)
    H- 0 -> L+ 3: -0.1977 (  7.8%)
                   omega =  94.3%
  ----------------------------------------------------------------------------


  Excited state 2 (singlet, B2)                                    [converged]
  ----------------------------------------------------------------------------
  Term symbol:  2 (1) B2                                    R^2 =  3.86772e-15

  Total energy:                                            -78.7865583703 a.u.
  Excitation energy:                                               0.721694 eV

  Osc. strength:                                                      0.006403
  Trans. dip. moment [a.u.]:           [   0.000000,   -0.601781,    0.000000]
  <i|r^2|0> [a.u.]:                    [   0.000000,    0.000000,    0.000000]

  Dip. moment [a.u.]:                  [   0.000000,   -0.000000,   -1.233267]
  Total dipole [Debye]:                                               3.134652
  <r^2> [a.u.]:                        [  37.908564,   56.681231,  476.319248]
  Total <r^2> [a.u.]:                                               570.909042

  V1^2 = 0.9472, V2^2 = 0.0528

  Important amplitudes:
      occ i      occ j       vir a       vir b          v   
    ---------------------------------------------------------
     6 (A1) A               3 (B2) A                  0.6259
     6 (A1) A               2 (B2) A                 -0.2793
    ---------------------------------------------------------

  Density matrix analysis:
  ------------------------
  NOs
    Occupation of frontier NOs:
       0.9960   1.0005
    Number of electrons: 18.000000
    Number of unpaired electrons: n_u =  2.41428, n_u,nl =  2.04769
    NO participation ratio (PR_NO):  2.909324
  
  
  Mulliken Population Analysis
  Atom      Charge (e)              h+              e-           Del q
  --------------------------------------------------------------------
   1 C       -0.656398        0.023967       -0.509594       -0.485628
   2 C       -0.655223        0.065589       -0.531462       -0.465873
   3 H        0.077115        0.001249       -0.001699       -0.000451
   4 H        0.077417        0.000541       -0.012599       -0.012058
   5 H        0.077115        0.001249       -0.001699       -0.000451
   6 H        0.077417        0.000541       -0.012599       -0.012058
   7 H        0.002556        1.039433       -0.062914        0.976519
  --------------------------------------------------------------------
  Sum:       -1.000000        1.132568       -1.132568        0.000000
  
  Multipole moment analysis of the density matrix
    Molecular charge:                      -1.000000
    Number of electrons:                   18.000000
      Center of electronic charge [Ang]: [ -0.000000,   0.000000,   0.036256]
    Total nuclear charge:                  17.000000
      Center of nuclear charge [Ang]:    [ -0.000000,   0.000000,  -0.000000]
    Dipole moment [D]:                     3.134651
      Cartesian components [D]:          [  0.000000,  -0.000000,  -3.134651]
    RMS size of the density [Ang]:         2.980000
      Cartesian components [Ang]:        [  0.767951,   0.939041,   2.721920]
  
  Exciton analysis of the difference density matrix
    <r_h> [Ang]:                  [ -0.000000,  -0.000000,  -9.281032]
    <r_e> [Ang]:                  [ -0.000000,   0.000000,  -0.042860]
    |<r_e - r_h>| [Ang]:            9.238172
    Hole size [Ang]:                3.018283
      Cartesian components [Ang]: [  0.862497,   0.875657,   2.756693]
    Electron size [Ang]:            5.664494
      Cartesian components [Ang]: [  1.948126,   3.317939,   4.157231]

  Transition density matrix analysis:
  -----------------------------------
  
  CT numbers (Mulliken)
    omega =     0.9404
    <Phe> =     0.0058
  
  Exciton analysis of the transition density matrix
    Trans. dipole moment [D]:             0.764788
      Cartesian components [D]:         [  0.000000,  -0.764788,   0.000000]
    <r_h> [Ang]:                        [ -0.000000,  -0.000000,  -9.939713]
    <r_e> [Ang]:                        [ -0.000000,   0.000000,   0.627948]
    |<r_e - r_h>| [Ang]:                 10.567662
    Hole size [Ang]:                      1.500911
      Cartesian components [Ang]:       [  0.700253,   0.700527,   1.127671]
    Electron size [Ang]:                  5.372186
      Cartesian components [Ang]:       [  2.023129,   3.503711,   3.534309]
    RMS electron-hole separation [Ang]:  11.949486
      Cartesian components [Ang]:       [  2.140889,   3.572937,  11.200041]
    Covariance(r_h, r_e) [Ang^2]:        -0.000806
    Correlation coefficient:             -0.000100
    Center-of-mass size [Ang]:            2.788884
      Cartesian components [Ang]:       [  1.070445,   1.786588,   1.854759]

  Decomposition into state-averaged NTOs
    H- 0 -> L+ 0:  0.4557 ( 41.5%)
    H- 0 -> L+ 1:  0.4390 ( 38.5%)
    H- 0 -> L+ 2:  0.2355 ( 11.1%)
    H- 0 -> L+ 4: -0.0930 (  1.7%)
    H- 0 -> L+ 3: -0.0760 (  1.2%)
                   omega =  94.0%
  ----------------------------------------------------------------------------


  Excited state 3 (singlet, B2)                                    [converged]
  ----------------------------------------------------------------------------
  Term symbol:  3 (1) B2                                    R^2 =  6.25213e-15

  Total energy:                                            -78.7398870151 a.u.
  Excitation energy:                                               1.991686 eV

  Osc. strength:                                                      0.001863
  Trans. dip. moment [a.u.]:           [  -0.000000,    0.195416,   -0.000000]
  <i|r^2|0> [a.u.]:                    [   0.000000,    0.000000,   -0.000000]

  Dip. moment [a.u.]:                  [   0.000000,    0.000000,   -1.235752]
  Total dipole [Debye]:                                               3.140969
  <r^2> [a.u.]:                        [  29.781633,   29.406480,  448.794707]
  Total <r^2> [a.u.]:                                               507.982820

  V1^2 = 0.8982, V2^2 = 0.1018

  Important amplitudes:
      occ i      occ j       vir a       vir b          v   
    ---------------------------------------------------------
     6 (A1) A               4 (B2) A                 -0.6549
     6 (A1) A               6 (B2) A                 -0.1088
    ---------------------------------------------------------

  Density matrix analysis:
  ------------------------
  NOs
    Occupation of frontier NOs:
       0.9844   0.9976
    Number of electrons: 18.000000
    Number of unpaired electrons: n_u =  2.44209, n_u,nl =  2.05215
    NO participation ratio (PR_NO):  3.015013
  
  
  Mulliken Population Analysis
  Atom      Charge (e)              h+              e-           Del q
  --------------------------------------------------------------------
   1 C       -0.558730        0.178913       -0.566873       -0.387960
   2 C       -0.564653        0.240355       -0.615658       -0.375303
   3 H        0.029634        0.008683       -0.056615       -0.047932
   4 H        0.030390        0.008842       -0.067928       -0.059085
   5 H        0.029634        0.008683       -0.056615       -0.047932
   6 H        0.030390        0.008842       -0.067928       -0.059085
   7 H        0.003335        1.030783       -0.053485        0.977297
  --------------------------------------------------------------------
  Sum:       -1.000000        1.485102       -1.485102        0.000000
  
  Multipole moment analysis of the density matrix
    Molecular charge:                      -1.000000
    Number of electrons:                   18.000000
      Center of electronic charge [Ang]: [ -0.000000,  -0.000000,   0.036330]
    Total nuclear charge:                  17.000000
      Center of nuclear charge [Ang]:    [ -0.000000,   0.000000,  -0.000000]
    Dipole moment [D]:                     3.140968
      Cartesian components [D]:          [  0.000000,   0.000000,  -3.140968]
    RMS size of the density [Ang]:         2.810950
      Cartesian components [Ang]:        [  0.680674,   0.676373,   2.642090]
  
  Exciton analysis of the difference density matrix
    <r_h> [Ang]:                  [ -0.000000,   0.000000,  -6.873344]
    <r_e> [Ang]:                  [ -0.000000,  -0.000000,   0.172752]
    |<r_e - r_h>| [Ang]:            7.046096
    Hole size [Ang]:                5.065805
      Cartesian components [Ang]: [  0.875596,   0.925452,   4.902984]
    Electron size [Ang]:            3.583802
      Cartesian components [Ang]: [  1.249498,   1.877307,   2.785339]

  Transition density matrix analysis:
  -----------------------------------
  
  CT numbers (Mulliken)
    omega =     0.8814
    <Phe> =     0.0004
  
  Exciton analysis of the transition density matrix
    Trans. dipole moment [D]:             0.248349
      Cartesian components [D]:         [ -0.000000,   0.248349,  -0.000000]
    <r_h> [Ang]:                        [ -0.000000,  -0.000000,  -9.940053]
    <r_e> [Ang]:                        [ -0.000000,  -0.000000,   0.616732]
    |<r_e - r_h>| [Ang]:                 10.556786
    Hole size [Ang]:                      1.499307
      Cartesian components [Ang]:       [  0.699890,   0.700106,   1.126022]
    Electron size [Ang]:                  3.229427
      Cartesian components [Ang]:       [  1.210561,   2.083438,   2.150122]
    RMS electron-hole separation [Ang]:  11.141053
      Cartesian components [Ang]:       [  1.398319,   2.197868,  10.832227]
    Covariance(r_h, r_e) [Ang^2]:        -0.000108
    Correlation coefficient:             -0.000022
    Center-of-mass size [Ang]:            1.780232
      Cartesian components [Ang]:       [  0.699162,   1.098988,   1.213516]

  Decomposition into state-averaged NTOs
    H- 0 -> L+ 2:  0.4388 ( 38.5%)
    H- 0 -> L+ 4: -0.4041 ( 32.7%)
    H- 0 -> L+ 1: -0.1870 (  7.0%)
    H- 0 -> L+ 0: -0.1708 (  5.8%)
    H- 0 -> L+ 3: -0.1440 (  4.1%)
                   omega =  88.1%
  ----------------------------------------------------------------------------


  Excited state 4 (singlet, B2)                                    [converged]
  ----------------------------------------------------------------------------
  Term symbol:  4 (1) B2                                    R^2 =  1.64399e-14

  Total energy:                                            -78.6700919026 a.u.
  Excitation energy:                                               3.890908 eV

  Osc. strength:                                                      0.000124
  Trans. dip. moment [a.u.]:           [   0.000000,   -0.036120,   -0.000000]
  <i|r^2|0> [a.u.]:                    [   0.000000,    0.000000,   -0.000000]

  Dip. moment [a.u.]:                  [   0.000000,   -0.000000,   -1.228841]
  Total dipole [Debye]:                                               3.123404
  <r^2> [a.u.]:                        [  34.012802,   44.121690,  442.922896]
  Total <r^2> [a.u.]:                                               521.057388

  V1^2 = 0.9337, V2^2 = 0.0663

  Important amplitudes:
      occ i      occ j       vir a       vir b          v   
    ---------------------------------------------------------
     6 (A1) A               5 (B2) A                 -0.6796
     6 (A1) A   6 (A1) B   20 (A1) A    5 (B2) B      0.0665
    ---------------------------------------------------------

  Density matrix analysis:
  ------------------------
  NOs
    Occupation of frontier NOs:
       0.9833   0.9997
    Number of electrons: 18.000000
    Number of unpaired electrons: n_u =  2.43880, n_u,nl =  2.05763
    NO participation ratio (PR_NO):  3.001502
  
  
  Mulliken Population Analysis
  Atom      Charge (e)              h+              e-           Del q
  --------------------------------------------------------------------
   1 C       -0.606081        0.064750       -0.500061       -0.435311
   2 C       -0.612221        0.111452       -0.534323       -0.422871
   3 H        0.053563       -0.001439       -0.022564       -0.024003
   4 H        0.054203       -0.000775       -0.034498       -0.035273
   5 H        0.053563       -0.001439       -0.022564       -0.024003
   6 H        0.054203       -0.000775       -0.034498       -0.035273
   7 H        0.002771        1.036379       -0.059646        0.976733
  --------------------------------------------------------------------
  Sum:       -1.000000        1.208153       -1.208153        0.000000
  
  Multipole moment analysis of the density matrix
    Molecular charge:                      -1.000000
    Number of electrons:                   18.000000
      Center of electronic charge [Ang]: [ -0.000000,   0.000000,   0.036126]
    Total nuclear charge:                  17.000000
      Center of nuclear charge [Ang]:    [ -0.000000,   0.000000,  -0.000000]
    Dipole moment [D]:                     3.123403
      Cartesian components [D]:          [  0.000000,  -0.000000,  -3.123403]
    RMS size of the density [Ang]:         2.846903
      Cartesian components [Ang]:        [  0.727421,   0.828497,   2.624749]
  
  Exciton analysis of the difference density matrix
    <r_h> [Ang]:                  [ -0.000000,  -0.000000,  -8.641634]
    <r_e> [Ang]:                  [ -0.000000,   0.000000,   0.016635]
    |<r_e - r_h>| [Ang]:            8.658269
    Hole size [Ang]:                3.811345
      Cartesian components [Ang]: [  0.862409,   0.871654,   3.608715]
    Electron size [Ang]:            4.294339
      Cartesian components [Ang]: [  1.643526,   2.729447,   2.879285]

  Transition density matrix analysis:
  -----------------------------------
  
  CT numbers (Mulliken)
    omega =     0.9263
    <Phe> =     0.0005
  
  Exciton analysis of the transition density matrix
    Trans. dipole moment [D]:             0.045904
      Cartesian components [D]:         [  0.000000,  -0.045904,  -0.000000]
    <r_h> [Ang]:                        [ -0.000000,  -0.000000,  -9.938355]
    <r_e> [Ang]:                        [ -0.000000,   0.000000,   0.623215]
    |<r_e - r_h>| [Ang]:                 10.561570
    Hole size [Ang]:                      1.505437
      Cartesian components [Ang]:       [  0.700038,   0.700308,   1.133956]
    Electron size [Ang]:                  3.838839
      Cartesian components [Ang]:       [  1.712659,   2.965608,   1.734546]
    RMS electron-hole separation [Ang]:  11.339568
      Cartesian components [Ang]:       [  1.850204,   3.047147,  10.764639]
    Covariance(r_h, r_e) [Ang^2]:        -0.018012
    Correlation coefficient:             -0.003117
    Center-of-mass size [Ang]:            2.059551
      Cartesian components [Ang]:       [  0.925102,   1.523599,   1.031785]

  Decomposition into state-averaged NTOs
    H- 0 -> L+ 3: -0.6163 ( 76.0%)
    H- 0 -> L+ 2: -0.2048 (  8.4%)
    H- 0 -> L+ 1: -0.1446 (  4.2%)
    H- 0 -> L+ 0:  0.1429 (  4.1%)
                   omega =  92.6%
  ----------------------------------------------------------------------------


  Excited state 5 (singlet, B2)                                    [converged]
  ----------------------------------------------------------------------------
  Term symbol:  5 (1) B2                                    R^2 =  5.61033e-13

  Total energy:                                            -78.6500442446 a.u.
  Excitation energy:                                               4.436432 eV

  Osc. strength:                                                      0.000064
  Trans. dip. moment [a.u.]:           [  -0.000000,   -0.024295,    0.000000]
  <i|r^2|0> [a.u.]:                    [  -0.000000,   -0.000000,    0.000000]

  Dip. moment [a.u.]:                  [   0.000000,    0.000000,   -1.307971]
  Total dipole [Debye]:                                               3.324531
  <r^2> [a.u.]:                        [  41.773491,   67.115953,  449.741712]
  Total <r^2> [a.u.]:                                               558.631156

  V1^2 = 0.0589, V2^2 = 0.9411

  Important amplitudes:
      occ i      occ j       vir a       vir b          v   
    ---------------------------------------------------------
     6 (A1) A   1 (B2) B    4 (B2) A    2 (B2) B      0.2037
     6 (A1) A               6 (B2) A                 -0.1347
    ---------------------------------------------------------

  Density matrix analysis:
  ------------------------
  NOs
    Occupation of frontier NOs:
       0.9728   0.9861
    Number of electrons: 18.000000
    Number of unpaired electrons: n_u =  4.26343, n_u,nl =  4.02776
    NO participation ratio (PR_NO):  4.840357
  
  
  Mulliken Population Analysis
  Atom      Charge (e)              h+              e-           Del q
  --------------------------------------------------------------------
   1 C       -0.607594        0.474314       -0.911138       -0.436824
   2 C       -0.728407        0.468761       -1.007818       -0.539057
   3 H        0.074731        0.002773       -0.005608       -0.002835
   4 H        0.085715        0.002609       -0.006369       -0.003761
   5 H        0.074731        0.002773       -0.005608       -0.002835
   6 H        0.085715        0.002609       -0.006369       -0.003761
   7 H        0.015110        0.991100       -0.002027        0.989073
  --------------------------------------------------------------------
  Sum:       -1.000000        1.944938       -1.944938        0.000000
  
  Multipole moment analysis of the density matrix
    Molecular charge:                      -1.000000
    Number of electrons:                   18.000000
      Center of electronic charge [Ang]: [ -0.000000,  -0.000000,   0.038453]
    Total nuclear charge:                  17.000000
      Center of nuclear charge [Ang]:    [ -0.000000,   0.000000,  -0.000000]
    Dipole moment [D]:                     3.324530
      Cartesian components [D]:          [  0.000000,   0.000000,  -3.324530]
    RMS size of the density [Ang]:         2.947749
      Cartesian components [Ang]:        [  0.806149,   1.021828,   2.644847]
  
  Exciton analysis of the difference density matrix
    <r_h> [Ang]:                  [ -0.000000,   0.000000,  -4.823167]
    <r_e> [Ang]:                  [ -0.000000,  -0.000000,   0.576690]
    |<r_e - r_h>| [Ang]:            5.399857
    Hole size [Ang]:                5.466848
      Cartesian components [Ang]: [  0.614782,   0.783849,   5.375319]
    Electron size [Ang]:            3.777623
      Cartesian components [Ang]: [  1.646584,   2.842681,   1.865037]

  Transition density matrix analysis:
  -----------------------------------
  
  CT numbers (Mulliken)
    omega =     0.0585
    <Phe> =     0.0004
  
  Exciton analysis of the transition density matrix
    Trans. dipole moment [D]:             0.030876
      Cartesian components [D]:         [ -0.000000,  -0.030876,   0.000000]
    <r_h> [Ang]:                        [ -0.000000,  -0.000000,  -9.939946]
    <r_e> [Ang]:                        [ -0.000000,  -0.000000,   0.608377]
    |<r_e - r_h>| [Ang]:                 10.548323
    Hole size [Ang]:                      1.499881
      Cartesian components [Ang]:       [  0.700070,   0.700290,   1.126560]
    Electron size [Ang]:                  4.139642
      Cartesian components [Ang]:       [  1.559658,   2.700885,   2.722007]
    RMS electron-hole separation [Ang]:  11.430384
      Cartesian components [Ang]:       [  1.709570,   2.790182,  10.951983]
    Covariance(r_h, r_e) [Ang^2]:        -0.000138
    Correlation coefficient:             -0.000022
    Center-of-mass size [Ang]:            2.201477
      Cartesian components [Ang]:       [  0.854785,   1.395104,   1.472932]

  Decomposition into state-averaged NTOs
    H- 0 -> L+ 2: -0.1469 (  4.3%)
                   omega =   5.8%
  ----------------------------------------------------------------------------


  Excited state 6 (singlet, B2)                                    [converged]
  ----------------------------------------------------------------------------
  Term symbol:  6 (1) B2                                    R^2 =  1.42372e-12

  Total energy:                                            -78.6375195158 a.u.
  Excitation energy:                                               4.777248 eV

  Osc. strength:                                                      0.000000
  Trans. dip. moment [a.u.]:           [  -0.000000,   -0.000019,   -0.000000]
  <i|r^2|0> [a.u.]:                    [   0.000000,    0.000000,   -0.000000]

  Dip. moment [a.u.]:                  [   0.000000,    0.000000,   -1.551004]
  Total dipole [Debye]:                                               3.942259
  <r^2> [a.u.]:                        [  39.464089,   60.148682,  477.863729]
  Total <r^2> [a.u.]:                                               577.476500

  V1^2 = 0.0001, V2^2 = 0.9999

  Important amplitudes:
      occ i      occ j       vir a       vir b          v   
    ---------------------------------------------------------
     6 (A1) A   1 (B2) B    4 (B2) A    3 (B2) B      0.2073
     6 (A1) A   1 (B2) B    6 (B2) A    3 (B2) B      0.1365
    ---------------------------------------------------------

  Density matrix analysis:
  ------------------------
  NOs
    Occupation of frontier NOs:
       0.9448   0.9880
    Number of electrons: 18.000000
    Number of unpaired electrons: n_u =  3.75718, n_u,nl =  3.76887
    NO participation ratio (PR_NO):  4.723268
  
  
  Mulliken Population Analysis
  Atom      Charge (e)              h+              e-           Del q
  --------------------------------------------------------------------
   1 C       -0.687688        0.501819       -1.018738       -0.516918
   2 C       -0.656325        0.495277       -0.962252       -0.466975
   3 H        0.076244        0.003321       -0.004643       -0.001322
   4 H        0.087802        0.003112       -0.004785       -0.001673
   5 H        0.076244        0.003321       -0.004643       -0.001322
   6 H        0.087802        0.003112       -0.004785       -0.001673
   7 H        0.015922        0.989898       -0.000014        0.989884
  --------------------------------------------------------------------
  Sum:       -1.000000        1.999859       -1.999859        0.000000
  
  Multipole moment analysis of the density matrix
    Molecular charge:                      -1.000000
    Number of electrons:                   18.000000
      Center of electronic charge [Ang]: [ -0.000000,  -0.000000,   0.045598]
    Total nuclear charge:                  17.000000
      Center of nuclear charge [Ang]:    [ -0.000000,   0.000000,  -0.000000]
    Dipole moment [D]:                     3.942258
      Cartesian components [D]:          [  0.000000,   0.000000,  -3.942258]
    RMS size of the density [Ang]:         2.996966
      Cartesian components [Ang]:        [  0.783549,   0.967337,   2.726190]
  
  Exciton analysis of the difference density matrix
    <r_h> [Ang]:                  [  0.000000,   0.000000,  -4.664325]
    <r_e> [Ang]:                  [ -0.000000,  -0.000000,   0.651546]
    |<r_e - r_h>| [Ang]:            5.315871
    Hole size [Ang]:                5.466780
      Cartesian components [Ang]: [  0.603465,   0.778473,   5.377313]
    Electron size [Ang]:            4.045754
      Cartesian components [Ang]: [  1.519869,   2.625224,   2.676998]

  Transition density matrix analysis:
  -----------------------------------
  
  CT numbers (Mulliken)
    omega =     0.0002
    <Phe> =    -0.0220
  
  Exciton analysis of the transition density matrix
    Trans. dipole moment [D]:             0.000024
      Cartesian components [D]:         [ -0.000000,  -0.000024,  -0.000000]
    <r_h> [Ang]:                        [ -0.000000,   0.000000,  -5.580934]
    <r_e> [Ang]:                        [ -0.000000,  -0.000000,  -3.406037]
    |<r_e - r_h>| [Ang]:                  2.174897
    Hole size [Ang]:                      5.392588
      Cartesian components [Ang]:       [  0.629869,   0.773561,   5.299516]
    Electron size [Ang]:                  6.117427
      Cartesian components [Ang]:       [  1.226929,   2.035090,   5.637017]
    RMS electron-hole separation [Ang]:  11.300288
      Cartesian components [Ang]:       [  1.379161,   2.175956,  11.002710]
    Covariance(r_h, r_e) [Ang^2]:       -28.231708
    Correlation coefficient:             -0.855798
    Center-of-mass size [Ang]:            1.584258
      Cartesian components [Ang]:       [  0.689583,   1.089173,   0.920897]

  Decomposition into state-averaged NTOs
                   omega =   0.0%
  ----------------------------------------------------------------------------


  Excited state 7 (singlet, B2)                                    [converged]
  ----------------------------------------------------------------------------
  Term symbol:  7 (1) B2                                    R^2 =  1.15686e-12

  Total energy:                                            -78.6137949767 a.u.
  Excitation energy:                                               5.422825 eV

  Osc. strength:                                                      0.000637
  Trans. dip. moment [a.u.]:           [   0.000000,    0.069240,   -0.000000]
  <i|r^2|0> [a.u.]:                    [   0.000000,    0.000000,   -0.000000]

  Dip. moment [a.u.]:                  [   0.000000,   -0.000000,   -1.250616]
  Total dipole [Debye]:                                               3.178750
  <r^2> [a.u.]:                        [  31.820527,   36.257916,  452.103781]
  Total <r^2> [a.u.]:                                               520.182224

  V1^2 = 0.8355, V2^2 = 0.1645

  Important amplitudes:
      occ i      occ j       vir a       vir b          v   
    ---------------------------------------------------------
     6 (A1) A               6 (B2) A                  0.6334
     6 (A1) A               4 (B2) A                 -0.1221
    ---------------------------------------------------------

  Density matrix analysis:
  ------------------------
  NOs
    Occupation of frontier NOs:
       0.9046   0.9945
    Number of electrons: 18.000000
    Number of unpaired electrons: n_u =  2.61598, n_u,nl =  2.16610
    NO participation ratio (PR_NO):  3.681252
  
  
  Mulliken Population Analysis
  Atom      Charge (e)              h+              e-           Del q
  --------------------------------------------------------------------
   1 C       -0.574436        0.156472       -0.560138       -0.403666
   2 C       -0.583643        0.198213       -0.592506       -0.394293
   3 H        0.037688        0.002440       -0.042317       -0.039877
   4 H        0.039234        0.002606       -0.052848       -0.050242
   5 H        0.037688        0.002440       -0.042317       -0.039877
   6 H        0.039234        0.002606       -0.052848       -0.050242
   7 H        0.004235        1.026438       -0.048241        0.978197
  --------------------------------------------------------------------
  Sum:       -1.000000        1.391214       -1.391214        0.000000
  
  Multipole moment analysis of the density matrix
    Molecular charge:                      -1.000000
    Number of electrons:                   18.000000
      Center of electronic charge [Ang]: [ -0.000000,   0.000000,   0.036767]
    Total nuclear charge:                  17.000000
      Center of nuclear charge [Ang]:    [ -0.000000,   0.000000,  -0.000000]
    Dipole moment [D]:                     3.178749
      Cartesian components [D]:          [  0.000000,  -0.000000,  -3.178749]
    RMS size of the density [Ang]:         2.844503
      Cartesian components [Ang]:        [  0.703588,   0.751046,   2.651809]
  
  Exciton analysis of the difference density matrix
    <r_h> [Ang]:                  [ -0.000000,   0.000000,  -7.332289]
    <r_e> [Ang]:                  [ -0.000000,  -0.000000,   0.194978]
    |<r_e - r_h>| [Ang]:            7.527267
    Hole size [Ang]:                4.858596
      Cartesian components [Ang]: [  0.876167,   0.979432,   4.677500]
    Electron size [Ang]:            3.962683
      Cartesian components [Ang]: [  1.423468,   2.277330,   2.913822]

  Transition density matrix analysis:
  -----------------------------------
  
  CT numbers (Mulliken)
    omega =     0.8250
    <Phe> =     0.0003
  
  Exciton analysis of the transition density matrix
    Trans. dipole moment [D]:             0.087995
      Cartesian components [D]:         [  0.000000,   0.087995,  -0.000000]
    <r_h> [Ang]:                        [ -0.000000,  -0.000000,  -9.940038]
    <r_e> [Ang]:                        [ -0.000000,   0.000000,   0.625276]
    |<r_e - r_h>| [Ang]:                 10.565313
    Hole size [Ang]:                      1.499364
      Cartesian components [Ang]:       [  0.699841,   0.700058,   1.126159]
    Electron size [Ang]:                  3.604716
      Cartesian components [Ang]:       [  1.355353,   2.346386,   2.377281]
    RMS electron-hole separation [Ang]:  11.263564
      Cartesian components [Ang]:       [  1.525370,   2.448572,  10.887865]
    Covariance(r_h, r_e) [Ang^2]:         0.000023
    Correlation coefficient:              0.000004
    Center-of-mass size [Ang]:            1.952058
      Cartesian components [Ang]:       [  0.762687,   1.224308,   1.315260]

  Decomposition into state-averaged NTOs
    H- 0 -> L+ 4:  0.4886 ( 47.7%)
    H- 0 -> L+ 2:  0.3899 ( 30.4%)
    H- 0 -> L+ 3: -0.1205 (  2.9%)
                   omega =  82.5%
  ----------------------------------------------------------------------------


  Excited state 8 (singlet, B2)                                    [converged]
  ----------------------------------------------------------------------------
  Term symbol:  8 (1) B2                                    R^2 =  3.89234e-08

  Total energy:                                            -78.5551161348 a.u.
  Excitation energy:                                               7.019558 eV

  Osc. strength:                                                      0.000000
  Trans. dip. moment [a.u.]:           [   0.000000,    0.000803,    0.000000]
  <i|r^2|0> [a.u.]:                    [  -0.000000,   -0.000000,    0.000000]

  Dip. moment [a.u.]:                  [   0.000000,    0.000000,   -1.390638]
  Total dipole [Debye]:                                               3.534651
  <r^2> [a.u.]:                        [  31.123540,   34.635472,  452.100912]
  Total <r^2> [a.u.]:                                               517.859924

  V1^2 = 0.0013, V2^2 = 0.9987

  Important amplitudes:
      occ i      occ j       vir a       vir b          v   
    ---------------------------------------------------------
     6 (A1) A   1 (B2) B    4 (B2) A    4 (B2) B      0.3034
     6 (A1) A   1 (B2) B    6 (B2) A    4 (B2) B      0.0974
    ---------------------------------------------------------

  Density matrix analysis:
  ------------------------
  NOs
    Occupation of frontier NOs:
       0.9536   0.9880
    Number of electrons: 18.000000
    Number of unpaired electrons: n_u =  2.74078, n_u,nl =  2.31819
    NO participation ratio (PR_NO):  3.784068
  
  
  Mulliken Population Analysis
  Atom      Charge (e)              h+              e-           Del q
  --------------------------------------------------------------------
   1 C       -0.634902        0.499004       -0.963136       -0.464132
   2 C       -0.704534        0.494436       -1.009621       -0.515184
   3 H        0.074922        0.003940       -0.006584       -0.002644
   4 H        0.086851        0.003904       -0.006529       -0.002625
   5 H        0.074922        0.003940       -0.006584       -0.002644
   6 H        0.086851        0.003904       -0.006529       -0.002625
   7 H        0.015892        0.989928       -0.000074        0.989854
  --------------------------------------------------------------------
  Sum:       -1.000000        1.999055       -1.999055        0.000000
  
  Multipole moment analysis of the density matrix
    Molecular charge:                      -1.000000
    Number of electrons:                   18.000000
      Center of electronic charge [Ang]: [ -0.000000,  -0.000000,   0.040883]
    Total nuclear charge:                  17.000000
      Center of nuclear charge [Ang]:    [ -0.000000,   0.000000,  -0.000000]
    Dipole moment [D]:                     3.534650
      Cartesian components [D]:          [  0.000000,   0.000000,  -3.534650]
    RMS size of the density [Ang]:         2.838089
      Cartesian components [Ang]:        [  0.695840,   0.734050,   2.651740]
  
  Exciton analysis of the difference density matrix
    <r_h> [Ang]:                  [  0.000000,   0.000000,  -4.667391]
    <r_e> [Ang]:                  [ -0.000000,  -0.000000,   0.608166]
    |<r_e - r_h>| [Ang]:            5.275557
    Hole size [Ang]:                5.466193
      Cartesian components [Ang]: [  0.604607,   0.777041,   5.376795]
    Electron size [Ang]:            2.842505
      Cartesian components [Ang]: [  1.069493,   1.821593,   1.902056]

  Transition density matrix analysis:
  -----------------------------------
  
  CT numbers (Mulliken)
    omega =     0.0033
    <Phe> =    -0.0154
  
  Exciton analysis of the transition density matrix
    Trans. dipole moment [D]:             0.001021
      Cartesian components [D]:         [  0.000000,   0.001021,   0.000000]
    <r_h> [Ang]:                        [ -0.000000,   0.000000,  -3.326221]
    <r_e> [Ang]:                        [ -0.000000,  -0.000000,  -5.974552]
    |<r_e - r_h>| [Ang]:                  2.648331
    Hole size [Ang]:                      5.296408
      Cartesian components [Ang]:       [  0.589184,   0.807688,   5.201196]
    Electron size [Ang]:                  5.541460
      Cartesian components [Ang]:       [  0.959001,   1.480724,   5.253147]
    RMS electron-hole separation [Ang]:  10.843581
      Cartesian components [Ang]:       [  1.125526,   1.686089,  10.652396]
    Covariance(r_h, r_e) [Ang^2]:       -25.904939
    Correlation coefficient:             -0.882626
    Center-of-mass size [Ang]:            1.318128
      Cartesian components [Ang]:       [  0.562769,   0.843639,   0.842036]

  Decomposition into state-averaged NTOs
                   omega =   0.3%
  ----------------------------------------------------------------------------


  Excited state 9 (singlet, B2)                                    [converged]
  ----------------------------------------------------------------------------
  Term symbol:  9 (1) B2                                    R^2 =  3.80350e-06

  Total energy:                                            -78.5427617967 a.u.
  Excitation energy:                                               7.355736 eV

  Osc. strength:                                                      0.000038
  Trans. dip. moment [a.u.]:           [   0.000000,   -0.014564,    0.000000]
  <i|r^2|0> [a.u.]:                    [   0.000000,   -0.000000,   -0.000000]

  Dip. moment [a.u.]:                  [   0.000000,   -0.000000,   -0.567571]
  Total dipole [Debye]:                                               1.442622
  <r^2> [a.u.]:                        [  51.850130,   40.540803,  499.473158]
  Total <r^2> [a.u.]:                                               591.864091

  V1^2 = 0.0028, V2^2 = 0.9972

  Important amplitudes:
      occ i      occ j       vir a       vir b          v   
    ---------------------------------------------------------
     6 (A1) A   1 (B2) B    9 (A1) A    7 (A1) B     -0.1284
     6 (A1) A   1 (B2) B    9 (A1) A    8 (A1) B     -0.1236
    ---------------------------------------------------------

  Density matrix analysis:
  ------------------------
  NOs
    Occupation of frontier NOs:
       0.9407   0.9747
    Number of electrons: 18.000000
    Number of unpaired electrons: n_u =  3.74066, n_u,nl =  3.53298
    NO participation ratio (PR_NO):  5.243212
  
  
  Mulliken Population Analysis
  Atom      Charge (e)              h+              e-           Del q
  --------------------------------------------------------------------
   1 C       -0.557456        0.491337       -0.878022       -0.386686
   2 C       -0.890574        0.505951       -1.207174       -0.701224
   3 H        0.102964        0.003288        0.022110        0.025398
   4 H        0.116757        0.002830        0.024451        0.027281
   5 H        0.102964        0.003288        0.022110        0.025398
   6 H        0.116757        0.002830        0.024451        0.027281
   7 H        0.008589        0.989359       -0.006808        0.982551
  --------------------------------------------------------------------
  Sum:       -1.000000        1.998882       -1.998882       -0.000000
  
  Multipole moment analysis of the density matrix
    Molecular charge:                      -1.000000
    Number of electrons:                   18.000000
      Center of electronic charge [Ang]: [ -0.000000,   0.000000,   0.016686]
    Total nuclear charge:                  17.000000
      Center of nuclear charge [Ang]:    [ -0.000000,   0.000000,  -0.000000]
    Dipole moment [D]:                     1.442621
      Cartesian components [D]:          [  0.000000,  -0.000000,  -1.442621]
    RMS size of the density [Ang]:         3.034375
      Cartesian components [Ang]:        [  0.898131,   0.794166,   2.787489]
  
  Exciton analysis of the difference density matrix
    <r_h> [Ang]:                  [  0.000000,   0.000000,  -4.664803]
    <r_e> [Ang]:                  [ -0.000000,   0.000000,   0.393317]
    |<r_e - r_h>| [Ang]:            5.058120
    Hole size [Ang]:                5.465474
      Cartesian components [Ang]: [  0.601337,   0.777964,   5.376297]
    Electron size [Ang]:            4.315863
      Cartesian components [Ang]: [  2.010866,   2.036459,   3.230468]

  Transition density matrix analysis:
  -----------------------------------
  
  CT numbers (Mulliken)
    omega =     0.0028
    <Phe> =     0.0020
  
  Exciton analysis of the transition density matrix
    Trans. dipole moment [D]:             0.018510
      Cartesian components [D]:         [  0.000000,  -0.018510,   0.000000]
    <r_h> [Ang]:                        [ -0.000000,   0.000000,  -1.731514]
    <r_e> [Ang]:                        [ -0.000000,  -0.000000,  -0.070558]
    |<r_e - r_h>| [Ang]:                  1.660956
    Hole size [Ang]:                      4.574484
      Cartesian components [Ang]:       [  0.557649,   0.830278,   4.463807]
    Electron size [Ang]:                  4.139765
      Cartesian components [Ang]:       [  1.852455,   1.988433,   3.122851]
    RMS electron-hole separation [Ang]:   6.802492
      Cartesian components [Ang]:       [  1.933756,   2.148658,   6.157739]
    Covariance(r_h, r_e) [Ang^2]:        -2.725782
    Correlation coefficient:             -0.143937
    Center-of-mass size [Ang]:            2.855346
      Cartesian components [Ang]:       [  0.967692,   1.080477,   2.459500]

  Decomposition into state-averaged NTOs
                   omega =   0.3%
  ----------------------------------------------------------------------------


  Excited state 10 (singlet, B2)                                    [converged]
  ----------------------------------------------------------------------------
  Term symbol:  10 (1) B2                                   R^2 =  5.22708e-06

  Total energy:                                            -78.5415633251 a.u.
  Excitation energy:                                               7.388348 eV

  Osc. strength:                                                      0.000357
  Trans. dip. moment [a.u.]:           [  -0.000000,    0.044412,    0.000000]
  <i|r^2|0> [a.u.]:                    [  -0.000000,   -0.000000,   -0.000000]

  Dip. moment [a.u.]:                  [   0.000000,   -0.000000,   -1.612062]
  Total dipole [Debye]:                                               4.097454
  <r^2> [a.u.]:                        [  52.002947,   40.140343,  509.931174]
  Total <r^2> [a.u.]:                                               602.074464

  V1^2 = 0.0063, V2^2 = 0.9937

  Important amplitudes:
      occ i      occ j       vir a       vir b          v   
    ---------------------------------------------------------
     6 (A1) A   1 (B2) B    7 (A1) A    7 (A1) B     -0.1805
     6 (A1) A   1 (B2) B    9 (A1) A    7 (A1) B      0.1473
    ---------------------------------------------------------

  Density matrix analysis:
  ------------------------
  NOs
    Occupation of frontier NOs:
       0.9404   0.9796
    Number of electrons: 18.000000
    Number of unpaired electrons: n_u =  3.40993, n_u,nl =  3.11592
    NO participation ratio (PR_NO):  4.978297
  
  
  Mulliken Population Analysis
  Atom      Charge (e)              h+              e-           Del q
  --------------------------------------------------------------------
   1 C       -0.745283        0.519706       -1.094219       -0.574513
   2 C       -0.658508        0.476736       -0.945894       -0.469157
   3 H        0.093525        0.003493        0.012466        0.015959
   4 H        0.103225        0.003469        0.010280        0.013749
   5 H        0.093525        0.003493        0.012466        0.015959
   6 H        0.103225        0.003469        0.010280        0.013749
   7 H        0.010291        0.986922       -0.002669        0.984253
  --------------------------------------------------------------------
  Sum:       -1.000000        1.997289       -1.997289       -0.000000
  
  Multipole moment analysis of the density matrix
    Molecular charge:                      -1.000000
    Number of electrons:                   18.000000
      Center of electronic charge [Ang]: [ -0.000000,   0.000000,   0.047393]
    Total nuclear charge:                  17.000000
      Center of nuclear charge [Ang]:    [ -0.000000,   0.000000,  -0.000000]
    Dipole moment [D]:                     4.097452
      Cartesian components [D]:          [  0.000000,  -0.000000,  -4.097452]
    RMS size of the density [Ang]:         3.060116
      Cartesian components [Ang]:        [  0.899454,   0.790233,   2.816172]
  
  Exciton analysis of the difference density matrix
    <r_h> [Ang]:                  [  0.000000,   0.000000,  -4.650908]
    <r_e> [Ang]:                  [ -0.000000,  -0.000000,   0.687980]
    |<r_e - r_h>| [Ang]:            5.338888
    Hole size [Ang]:                5.469267
      Cartesian components [Ang]: [  0.602176,   0.778258,   5.380017]
    Electron size [Ang]:            4.430061
      Cartesian components [Ang]: [  2.017165,   2.023438,   3.385585]

  Transition density matrix analysis:
  -----------------------------------
  
  CT numbers (Mulliken)
    omega =     0.0061
    <Phe> =    -0.0028
  
  Exciton analysis of the transition density matrix
    Trans. dipole moment [D]:             0.056442
      Cartesian components [D]:         [ -0.000000,   0.056442,   0.000000]
    <r_h> [Ang]:                        [  0.000000,   0.000000,   0.054257]
    <r_e> [Ang]:                        [ -0.000000,  -0.000000,   2.640147]
    |<r_e - r_h>| [Ang]:                  2.585890
    Hole size [Ang]:                      2.774686
      Cartesian components [Ang]:       [  0.522349,   0.854503,   2.587636]
    Electron size [Ang]:                  3.227402
      Cartesian components [Ang]:       [  1.693806,   1.747015,   2.120161]
    RMS electron-hole separation [Ang]:   4.613414
      Cartesian components [Ang]:       [  1.771914,   1.936749,   3.793800]
    Covariance(r_h, r_e) [Ang^2]:         1.759119
    Correlation coefficient:              0.196439
    Center-of-mass size [Ang]:            2.325578
      Cartesian components [Ang]:       [  0.886563,   0.976406,   1.915450]

  Decomposition into state-averaged NTOs
                   omega =   0.6%
  ----------------------------------------------------------------------------


--------------------------------------------------------------------------------
  Time of ADC calculation:  CPU 574.34 s  wall 142.48 s
================================================================================
 
 --------------------------------------------------------------
             Orbital Energies (a.u.) and Symmetries
 --------------------------------------------------------------
 
 Alpha MOs, Restricted
 -- Occupied --                  
-11.186 -11.185  -0.991  -0.731  -0.610  -0.516  -0.465  -0.326
  1 A1    2 A1    3 A1    4 A1    1 B1    5 A1    2 B1    1 B2                 
  0.018
  6 A1                                                                         
 -- Virtual --                   
  0.083   0.084   0.088   0.111   0.113   0.126   0.148   0.178
  7 A1    3 B1    2 B2    4 B1    3 B2    8 A1    9 A1    4 B2                 
  0.184   0.207   0.230   0.233   0.253   0.311   0.316   0.346
 10 A1    5 B1    6 B1    5 B2   11 A1    6 B2   12 A1   13 A1                 
  0.388   0.399   0.509   0.557   0.734   0.815   0.910   0.912
  7 B1   14 A1    8 B1   15 A1   16 A1    9 B1   17 A1    7 B2                 
  0.950   0.971   0.982   1.039   1.051   1.077   1.093   1.165
 10 B1    8 B2   18 A1   19 A1   20 A1   21 A1   11 B1    1 A2                 
  1.334   1.335   1.376   1.397   1.657   1.666   1.747   1.899
  9 B2    2 A2   22 A1   12 B1   23 A1   13 B1   14 B1   10 B2                 
  1.959   1.959   1.959   1.967   1.989   2.030   2.068   2.089
 15 B1   11 B2   24 A1   25 A1   12 B2   26 A1    3 A2   16 B1                 
  2.221   2.328   2.463   2.491   2.595   2.623   2.850   2.851
 13 B2   27 A1    4 A2   28 A1   17 B1   29 A1   30 A1   18 B1                 
  3.312   3.391
 31 A1   19 B1                                                                 
 
 Beta MOs, Restricted
 -- Occupied --                  
-11.186 -11.185  -0.991  -0.731  -0.610  -0.516  -0.465  -0.326
  1 A1    2 A1    3 A1    4 A1    1 B1    5 A1    2 B1    1 B2                 
  0.018
  6 A1                                                                         
 -- Virtual --                   
  0.083   0.084   0.088   0.111   0.113   0.126   0.148   0.178
  7 A1    3 B1    2 B2    4 B1    3 B2    8 A1    9 A1    4 B2                 
  0.184   0.207   0.230   0.233   0.253   0.311   0.316   0.346
 10 A1    5 B1    6 B1    5 B2   11 A1    6 B2   12 A1   13 A1                 
  0.388   0.399   0.509   0.557   0.734   0.815   0.910   0.912
  7 B1   14 A1    8 B1   15 A1   16 A1    9 B1   17 A1    7 B2                 
  0.950   0.971   0.982   1.039   1.051   1.077   1.093   1.165
 10 B1    8 B2   18 A1   19 A1   20 A1   21 A1   11 B1    1 A2                 
  1.334   1.335   1.376   1.397   1.657   1.666   1.747   1.899
  9 B2    2 A2   22 A1   12 B1   23 A1   13 B1   14 B1   10 B2                 
  1.959   1.959   1.959   1.967   1.989   2.030   2.068   2.089
 15 B1   11 B2   24 A1   25 A1   12 B2   26 A1    3 A2   16 B1                 
  2.221   2.328   2.463   2.491   2.595   2.623   2.850   2.851
 13 B2   27 A1    4 A2   28 A1   17 B1   29 A1   30 A1   18 B1                 
  3.312   3.391
 31 A1   19 B1                                                                 
 --------------------------------------------------------------
 
          Ground-State Mulliken Net Atomic Charges

     Atom                 Charge (a.u.)
  ----------------------------------------
      1 C                    -0.160353
      2 C                    -0.165611
      3 H                     0.070484
      4 H                     0.082390
      5 H                     0.070484
      6 H                     0.082390
      7 H                    -0.979786
  ----------------------------------------
  Sum of atomic charges =    -1.000000

 -----------------------------------------------------------------
                    Cartesian Multipole Moments
 -----------------------------------------------------------------
    Charge (ESU x 10^10)
                -4.8032
    Dipole Moment (Debye)
         X      -0.0000      Y       0.0000      Z      47.3299
       Tot      47.3299
    Quadrupole Moments (Debye-Ang)
        XX     -16.4488     XY       0.0000     YY     -20.6138
        XZ      -0.0000     YZ      -0.0000     ZZ    -493.4321
    Octopole Moments (Debye-Ang^2)
       XXX      -0.0000    XXY       0.0000    XYY      -0.0000
       YYY       0.0000    XXZ      32.4630    XYZ       0.0000
       YYZ      29.8883    XZZ      -0.0000    YZZ       0.0000
       ZZZ    4862.5596
    Hexadecapole Moments (Debye-Ang^3)
      XXXX     -41.8126   XXXY       0.0000   XXYY     -13.8985
      XYYY       0.0000   YYYY     -36.3027   XXXZ       0.0000
      XXYZ      -0.0000   XYYZ       0.0000   YYYZ      -0.0000
      XXZZ    -422.6661   XYZZ       0.0000   YYZZ    -426.5746
      XZZZ      -0.0000   YZZZ      -0.0000   ZZZZ  -50308.4011
 -----------------------------------------------------------------
 Total job time:  225.54s(wall), 621.00s(cpu) 
 Sat Mar 26 15:03:29 2022

        *************************************************************
        *                                                           *
        *  Thank you very much for using Q-Chem.  Have a nice day.  *
        *                                                           *
        *************************************************************


