/src/tsommerfeld/qchem/exe/qcprog.exe .input0.916667.19428.qcin.1 /src/jdavis/qchem.scratch/qchem19428/

                  Welcome to Q-Chem
     A Quantum Leap Into The Future Of Chemistry


 Q-Chem 5.4 (devel), Q-Chem, Inc., Pleasanton, CA (2021)

 E. Epifanovsky,  A. T. B. Gilbert,  Xintian Feng,  Joonho Lee,  Yuezhi Mao,  
 N. Mardirossian,  P. Pokhilko,  A. White,  M. Wormit,  M. P. Coons,  
 A. L. Dempwolff,  Zhengting Gan,  D. Hait,  P. R. Horn,  L. D. Jacobson,  
 I. Kaliman,  J. Kussmann,  A. W. Lange,  Ka Un Lao,  D. S. Levine,  Jie Liu,  
 S. C. McKenzie,  A. F. Morrison,  K. Nanda,  F. Plasser,  D. R. Rehn,  
 M. L. Vidal,  Zhi-Qiang You,  Ying Zhu,  B. Alam,  B. Albrecht,  
 A. Aldossary,  E. Alguire,  J. H. Andersen,  D. Barton,  K. Begam,  A. Behn,  
 Y. A. Bernard,  E. J. Berquist,  H. Burton,  A. Carreras,  K. Carter-Fenk,  
 R. Chakraborty,  A. D. Chien,  K. D. Closser,  V. Cofer-Shabica,  
 S. Dasgupta,  Jia Deng,  M. de Wergifosse,  M. Diedenhofen,  Hainam Do,  
 S. Ehlert,  Po-Tung Fang,  S. Fatehi,  Qingguo Feng,  T. Friedhoff,  
 J. Gayvert,  Qinghui Ge,  G. Gidofalvi,  M. Goldey,  J. Gomes,  
 C. Gonzalez-Espinoza,  S. Gulania,  A. Gunina,  M. W. D. Hanson-Heine,  
 P. H. P. Harbach,  A. W. Hauser,  M. F. Herbst,  M. Hernandez Vera,  
 M. Hodecker,  Z. C. Holden,  S. Houck,  Xunkun Huang,  Kerwin Hui,  
 B. C. Huynh,  M. Ivanov,  Hyunjun Ji,  Hanjie Jiang,  B. Kaduk,  S. Kaehler,  
 K. Khistyaev,  Jaehoon Kim,  P. Klunzinger,  Z. Koczor-Benda,  
 Joong Hoon Koh,  D. Kosenkov,  L. Koulias,  T. Kowalczyk,  C. M. Krauter,  
 K. Kue,  A. Kunitsa,  T. Kus,  A. Landau,  K. V. Lawler,  D. Lefrancois,  
 S. Lehtola,  Rain Li,  Yi-Pei Li,  Jiashu Liang,  M. Liebenthal,  
 Hung-Hsuan Lin,  You-Sheng Lin,  Fenglai Liu,  Kuan-Yu Liu,  
 M. Loipersberger,  A. Luenser,  A. Manjanath,  P. Manohar,  E. Mansoor,  
 S. F. Manzer,  Shan-Ping Mao,  A. V. Marenich,  T. Markovich,  S. Mason,  
 S. A. Maurer,  P. F. McLaughlin,  M. F. S. J. Menger,  J.-M. Mewes,  
 S. A. Mewes,  P. Morgante,  J. W. Mullinax,  K. J. Oosterbaan,  G. Paran,  
 Alexander C. Paul,  Suranjan K. Paul,  F. Pavosevic,  Zheng Pei,  S. Prager,  
 E. I. Proynov,  E. Ramos,  B. Rana,  A. E. Rask,  A. Rettig,  R. M. Richard,  
 F. Rob,  E. Rossomme,  T. Scheele,  M. Scheurer,  M. Schneider,  
 N. Sergueev,  S. M. Sharada,  W. Skomorowski,  D. W. Small,  C. J. Stein,  
 Yu-Chuan Su,  E. J. Sundstrom,  Zhen Tao,  J. Thirman,  T. Tsuchimochi,  
 N. M. Tubman,  S. P. Veccham,  O. Vydrov,  J. Wenzel,  J. Witte,  A. Yamada,  
 Kun Yao,  S. Yeganeh,  S. R. Yost,  A. Zech,  Igor Ying Zhang,  Xing Zhang,  
 Yu Zhang,  D. Zuev,  A. Aspuru-Guzik,  A. T. Bell,  N. A. Besley,  
 K. B. Bravaya,  B. R. Brooks,  D. Casanova,  Jeng-Da Chai,  S. Coriani,  
 C. J. Cramer,  A. E. DePrince, III,  R. A. DiStasio Jr.,  A. Dreuw,  
 B. D. Dunietz,  T. R. Furlani,  W. A. Goddard III,  S. Grimme,  
 S. Hammes-Schiffer,  T. Head-Gordon,  W. J. Hehre,  Chao-Ping Hsu,  
 T.-C. Jagau,  Yousung Jung,  A. Klamt,  Jing Kong,  D. S. Lambrecht,  
 WanZhen Liang,  N. J. Mayhall,  C. W. McCurdy,  J. B. Neaton,  
 C. Ochsenfeld,  J. A. Parkhill,  R. Peverati,  V. A. Rassolov,  Yihan Shao,  
 L. V. Slipchenko,  T. Stauch,  R. P. Steele,  J. E. Subotnik,  
 A. J. W. Thom,  A. Tkatchenko,  D. G. Truhlar,  T. Van Voorhis,  
 T. A. Wesolowski,  K. B. Whaley,  H. L. Woodcock III,  P. M. Zimmerman,  
 S. Faraji,  P. M. W. Gill,  M. Head-Gordon,  J. M. Herbert,  A. I. Krylov

 Additional authors for Version 5.4.1: 
 S. Kotaru,  Shaozhi Li,  Xiangyuan Li,  F. Matz,  A. Molle,  Haisheng Ren,  
 Yingli Su,  Hung-Yi Tsai,  C. Utku,  Fang Wang

 Contributors to earlier versions of Q-Chem not listed above: 
 R. D. Adamson,  B. Austin,  R. Baer,  J. Baker,  G. J. O. Beran,  
 K. Brandhorst,  S. T. Brown,  E. F. C. Byrd,  A. K. Chakraborty,  
 G. K. L. Chan,  Chun-Min Chang,  Yunqing Chen,  C.-L. Cheng,  
 Siu Hung Chien,  D. M. Chipman,  D. L. Crittenden,  H. Dachsel,  
 R. J. Doerksen,  A. D. Dutoi,  R. G. Edgar,  J. Fosso-Tande,  
 L. Fusti-Molnar,  D. Ghosh,  A. Ghysels,  A. Golubeva-Zadorozhnaya,  
 J. Gonthier,  M. S. Gordon,  S. R. Gwaltney,  G. Hawkins,  J. E. Herr,  
 A. Heyden,  S. Hirata,  E. G. Hohenstein,  G. Kedziora,  F. J. Keil,  
 C. Kelley,  Jihan Kim,  R. A. King,  R. Z. Khaliullin,  P. P. Korambath,  
 W. Kurlancheek,  A. Laurent,  A. M. Lee,  M. S. Lee,  S. V. Levchenko,  
 Ching Yeh Lin,  D. Liotard,  E. Livshits,  R. C. Lochan,  I. Lotan,  
 L. A. Martinez-Martinez,  P. E. Maslen,  N. Nair,  D. P. O'Neill,  
 D. Neuhauser,  E. Neuscamman,  C. M. Oana,  R. Olivares-Amaya,  R. Olson,  
 T. M. Perrine,  B. Peters,  P. A. Pieniazek,  A. Prociuk,  Y. M. Rhee,  
 J. Ritchie,  M. A. Rohrdanz,  E. Rosta,  N. J. Russ,  H. F. Schaefer III,  
 M. W. Schmidt,  N. E. Schultz,  S. Sharma,  N. Shenvi,  C. D. Sherrill,  
 A. C. Simmonett,  A. Sodt,  T. Stein,  D. Stuck,  K. S. Thanthiriwatte,  
 V. Vanovschi,  L. Vogt,  Tao Wang,  A. Warshel,  M. A. Watson,  
 C. F. Williams,  Q. Wu,  X. Xu,  Jun Yang,  W. Zhang,  Yan Zhao

 Please cite Q-Chem as follows:
 Y. Shao et al., Mol. Phys. 113, 184-215 (2015)
 DOI: 10.1080/00268976.2014.952696

 Q-Chem 5.4.1 for Intel X86 EM64T Linux

 Parts of Q-Chem use Armadillo 9.900.5 (Nocturnal Misbehaviour).
 http://arma.sourceforge.net/

 Q-Chem begins on Sat Mar 26 15:37:06 2022  

 Host: node01
0

     Scratch files written to /src/jdavis/qchem.scratch/qchem19428//
 Processing $rem in /src/tsommerfeld/qchem/config/preferences:
 Processing $rem in /home/jdavis/.qchemrc:

 Checking the input file for inconsistencies... 	...done.

--------------------------------------------------------------
User input:
--------------------------------------------------------------
$molecule
-1 1
C         0.0000000000    0.0000000000    0.8417902907
C         0.0000000000    0.0000000000   -0.4872097093
H         0.9623488518    0.0000000000    1.3363703127
H         0.9623489048    0.0000000000   -0.9817896873
H        -0.9623488518    0.0000000000    1.3363703127
H        -0.9623489048    0.0000000000   -0.9817896873
H         0.0000000000    0.0000000000   -10.4872097093
$end

$rem
   METHOD adc(3)
   BASIS gen
   PURECART 11
   EE_STATES [0,0,0,10]
   scf_convergence 8
   ADC_DAVIDSON_MAXITER 120
   ADC_DAVIDSON_MAXSUBSPACE 200
   adc_nguess_singles 100
   THRESH 14
   S2THRESH 14
   adc_davidson_conv 5
   adc_davidson_thresh 14
   THREADS 10
   MEM_TOTAL 95000
   STATE_ANALYSIS TRUE
$end
$basis
C 1
S   9   1.00
      6.665000D+03           6.920000D-04
      1.000000D+03           5.329000D-03
      2.280000D+02           2.707700D-02
      6.471000D+01           1.017180D-01
      2.106000D+01           2.747400D-01
      7.495000D+00           4.485640D-01
      2.797000D+00           2.850740D-01
      5.215000D-01           1.520400D-02
      1.596000D-01          -3.191000D-03
S   9   1.00
      6.665000D+03          -1.460000D-04
      1.000000D+03          -1.154000D-03
      2.280000D+02          -5.725000D-03
      6.471000D+01          -2.331200D-02
      2.106000D+01          -6.395500D-02
      7.495000D+00          -1.499810D-01
      2.797000D+00          -1.272620D-01
      5.215000D-01           5.445290D-01
      1.596000D-01           5.804960D-01
S   1   1.00
      1.596000D-01           1.000000D+00
S   1   1.00
      0.0469000              1.0000000
P   4   1.00
      9.439000D+00           3.810900D-02
      2.002000D+00           2.094800D-01
      5.456000D-01           5.085570D-01
      1.517000D-01           4.688420D-01
P   1   1.00
      1.517000D-01           1.000000D+00
P   1   1.00
      0.0556233      1.0000000
P   1   1.00
      0.0278117      1.0000000
D   1   1.00
      5.500000D-01           1.0000000
****
C 2
S   9   1.00
      6.665000D+03           6.920000D-04
      1.000000D+03           5.329000D-03
      2.280000D+02           2.707700D-02
      6.471000D+01           1.017180D-01
      2.106000D+01           2.747400D-01
      7.495000D+00           4.485640D-01
      2.797000D+00           2.850740D-01
      5.215000D-01           1.520400D-02
      1.596000D-01          -3.191000D-03
S   9   1.00
      6.665000D+03          -1.460000D-04
      1.000000D+03          -1.154000D-03
      2.280000D+02          -5.725000D-03
      6.471000D+01          -2.331200D-02
      2.106000D+01          -6.395500D-02
      7.495000D+00          -1.499810D-01
      2.797000D+00          -1.272620D-01
      5.215000D-01           5.445290D-01
      1.596000D-01           5.804960D-01
S   1   1.00
      1.596000D-01           1.000000D+00
S   1   1.00
      0.0469000              1.0000000
P   4   1.00
      9.439000D+00           3.810900D-02
      2.002000D+00           2.094800D-01
      5.456000D-01           5.085570D-01
      1.517000D-01           4.688420D-01
P   1   1.00
      1.517000D-01           1.000000D+00
P   1   1.00
      0.0556233      1.0000000
P   1   1.00
      0.0278117      1.0000000
D   1   1.00
      5.500000D-01           1.0000000
****
H 3
cc-pVDZ
****
H 4
cc-pVDZ
****
H 5
cc-pVDZ
****
H 6
cc-pVDZ
****
H 7
aug-cc-pVDZ
****
$end
--------------------------------------------------------------
 ----------------------------------------------------------------
             Standard Nuclear Orientation (Angstroms)
    I     Atom           X                Y                Z
 ----------------------------------------------------------------
    1      C       0.0000000000     0.0000000000     1.2918235242
    2      C       0.0000000000     0.0000000000    -0.0371764758
    3      H       0.9623488518     0.0000000000     1.7864035462
    4      H       0.9623489048     0.0000000000    -0.5317564538
    5      H      -0.9623488518     0.0000000000     1.7864035462
    6      H      -0.9623489048     0.0000000000    -0.5317564538
    7      H       0.0000000000     0.0000000000   -10.0371764758
 ----------------------------------------------------------------
 Molecular Point Group                 C2v   NOp =  4
 Largest Abelian Subgroup              C2v   NOp =  4
 Nuclear Repulsion Energy =          34.38697142 hartrees
 There are        9 alpha and        9 beta electrons
 Requested basis set is non-standard
 There are 33 shells and 67 basis functions
 Total memory of 95000 MB is distributed as follows: 
   MEM_STATIC is set to 192 MB
   QALLOC/CCMAN JOB total memory use is  94808 MB
 Warning: actual memory use might exceed 95000 MB

 Total QAlloc Memory Limit  95000 MB
 Mega-Array Size       188 MB
 MEM_STATIC part       192 MB

                       Distance Matrix (Angstroms)
             C (  1)   C (  2)   H (  3)   H (  4)   H (  5)   H (  6)
   C (  2)  1.329000
   H (  3)  1.082000  2.061931
   H (  4)  2.061931  1.082000  2.318160
   H (  5)  1.082000  2.061931  1.924698  3.013026
   H (  6)  2.061931  1.082000  3.013026  1.924698  2.318160
   H (  7) 11.329000 10.000000 11.862679  9.554011 11.862679  9.554011

 
 A cutoff of  1.0D-14 yielded    495 shell pairs
 There are      2107 function pairs (      2244 Cartesian)
 Smallest overlap matrix eigenvalue = 1.98E-04

 Scale SEOQF with 1.000000e-01/1.000000e-01/1.000000e-02

 Standard Electronic Orientation quadrupole field applied
 Nucleus-field energy     =    -0.0000000011 hartrees
 ================ Generating on-the-fly SAD Guess ================
Attempting to make child job directory: /src/jdavis/qchem.scratch/qchem19428//Frg1/
Attempting to make child job directory: /src/jdavis/qchem.scratch/qchem19428//Frg2/
Creating input file /src/jdavis/qchem.scratch/qchem19428/Frg1.input
using default PutDataFrgm: nothing
calling putenv with: QCSCRATCH=/src/jdavis/qchem.scratch/qchem19428/ 
Spawning Job For Fragment 0
Done Job For Fragment 0
calling putenv with: QCSCRATCH=/src/jdavis/qchem.scratch 
calling putenv with: QCTHREADS=1 
Creating input file /src/jdavis/qchem.scratch/qchem19428/Frg2.input
using default PutDataFrgm: nothing
calling putenv with: QCSCRATCH=/src/jdavis/qchem.scratch/qchem19428/ 
Spawning Job For Fragment 1
Done Job For Fragment 1
calling putenv with: QCSCRATCH=/src/jdavis/qchem.scratch 
calling putenv with: QCTHREADS=1 
 Time for running child jobs:  CPU 1.81 s  wall 54.36 s
 ============= Method Specific SAD Guess Constructed =============
 Guess from on-the-fly superposition of atomic densities
 Warning: Energy on first SCF cycle will be non-variational
 A restricted Hartree-Fock SCF calculation will be
 performed using Pulay DIIS extrapolation
 SCF converges when DIIS error is below 1.0E-08
 using 10 threads for integral computing
 -------------------------------------------------------
 OpenMP Integral computing Module                
 Release: version 1.0, May 2013, Q-Chem Inc. Pittsburgh 
 -------------------------------------------------------
 ---------------------------------------
  Cycle       Energy         DIIS Error
 ---------------------------------------
    1     -78.8000346560      7.36E-02
    2     -78.4465491463      6.48E-03
    3     -78.4845369521      1.48E-03
    4     -78.4864772163      4.79E-04
    5     -78.4866538459      7.73E-05
    6     -78.4866625592      1.83E-05
    7     -78.4866631391      8.99E-06
    8     -78.4866632947      1.95E-06
    9     -78.4866633230      7.48E-07
   10     -78.4866633307      1.89E-07
   11     -78.4866633316      5.92E-08
   12     -78.4866633316      1.56E-08
   13     -78.4866633316      2.28E-09 Convergence criterion met
 ---------------------------------------
 SCF time:  CPU 13.02 s  wall 1.31 s
 SCF   energy in the final basis set = -78.48666333
 Total energy in the final basis set = -78.48666333
================================================================================
|                                                                              |
|                                 A D C  M A N                                 |
|                                                                              |
 ------------------------------------------------------------------------------ 
|                                                                              |
| Components:                                                                  |
|                                                                              |
| - libvmm - 1.3-trunk                                                         |
|   Authors:                                                                   |
|   Evgeny Epifanovsky, Ilya Kaliman                                           |
|                                                                              |
| - libtensor - 2.5-trunk                                                      |
|   Authors:                                                                   |
|   Evgeny Epifanovsky, Michael Wormit, Dmitry Zuev, Sam Manzer,               |
|   Ilya Kaliman                                                               |
|                                                                              |
| - libwfa - 1.1-trunk                                                         |
|   Authors:                                                                   |
|   Felix Plasser, Stefanie Mewes (Baeppler), Benjamin Thomitzni,              |
|   Michael Wormit, Feng Chen, Anna I. Krylov, Pavel Pokhilko                  |
|                                                                              |
| - libadc - 1.1-trunk                                                         |
|   Authors:                                                                   |
|   Michael Wormit, Adrian L. Dempwolff, Philipp H. P. Harbach,                |
|   Caroline Krauter, Dirk Rehn, Matthias Schneider, Jan Wenzel                |
|                                                                              |
| - adcman - 2.6-trunk                                                         |
|   Authors:                                                                   |
|   Michael Wormit, Adrian L. Dempwolff, Philipp H. P. Harbach,                |
|   Caroline Krauter, Daniel Lefrancois, Jan-Michael Mewes, Dirk Rehn,         |
|   Matthias Schneider, Jan Wenzel, Andreas Dreuw                              |
|                                                                              |
| Authors of earlier versions of ADCMAN:                                       |
| Andreas Dreuw, Jan Hendrik Starcke, Dirk Rehn, Michael Wormit                |
|                                                                              |
================================================================================

 
 Alpha MOs, Restricted
 -- Occupied --                  
-11.187 -11.185  -0.992  -0.732  -0.611  -0.517  -0.465  -0.327
  1 A1    2 A1    3 A1    4 A1    1 B1    5 A1    2 B1    1 B2                 
  0.022
  6 A1                                                                         
 -- Virtual --                   
  0.099   0.103   0.110   0.130   0.131   0.138   0.163   0.201
  7 A1    3 B1    2 B2    3 B2    4 B1    8 A1    9 A1    4 B2                 
  0.247   0.278   0.293   0.299   0.306   0.306   0.321   0.386
 10 A1    5 B1   11 A1    6 B1   12 A1    5 B2   13 A1    6 B2                 
  0.391   0.405   0.578   0.632   0.825   0.906   0.921   0.948
  7 B1   14 A1    8 B1   15 A1   16 A1    9 B1   17 A1   10 B1                 
  0.978   1.017   1.058   1.064   1.082   1.084   1.119   1.164
 18 A1    7 B2   19 A1    8 B2   20 A1   21 A1   11 B1    1 A2                 
  1.334   1.335   1.335   1.407   1.663   1.667   1.761   1.910
  2 A2   22 A1    9 B2   12 B1   23 A1   13 B1   14 B1   10 B2                 
  1.967   1.967   1.967   1.981   1.991   2.067   2.073   2.119
 24 A1   15 B1   11 B2   25 A1   12 B2    3 A2   26 A1   16 B1                 
  2.225   2.372   2.462   2.503   2.622   2.627   2.851   2.860
 13 B2   27 A1    4 A2   28 A1   29 A1   17 B1   18 B1   30 A1                 
  3.287   3.390
 31 A1   19 B1                                                                 
 
 Beta MOs, Restricted
 -- Occupied --                  
-11.187 -11.185  -0.992  -0.732  -0.611  -0.517  -0.465  -0.327
  1 A1    2 A1    3 A1    4 A1    1 B1    5 A1    2 B1    1 B2                 
  0.022
  6 A1                                                                         
 -- Virtual --                   
  0.099   0.103   0.110   0.130   0.131   0.138   0.163   0.201
  7 A1    3 B1    2 B2    3 B2    4 B1    8 A1    9 A1    4 B2                 
  0.247   0.278   0.293   0.299   0.306   0.306   0.321   0.386
 10 A1    5 B1   11 A1    6 B1   12 A1    5 B2   13 A1    6 B2                 
  0.391   0.405   0.578   0.632   0.825   0.906   0.921   0.948
  7 B1   14 A1    8 B1   15 A1   16 A1    9 B1   17 A1   10 B1                 
  0.978   1.017   1.058   1.064   1.082   1.084   1.119   1.164
 18 A1    7 B2   19 A1    8 B2   20 A1   21 A1   11 B1    1 A2                 
  1.334   1.335   1.335   1.407   1.663   1.667   1.761   1.910
  2 A2   22 A1    9 B2   12 B1   23 A1   13 B1   14 B1   10 B2                 
  1.967   1.967   1.967   1.981   1.991   2.067   2.073   2.119
 24 A1   15 B1   11 B2   25 A1   12 B2    3 A2   26 A1   16 B1                 
  2.225   2.372   2.462   2.503   2.622   2.627   2.851   2.860
 13 B2   27 A1    4 A2   28 A1   29 A1   17 B1   18 B1   30 A1                 
  3.287   3.390
 31 A1   19 B1                                                                 

--------------------------------------------------------------------------------
                                   HF Summary                                   
--------------------------------------------------------------------------------
  Energy:                                                  -78.4866633316 a.u.
  Dip. moment [a.u.]:                  [   0.000000,   -0.000000,   18.874235]
  Total dipole [Debye]:                                              47.973529
  <r^2> [a.u.]:                        [  25.073543,   14.937393,  792.683758]
  Total <r^2> [a.u.]:                                               832.694694
--------------------------------------------------------------------------------

--------------------------------------------------------------------------------
                                 MP(2) Summary                                  
--------------------------------------------------------------------------------
  MP energy contribution:                                   -0.2981689835 a.u.
  Total energy:                                            -78.7848323151 a.u.
  Dip. moment [a.u.]:                  [   0.000000,    0.000000,   18.879625]
  Total dipole [Debye]:                                              47.987229
  <r^2> [a.u.]:                        [  25.062800,   14.746573,  792.723649]
  Total <r^2> [a.u.]:                                               832.533021

  Density matrix analysis:
  ------------------------
  NOs
    Occupation of frontier NOs:
       0.0447   1.9372
    Number of electrons: 18.000000
    Number of unpaired electrons: n_u =  0.43181, n_u,nl =  0.04669
    NO participation ratio (PR_NO): 15.329802
  
  
  Mulliken Population Analysis
  Atom      Charge (e)              h+              e-           Del q
  --------------------------------------------------------------------
   1 C       -0.175646        0.090761       -0.101322       -0.010561
   2 C       -0.174808        0.085183       -0.103715       -0.018532
   3 H        0.081246        0.017785       -0.010487        0.007298
   4 H        0.093665        0.017557       -0.010325        0.007232
   5 H        0.081246        0.017785       -0.010487        0.007298
   6 H        0.093665        0.017557       -0.010325        0.007232
   7 H       -0.999367        0.021990       -0.021957        0.000033
  --------------------------------------------------------------------
  Sum:       -1.000000        0.268617       -0.268617       -0.000000
  
  Multipole moment analysis of the density matrix
    Molecular charge:                      -1.000000
    Number of electrons:                   18.000000
      Center of electronic charge [Ang]: [ -0.000000,  -0.000000,  -0.555037]
    Total nuclear charge:                  17.000000
      Center of nuclear charge [Ang]:    [ -0.000000,   0.000000,  -0.000000]
    Dipole moment [D]:                     47.987215
      Cartesian components [D]:          [  0.000000,   0.000000,  47.987215]
    RMS size of the density [Ang]:         3.555807
      Cartesian components [Ang]:        [  0.624424,   0.478972,   3.467628]
  
  Exciton analysis of the difference density matrix
    <r_h> [Ang]:                  [ -0.000000,   0.000000,  -0.233291]
    <r_e> [Ang]:                  [ -0.000000,   0.000000,  -0.243909]
    |<r_e - r_h>| [Ang]:            0.010618
    Hole size [Ang]:                3.255956
      Cartesian components [Ang]: [  0.737307,   0.755439,   3.080088]
    Electron size [Ang]:            3.229186
      Cartesian components [Ang]: [  0.729672,   0.609722,   3.086010]
--------------------------------------------------------------------------------

--------------------------------------------------------------------------------
                                 MP(3) Summary                                  
--------------------------------------------------------------------------------
  MP energy contribution:                                   -0.0281736429 a.u.
  Total energy:                                            -78.8130059580 a.u.
--------------------------------------------------------------------------------
  Starting Davidson for singlet states of irrep B2 ... 
--------------------------------------------------------------------------------
   It NVec Conv  Avg. Norm  Max. Norm  Conv. states           Remark
--------------------------------------------------------------------------------
       100    0  9.143e-02  4.266e-01  0.0609 n n n n n n n n Guess.
    1  110    0  2.274e-02  1.568e-01  0.0315 n n n n n n n n 
    2  120    0  1.546e-02  9.681e-02  0.0313 n n n n n n n n 
    3  130    0  2.167e-02  1.569e-01  0.0313 n n n n n n n n 
    4  140    0  1.275e-02  1.036e-01  0.0313 n n n n n n n n 
    5  150    0  5.629e-03  5.177e-02  0.0313 n n n n n n n n 
    6  160    1  4.495e-03  3.836e-02  0.0313 y n n n n n n n 
    7  170    2  5.607e-03  5.116e-02  0.0313 y y n n n n n n 
    8  180    3  2.497e-03  2.295e-02  0.0313 y y y n n n n n 
    9  190    4  1.168e-03  1.084e-02  0.0313 y y y n n y n n 
   10  200    4  5.278e-04  4.956e-03  0.0313 y y y n n y n n 
   11   20    6  1.824e-04  1.711e-03  0.0313 y y y y y y n n Subspace collapsed.
   12   30    6  9.973e-05  9.377e-04  0.0313 y y y y y y n n 
   13   40    6  5.363e-05  5.002e-04  0.0313 y y y y y y n n 
   14   50    6  3.612e-05  3.377e-04  0.0313 y y y y y y n n 
   15   60    6  2.286e-05  2.125e-04  0.0313 y y y y y y n n 
   16   70    7  1.325e-05  1.232e-04  0.0313 y y y y y y y n 
   17   80    7  6.857e-06  6.294e-05  0.0313 y y y y y y y n 
   18   90    8  3.184e-06  2.870e-05  0.0313 y y y y y y y y 
   19  100    9  1.332e-06  1.162e-05  0.0313 y y y y y y y y 
   20  110   10  6.389e-07  5.664e-06  0.0313 y y y y y y y y Converged.
--------------------------------------------------------------------------------
  Davidson Summary: 
 ------------------------------------------------------------
  State  0: excitation energy =   0.0313 a.u.   (converged)
  State  1: excitation energy =   0.0406 a.u.   (converged)
  State  2: excitation energy =   0.0901 a.u.   (converged)
  State  3: excitation energy =   0.1828 a.u.   (converged)
  State  4: excitation energy =   0.1912 a.u.   (converged)
  State  5: excitation energy =   0.2106 a.u.   (converged)
  State  6: excitation energy =   0.2691 a.u.   (converged)
  State  7: excitation energy =   0.2741 a.u.   (converged)
  State  8: excitation energy =   0.2767 a.u.   (converged)
  State  9: excitation energy =   0.2803 a.u.   (converged)
 ------------------------------------------------------------


--------------------------------------------------------------------------------
                   State-averaged natural transition orbitals
--------------------------------------------------------------------------------
--------------------------------------------------------------------------------

--------------------------------------------------------------------------------
                             Excited State Summary
--------------------------------------------------------------------------------
--------------------------------------------------------------------------------

  Excited state 1 (singlet, B2)                                    [converged]
  ----------------------------------------------------------------------------
  Term symbol:  1 (1) B2                                    R^2 =  1.64977e-14

  Total energy:                                            -78.7817097135 a.u.
  Excitation energy:                                               0.851614 eV

  Osc. strength:                                                      0.000000
  Trans. dip. moment [a.u.]:           [  -0.000000,   -0.001317,    0.000000]
  <i|r^2|0> [a.u.]:                    [   0.000000,    0.000000,    0.000000]

  Dip. moment [a.u.]:                  [   0.000000,    0.000000,   -1.182613]
  Total dipole [Debye]:                                               3.005904
  <r^2> [a.u.]:                        [  36.415668,   52.241010,  446.489294]
  Total <r^2> [a.u.]:                                               535.145972

  V1^2 = 0.9562, V2^2 = 0.0438

  Important amplitudes:
      occ i      occ j       vir a       vir b          v   
    ---------------------------------------------------------
     6 (A1) A               2 (B2) A                 -0.6369
     6 (A1) A               3 (B2) A                 -0.2674
    ---------------------------------------------------------

  Density matrix analysis:
  ------------------------
  NOs
    Occupation of frontier NOs:
       0.9956   1.0028
    Number of electrons: 18.000000
    Number of unpaired electrons: n_u =  2.41051, n_u,nl =  2.04840
    NO participation ratio (PR_NO):  2.907793
  
  
  Mulliken Population Analysis
  Atom      Charge (e)              h+              e-           Del q
  --------------------------------------------------------------------
   1 C       -0.643395        0.034990       -0.502739       -0.467750
   2 C       -0.649662        0.027686       -0.502540       -0.474854
   3 H        0.073124       -0.001530       -0.006591       -0.008122
   4 H        0.073397       -0.000652       -0.019616       -0.020268
   5 H        0.073124       -0.001530       -0.006591       -0.008122
   6 H        0.073397       -0.000652       -0.019616       -0.020268
   7 H        0.000016        1.061335       -0.061952        0.999383
  --------------------------------------------------------------------
  Sum:       -1.000000        1.119645       -1.119645        0.000000
  
  Multipole moment analysis of the density matrix
    Molecular charge:                      -1.000000
    Number of electrons:                   18.000000
      Center of electronic charge [Ang]: [ -0.000000,  -0.000000,   0.034767]
    Total nuclear charge:                  17.000000
      Center of nuclear charge [Ang]:    [ -0.000000,   0.000000,  -0.000000]
    Dipole moment [D]:                     3.005903
      Cartesian components [D]:          [  0.000000,   0.000000,  -3.005903]
    RMS size of the density [Ang]:         2.885157
      Cartesian components [Ang]:        [  0.752678,   0.901510,   2.635315]
  
  Exciton analysis of the difference density matrix
    <r_h> [Ang]:                  [ -0.000000,   0.000000,  -9.490663]
    <r_e> [Ang]:                  [  0.000000,   0.000000,  -0.008659]
    |<r_e - r_h>| [Ang]:            9.482003
    Hole size [Ang]:                2.664152
      Cartesian components [Ang]: [  0.734844,   0.736063,   2.452737]
    Electron size [Ang]:            4.774140
      Cartesian components [Ang]: [  1.838315,   3.149496,   3.081182]

  Transition density matrix analysis:
  -----------------------------------
  
  CT numbers (Mulliken)
    omega =     0.9501
    <Phe> =     0.0001
  
  Exciton analysis of the transition density matrix
    Trans. dipole moment [D]:             0.001674
      Cartesian components [D]:         [ -0.000000,  -0.001674,   0.000000]
    <r_h> [Ang]:                        [ -0.000000,   0.000000, -10.034674]
    <r_e> [Ang]:                        [ -0.000000,  -0.000000,   0.622808]
    |<r_e - r_h>| [Ang]:                 10.657482
    Hole size [Ang]:                      1.123522
      Cartesian components [Ang]:       [  0.644066,   0.644052,   0.657783]
    Electron size [Ang]:                  4.315324
      Cartesian components [Ang]:       [  1.920816,   3.327011,   1.965576]
    RMS electron-hole separation [Ang]:  11.553061
      Cartesian components [Ang]:       [  2.025921,   3.388773,  10.857490]
    Covariance(r_h, r_e) [Ang^2]:        -0.003487
    Correlation coefficient:             -0.000719
    Center-of-mass size [Ang]:            2.229201
      Cartesian components [Ang]:       [  1.012960,   1.694390,   1.035516]

  Decomposition into state-averaged NTOs
    H- 0 -> L+ 1: -0.5514 ( 60.8%)
    H- 0 -> L+ 0: -0.3662 ( 26.8%)
    H- 0 -> L+ 3: -0.1883 (  7.1%)
                   omega =  95.0%
  ----------------------------------------------------------------------------


  Excited state 2 (singlet, B2)                                    [converged]
  ----------------------------------------------------------------------------
  Term symbol:  2 (1) B2                                    R^2 =  4.28588e-14

  Total energy:                                            -78.7724537455 a.u.
  Excitation energy:                                               1.103482 eV

  Osc. strength:                                                      0.000062
  Trans. dip. moment [a.u.]:           [  -0.000000,    0.048068,   -0.000000]
  <i|r^2|0> [a.u.]:                    [   0.000000,    0.000000,   -0.000000]

  Dip. moment [a.u.]:                  [   0.000000,    0.000000,   -1.189736]
  Total dipole [Debye]:                                               3.024008
  <r^2> [a.u.]:                        [  32.175405,   38.822966,  459.289442]
  Total <r^2> [a.u.]:                                               530.287813

  V1^2 = 0.9444, V2^2 = 0.0556

  Important amplitudes:
      occ i      occ j       vir a       vir b          v   
    ---------------------------------------------------------
     6 (A1) A               3 (B2) A                 -0.6257
     6 (A1) A               2 (B2) A                  0.2578
    ---------------------------------------------------------

  Density matrix analysis:
  ------------------------
  NOs
    Occupation of frontier NOs:
       0.9895   1.0022
    Number of electrons: 18.000000
    Number of unpaired electrons: n_u =  2.42189, n_u,nl =  2.05005
    NO participation ratio (PR_NO):  2.950725
  
  
  Mulliken Population Analysis
  Atom      Charge (e)              h+              e-           Del q
  --------------------------------------------------------------------
   1 C       -0.639778        0.074486       -0.538618       -0.464132
   2 C       -0.640010        0.063097       -0.528298       -0.465201
   3 H        0.069803        0.002693       -0.014136       -0.011443
   4 H        0.070081        0.002761       -0.026345       -0.023584
   5 H        0.069803        0.002693       -0.014136       -0.011443
   6 H        0.070081        0.002761       -0.026345       -0.023584
   7 H        0.000020        1.059238       -0.059850        0.999388
  --------------------------------------------------------------------
  Sum:       -1.000000        1.207728       -1.207728        0.000000
  
  Multipole moment analysis of the density matrix
    Molecular charge:                      -1.000000
    Number of electrons:                   18.000000
      Center of electronic charge [Ang]: [ -0.000000,  -0.000000,   0.034977]
    Total nuclear charge:                  17.000000
      Center of nuclear charge [Ang]:    [ -0.000000,   0.000000,  -0.000000]
    Dipole moment [D]:                     3.024007
      Cartesian components [D]:          [  0.000000,   0.000000,  -3.024007]
    RMS size of the density [Ang]:         2.872027
      Cartesian components [Ang]:        [  0.707501,   0.777158,   2.672827]
  
  Exciton analysis of the difference density matrix
    <r_h> [Ang]:                  [ -0.000000,   0.000000,  -8.733579]
    <r_e> [Ang]:                  [ -0.000000,  -0.000000,   0.059998]
    |<r_e - r_h>| [Ang]:            8.793577
    Hole size [Ang]:                3.743398
      Cartesian components [Ang]: [  0.766643,   0.802272,   3.575143]
    Electron size [Ang]:            4.495006
      Cartesian components [Ang]: [  1.495626,   2.495213,   3.426674]

  Transition density matrix analysis:
  -----------------------------------
  
  CT numbers (Mulliken)
    omega =     0.9354
    <Phe> =     0.0001
  
  Exciton analysis of the transition density matrix
    Trans. dipole moment [D]:             0.061089
      Cartesian components [D]:         [ -0.000000,   0.061089,  -0.000000]
    <r_h> [Ang]:                        [ -0.000000,   0.000000, -10.034993]
    <r_e> [Ang]:                        [  0.000000,  -0.000000,   0.622214]
    |<r_e - r_h>| [Ang]:                 10.657207
    Hole size [Ang]:                      1.121905
      Cartesian components [Ang]:       [  0.644022,   0.643997,   0.655113]
    Electron size [Ang]:                  4.139140
      Cartesian components [Ang]:       [  1.554579,   2.689901,   2.734996]
    RMS electron-hole separation [Ang]:  11.487703
      Cartesian components [Ang]:       [  1.682700,   2.765911,  11.022049]
    Covariance(r_h, r_e) [Ang^2]:        -0.000051
    Correlation coefficient:             -0.000011
    Center-of-mass size [Ang]:            2.144239
      Cartesian components [Ang]:       [  0.841350,   1.382961,   1.406168]

  Decomposition into state-averaged NTOs
    H- 0 -> L+ 0: -0.4753 ( 45.2%)
    H- 0 -> L+ 2:  0.3508 ( 24.6%)
    H- 0 -> L+ 1:  0.3041 ( 18.5%)
    H- 0 -> L+ 5: -0.1225 (  3.0%)
    H- 0 -> L+ 3:  0.1061 (  2.3%)
                   omega =  93.5%
  ----------------------------------------------------------------------------


  Excited state 3 (singlet, B2)                                    [converged]
  ----------------------------------------------------------------------------
  Term symbol:  3 (1) B2                                    R^2 =  8.13691e-13

  Total energy:                                            -78.7229284492 a.u.
  Excitation energy:                                               2.451134 eV

  Osc. strength:                                                      0.000072
  Trans. dip. moment [a.u.]:           [  -0.000000,    0.034716,    0.000000]
  <i|r^2|0> [a.u.]:                    [   0.000000,    0.000000,    0.000000]

  Dip. moment [a.u.]:                  [   0.000000,   -0.000000,   -1.186256]
  Total dipole [Debye]:                                               3.015163
  <r^2> [a.u.]:                        [  30.090307,   30.469418,  450.684723]
  Total <r^2> [a.u.]:                                               511.244448

  V1^2 = 0.8963, V2^2 = 0.1037

  Important amplitudes:
      occ i      occ j       vir a       vir b          v   
    ---------------------------------------------------------
     6 (A1) A               4 (B2) A                  0.6495
     6 (A1) A               3 (B2) A                 -0.1178
    ---------------------------------------------------------

  Density matrix analysis:
  ------------------------
  NOs
    Occupation of frontier NOs:
       0.9776   0.9999
    Number of electrons: 18.000000
    Number of unpaired electrons: n_u =  2.46506, n_u,nl =  2.06126
    NO participation ratio (PR_NO):  3.081716
  
  
  Mulliken Population Analysis
  Atom      Charge (e)              h+              e-           Del q
  --------------------------------------------------------------------
   1 C       -0.562536        0.183564       -0.570454       -0.386890
   2 C       -0.567013        0.199460       -0.591665       -0.392205
   3 H        0.032071        0.007923       -0.057098       -0.049175
   4 H        0.032684        0.008109       -0.069090       -0.060981
   5 H        0.032071        0.007923       -0.057098       -0.049175
   6 H        0.032684        0.008109       -0.069090       -0.060981
   7 H        0.000039        1.051197       -0.051791        0.999406
  --------------------------------------------------------------------
  Sum:       -1.000000        1.466286       -1.466286        0.000000
  
  Multipole moment analysis of the density matrix
    Molecular charge:                      -1.000000
    Number of electrons:                   18.000000
      Center of electronic charge [Ang]: [ -0.000000,   0.000000,   0.034874]
    Total nuclear charge:                  17.000000
      Center of nuclear charge [Ang]:    [ -0.000000,   0.000000,  -0.000000]
    Dipole moment [D]:                     3.015162
      Cartesian components [D]:          [  0.000000,  -0.000000,  -3.015162]
    RMS size of the density [Ang]:         2.819980
      Cartesian components [Ang]:        [  0.684192,   0.688489,   2.647669]
  
  Exciton analysis of the difference density matrix
    <r_h> [Ang]:                  [ -0.000000,   0.000000,  -7.037205]
    <r_e> [Ang]:                  [ -0.000000,   0.000000,   0.204499]
    |<r_e - r_h>| [Ang]:            7.241704
    Hole size [Ang]:                4.987203
      Cartesian components [Ang]: [  0.783592,   0.837570,   4.853520]
    Electron size [Ang]:            3.604655
      Cartesian components [Ang]: [  1.254656,   1.924641,   2.777612]

  Transition density matrix analysis:
  -----------------------------------
  
  CT numbers (Mulliken)
    omega =     0.8803
    <Phe> =     0.0000
  
  Exciton analysis of the transition density matrix
    Trans. dipole moment [D]:             0.044120
      Cartesian components [D]:         [ -0.000000,   0.044120,   0.000000]
    <r_h> [Ang]:                        [ -0.000000,   0.000000, -10.034992]
    <r_e> [Ang]:                        [ -0.000000,   0.000000,   0.620180]
    |<r_e - r_h>| [Ang]:                 10.655172
    Hole size [Ang]:                      1.121580
      Cartesian components [Ang]:       [  0.643829,   0.643804,   0.654938]
    Electron size [Ang]:                  3.337605
      Cartesian components [Ang]:       [  1.252507,   2.157038,   2.217660]
    RMS electron-hole separation [Ang]:  11.221872
      Cartesian components [Ang]:       [  1.408293,   2.251060,  10.903204]
    Covariance(r_h, r_e) [Ang^2]:        -0.000083
    Correlation coefficient:             -0.000022
    Center-of-mass size [Ang]:            1.760496
      Cartesian components [Ang]:       [  0.704147,   1.125536,   1.156154]

  Decomposition into state-averaged NTOs
    H- 0 -> L+ 2: -0.4180 ( 35.0%)
    H- 0 -> L+ 5:  0.3165 ( 20.0%)
    H- 0 -> L+ 0: -0.3147 ( 19.8%)
    H- 0 -> L+ 1:  0.2206 (  9.7%)
    H- 0 -> L+ 3: -0.1323 (  3.5%)
                   omega =  88.0%
  ----------------------------------------------------------------------------


  Excited state 4 (singlet, B2)                                    [converged]
  ----------------------------------------------------------------------------
  Term symbol:  4 (1) B2                                    R^2 =  2.12877e-10

  Total energy:                                            -78.6302372450 a.u.
  Excitation energy:                                               4.973390 eV

  Osc. strength:                                                      0.000003
  Trans. dip. moment [a.u.]:           [  -0.000000,    0.004578,    0.000000]
  <i|r^2|0> [a.u.]:                    [  -0.000000,   -0.000000,    0.000000]

  Dip. moment [a.u.]:                  [   0.000000,   -0.000000,   -1.001811]
  Total dipole [Debye]:                                               2.546350
  <r^2> [a.u.]:                        [  36.988975,   53.070814,  448.693888]
  Total <r^2> [a.u.]:                                               538.753677

  V1^2 = 0.0401, V2^2 = 0.9599

  Important amplitudes:
      occ i      occ j       vir a       vir b          v   
    ---------------------------------------------------------
     6 (A1) A   1 (B2) B    4 (B2) A    2 (B2) B      0.2124
     6 (A1) A               4 (B2) A                  0.1255
    ---------------------------------------------------------

  Density matrix analysis:
  ------------------------
  NOs
    Occupation of frontier NOs:
       0.9877   1.0070
    Number of electrons: 18.000000
    Number of unpaired electrons: n_u =  4.03486, n_u,nl =  3.93121
    NO participation ratio (PR_NO):  4.789796
  
  
  Mulliken Population Analysis
  Atom      Charge (e)              h+              e-           Del q
  --------------------------------------------------------------------
   1 C       -0.571452        0.497490       -0.893297       -0.395806
   2 C       -0.744721        0.481149       -1.051062       -0.569913
   3 H        0.073086        0.002773       -0.010933       -0.008159
   4 H        0.084841        0.002564       -0.011389       -0.008824
   5 H        0.073086        0.002773       -0.010933       -0.008159
   6 H        0.084841        0.002564       -0.011389       -0.008824
   7 H        0.000319        1.001296       -0.001610        0.999687
  --------------------------------------------------------------------
  Sum:       -1.000000        1.990611       -1.990611        0.000000
  
  Multipole moment analysis of the density matrix
    Molecular charge:                      -1.000000
    Number of electrons:                   18.000000
      Center of electronic charge [Ang]: [ -0.000000,   0.000000,   0.029452]
    Total nuclear charge:                  17.000000
      Center of nuclear charge [Ang]:    [ -0.000000,   0.000000,  -0.000000]
    Dipole moment [D]:                     2.546349
      Cartesian components [D]:          [  0.000000,  -0.000000,  -2.546349]
    RMS size of the density [Ang]:         2.894926
      Cartesian components [Ang]:        [  0.758579,   0.908642,   2.641879]
  
  Exciton analysis of the difference density matrix
    <r_h> [Ang]:                  [ -0.000000,  -0.000000,  -4.731717]
    <r_e> [Ang]:                  [ -0.000000,   0.000000,   0.553496]
    |<r_e - r_h>| [Ang]:            5.285213
    Hole size [Ang]:                5.479318
      Cartesian components [Ang]: [  0.606154,   0.802629,   5.386213]
    Electron size [Ang]:            3.283048
      Cartesian components [Ang]: [  1.430082,   2.456718,   1.642500]

  Transition density matrix analysis:
  -----------------------------------
  
  CT numbers (Mulliken)
    omega =     0.0397
    <Phe> =     0.0000
  
  Exciton analysis of the transition density matrix
    Trans. dipole moment [D]:             0.005818
      Cartesian components [D]:         [ -0.000000,   0.005818,   0.000000]
    <r_h> [Ang]:                        [ -0.000000,   0.000000, -10.034898]
    <r_e> [Ang]:                        [ -0.000000,   0.000000,   0.646845]
    |<r_e - r_h>| [Ang]:                 10.681743
    Hole size [Ang]:                      1.123190
      Cartesian components [Ang]:       [  0.644476,   0.644455,   0.656417]
    Electron size [Ang]:                  3.396580
      Cartesian components [Ang]:       [  1.278765,   2.203563,   2.246292]
    RMS electron-hole separation [Ang]:  11.265006
      Cartesian components [Ang]:       [  1.431988,   2.295863,  10.935209]
    Covariance(r_h, r_e) [Ang^2]:        -0.001212
    Correlation coefficient:             -0.000318
    Center-of-mass size [Ang]:            1.788567
      Cartesian components [Ang]:       [  0.715994,   1.147937,   1.169857]

  Decomposition into state-averaged NTOs
    H- 0 -> L+ 2: -0.1282 (  3.3%)
                   omega =   4.0%
  ----------------------------------------------------------------------------


  Excited state 5 (singlet, B2)                                    [converged]
  ----------------------------------------------------------------------------
  Term symbol:  5 (1) B2                                    R^2 =  3.94364e-10

  Total energy:                                            -78.6218499286 a.u.
  Excitation energy:                                               5.201620 eV

  Osc. strength:                                                      0.000000
  Trans. dip. moment [a.u.]:           [  -0.000000,    0.000414,   -0.000000]
  <i|r^2|0> [a.u.]:                    [   0.000000,   -0.000000,    0.000000]

  Dip. moment [a.u.]:                  [   0.000000,    0.000000,   -1.445178]
  Total dipole [Debye]:                                               3.673277
  <r^2> [a.u.]:                        [  34.239265,   45.061173,  467.766766]
  Total <r^2> [a.u.]:                                               547.067204

  V1^2 = 0.0017, V2^2 = 0.9983

  Important amplitudes:
      occ i      occ j       vir a       vir b          v   
    ---------------------------------------------------------
     6 (A1) A   1 (B2) B    4 (B2) A    3 (B2) B     -0.2041
     6 (A1) A   1 (B2) B    3 (B2) A    3 (B2) B     -0.1459
    ---------------------------------------------------------

  Density matrix analysis:
  ------------------------
  NOs
    Occupation of frontier NOs:
       0.9468   0.9887
    Number of electrons: 18.000000
    Number of unpaired electrons: n_u =  3.40414, n_u,nl =  3.33616
    NO participation ratio (PR_NO):  4.597352
  
  
  Mulliken Population Analysis
  Atom      Charge (e)              h+              e-           Del q
  --------------------------------------------------------------------
   1 C       -0.721325        0.503037       -1.048716       -0.545679
   2 C       -0.622636        0.482583       -0.930411       -0.447828
   3 H        0.079896        0.003310       -0.004660       -0.001350
   4 H        0.091919        0.003150       -0.004897       -0.001746
   5 H        0.079896        0.003310       -0.004660       -0.001350
   6 H        0.091919        0.003150       -0.004897       -0.001746
   7 H        0.000332        0.999748       -0.000048        0.999699
  --------------------------------------------------------------------
  Sum:       -1.000000        1.998288       -1.998288        0.000000
  
  Multipole moment analysis of the density matrix
    Molecular charge:                      -1.000000
    Number of electrons:                   18.000000
      Center of electronic charge [Ang]: [ -0.000000,  -0.000000,   0.042486]
    Total nuclear charge:                  17.000000
      Center of nuclear charge [Ang]:    [ -0.000000,   0.000000,  -0.000000]
    Dipole moment [D]:                     3.673276
      Cartesian components [D]:          [  0.000000,   0.000000,  -3.673276]
    RMS size of the density [Ang]:         2.917018
      Cartesian components [Ang]:        [  0.729839,   0.837271,   2.697278]
  
  Exciton analysis of the difference density matrix
    <r_h> [Ang]:                  [ -0.000000,  -0.000000,  -4.702287]
    <r_e> [Ang]:                  [  0.000000,  -0.000000,   0.680031]
    |<r_e - r_h>| [Ang]:            5.382318
    Hole size [Ang]:                5.468124
      Cartesian components [Ang]: [  0.580670,   0.760544,   5.383751]
    Electron size [Ang]:            3.397929
      Cartesian components [Ang]: [  1.274015,   2.196939,   2.257491]

  Transition density matrix analysis:
  -----------------------------------
  
  CT numbers (Mulliken)
    omega =     0.0021
    <Phe> =     0.0088
  
  Exciton analysis of the transition density matrix
    Trans. dipole moment [D]:             0.000526
      Cartesian components [D]:         [ -0.000000,   0.000526,  -0.000000]
    <r_h> [Ang]:                        [ -0.000000,  -0.000000,  -8.120708]
    <r_e> [Ang]:                        [ -0.000000,   0.000000,  -1.543685]
    |<r_e - r_h>| [Ang]:                  6.577022
    Hole size [Ang]:                      4.252540
      Cartesian components [Ang]:       [  0.621882,   0.688606,   4.150082]
    Electron size [Ang]:                  5.063339
      Cartesian components [Ang]:       [  1.415039,   2.419878,   4.216545]
    RMS electron-hole separation [Ang]:  10.931123
      Cartesian components [Ang]:       [  1.545663,   2.515942,  10.524753]
    Covariance(r_h, r_e) [Ang^2]:       -16.255371
    Correlation coefficient:             -0.754938
    Center-of-mass size [Ang]:            1.674123
      Cartesian components [Ang]:       [  0.772831,   1.257976,   0.789251]

  Decomposition into state-averaged NTOs
                   omega =   0.2%
  ----------------------------------------------------------------------------


  Excited state 6 (singlet, B2)                                    [converged]
  ----------------------------------------------------------------------------
  Term symbol:  6 (1) B2                                    R^2 =  5.13509e-11

  Total energy:                                            -78.6024473426 a.u.
  Excitation energy:                                               5.729591 eV

  Osc. strength:                                                      0.000002
  Trans. dip. moment [a.u.]:           [   0.000000,   -0.003449,    0.000000]
  <i|r^2|0> [a.u.]:                    [   0.000000,    0.000000,   -0.000000]

  Dip. moment [a.u.]:                  [   0.000000,    0.000000,   -1.184543]
  Total dipole [Debye]:                                               3.010810
  <r^2> [a.u.]:                        [  31.793729,   37.003793,  441.586061]
  Total <r^2> [a.u.]:                                               510.383583

  V1^2 = 0.9209, V2^2 = 0.0791

  Important amplitudes:
      occ i      occ j       vir a       vir b          v   
    ---------------------------------------------------------
     6 (A1) A               5 (B2) A                 -0.6764
     6 (A1) A   6 (A1) B   19 (A1) A    5 (B2) B      0.0661
    ---------------------------------------------------------

  Density matrix analysis:
  ------------------------
  NOs
    Occupation of frontier NOs:
       0.9634   1.0010
    Number of electrons: 18.000000
    Number of unpaired electrons: n_u =  2.47866, n_u,nl =  2.07543
    NO participation ratio (PR_NO):  3.155762
  
  
  Mulliken Population Analysis
  Atom      Charge (e)              h+              e-           Del q
  --------------------------------------------------------------------
   1 C       -0.597679        0.097093       -0.519127       -0.422034
   2 C       -0.605349        0.096943       -0.527484       -0.430541
   3 H        0.050322       -0.001799       -0.029125       -0.030924
   4 H        0.051178       -0.001116       -0.041371       -0.042487
   5 H        0.050322       -0.001799       -0.029125       -0.030924
   6 H        0.051178       -0.001116       -0.041371       -0.042487
   7 H        0.000029        1.055458       -0.056062        0.999396
  --------------------------------------------------------------------
  Sum:       -1.000000        1.243664       -1.243664        0.000000
  
  Multipole moment analysis of the density matrix
    Molecular charge:                      -1.000000
    Number of electrons:                   18.000000
      Center of electronic charge [Ang]: [ -0.000000,  -0.000000,   0.034824]
    Total nuclear charge:                  17.000000
      Center of nuclear charge [Ang]:    [ -0.000000,   0.000000,  -0.000000]
    Dipole moment [D]:                     3.010809
      Cartesian components [D]:          [  0.000000,   0.000000,  -3.010809]
    RMS size of the density [Ang]:         2.817605
      Cartesian components [Ang]:        [  0.703292,   0.758731,   2.620802]
  
  Exciton analysis of the difference density matrix
    <r_h> [Ang]:                  [ -0.000000,   0.000000,  -8.437646]
    <r_e> [Ang]:                  [ -0.000000,   0.000000,   0.099631]
    |<r_e - r_h>| [Ang]:            8.537276
    Hole size [Ang]:                4.022057
      Cartesian components [Ang]: [  0.755164,   0.780030,   3.872753]
    Electron size [Ang]:            3.850242
      Cartesian components [Ang]: [  1.444243,   2.370649,   2.668061]

  Transition density matrix analysis:
  -----------------------------------
  
  CT numbers (Mulliken)
    omega =     0.9137
    <Phe> =     0.0003
  
  Exciton analysis of the transition density matrix
    Trans. dipole moment [D]:             0.004383
      Cartesian components [D]:         [  0.000000,  -0.004383,   0.000000]
    <r_h> [Ang]:                        [ -0.000000,   0.000000, -10.032292]
    <r_e> [Ang]:                        [ -0.000000,  -0.000000,   0.620731]
    |<r_e - r_h>| [Ang]:                 10.653023
    Hole size [Ang]:                      1.134582
      Cartesian components [Ang]:       [  0.643905,   0.643976,   0.676725]
    Electron size [Ang]:                  3.365254
      Cartesian components [Ang]:       [  1.501328,   2.598445,   1.522838]
    RMS electron-hole separation [Ang]:  11.231957
      Cartesian components [Ang]:       [  1.633585,   2.677051,  10.785252]
    Covariance(r_h, r_e) [Ang^2]:        -0.028870
    Correlation coefficient:             -0.007561
    Center-of-mass size [Ang]:            1.771615
      Cartesian components [Ang]:       [  0.816792,   1.338529,   0.824505]

  Decomposition into state-averaged NTOs
    H- 0 -> L+ 3: -0.6181 ( 76.4%)
    H- 0 -> L+ 2:  0.1913 (  7.3%)
    H- 0 -> L+ 1:  0.1617 (  5.2%)
    H- 0 -> L+ 0:  0.1090 (  2.4%)
                   omega =  91.4%
  ----------------------------------------------------------------------------


  Excited state 7 (singlet, B2)                                    [converged]
  ----------------------------------------------------------------------------
  Term symbol:  7 (1) B2                                    R^2 =  5.66814e-07

  Total energy:                                            -78.5439432273 a.u.
  Excitation energy:                                               7.321569 eV

  Osc. strength:                                                      0.000072
  Trans. dip. moment [a.u.]:           [  -0.000000,    0.019986,   -0.000000]
  <i|r^2|0> [a.u.]:                    [  -0.000000,   -0.000000,   -0.000000]

  Dip. moment [a.u.]:                  [   0.000000,   -0.000000,   -1.180246]
  Total dipole [Debye]:                                               2.999886
  <r^2> [a.u.]:                        [  30.997600,   31.640803,  452.533378]
  Total <r^2> [a.u.]:                                               515.171781

  V1^2 = 0.7786, V2^2 = 0.2214

  Important amplitudes:
      occ i      occ j       vir a       vir b          v   
    ---------------------------------------------------------
     6 (A1) A               6 (B2) A                  0.6147
     6 (A1) A               4 (B2) A                  0.0984
    ---------------------------------------------------------

  Density matrix analysis:
  ------------------------
  NOs
    Occupation of frontier NOs:
       0.8222   0.9952
    Number of electrons: 18.000000
    Number of unpaired electrons: n_u =  2.77247, n_u,nl =  2.24265
    NO participation ratio (PR_NO):  4.376935
  
  
  Mulliken Population Analysis
  Atom      Charge (e)              h+              e-           Del q
  --------------------------------------------------------------------
   1 C       -0.605796        0.156767       -0.586917       -0.430150
   2 C       -0.612907        0.159498       -0.597597       -0.438099
   3 H        0.053407       -0.001034       -0.026804       -0.027838
   4 H        0.055915       -0.000950       -0.036800       -0.037750
   5 H        0.053407       -0.001034       -0.026804       -0.027838
   6 H        0.055915       -0.000950       -0.036800       -0.037750
   7 H        0.000059        1.041634       -0.042208        0.999426
  --------------------------------------------------------------------
  Sum:       -1.000000        1.353931       -1.353931        0.000000
  
  Multipole moment analysis of the density matrix
    Molecular charge:                      -1.000000
    Number of electrons:                   18.000000
      Center of electronic charge [Ang]: [ -0.000000,   0.000000,   0.034698]
    Total nuclear charge:                  17.000000
      Center of nuclear charge [Ang]:    [ -0.000000,   0.000000,  -0.000000]
    Dipole moment [D]:                     2.999886
      Cartesian components [D]:          [  0.000000,  -0.000000,  -2.999886]
    RMS size of the density [Ang]:         2.830794
      Cartesian components [Ang]:        [  0.694431,   0.701598,   2.653097]
  
  Exciton analysis of the difference density matrix
    <r_h> [Ang]:                  [ -0.000000,   0.000000,  -7.580698]
    <r_e> [Ang]:                  [ -0.000000,  -0.000000,   0.259602]
    |<r_e - r_h>| [Ang]:            7.840300
    Hole size [Ang]:                4.662526
      Cartesian components [Ang]: [  0.707201,   0.719068,   4.552138]
    Electron size [Ang]:            3.674247
      Cartesian components [Ang]: [  1.314384,   2.002805,   2.785904]

  Transition density matrix analysis:
  -----------------------------------
  
  CT numbers (Mulliken)
    omega =     0.7708
    <Phe> =     0.0000
  
  Exciton analysis of the transition density matrix
    Trans. dipole moment [D]:             0.025400
      Cartesian components [D]:         [ -0.000000,   0.025400,  -0.000000]
    <r_h> [Ang]:                        [ -0.000000,   0.000000, -10.034313]
    <r_e> [Ang]:                        [  0.000000,   0.000000,   0.621945]
    |<r_e - r_h>| [Ang]:                 10.656258
    Hole size [Ang]:                      1.124792
      Cartesian components [Ang]:       [  0.643800,   0.643799,   0.660456]
    Electron size [Ang]:                  3.336660
      Cartesian components [Ang]:       [  1.255207,   2.174027,   2.198036]
    RMS electron-hole separation [Ang]:  11.222823
      Cartesian components [Ang]:       [  1.410682,   2.267342,  10.900500]
    Covariance(r_h, r_e) [Ang^2]:         0.001266
    Correlation coefficient:              0.000337
    Center-of-mass size [Ang]:            1.760752
      Cartesian components [Ang]:       [  0.705341,   1.133678,   1.147831]

  Decomposition into state-averaged NTOs
    H- 0 -> L+ 5: -0.5195 ( 54.0%)
    H- 0 -> L+ 2: -0.3155 ( 19.9%)
    H- 0 -> L+ 3: -0.0815 (  1.3%)
    H- 0 -> L+ 0: -0.0711 (  1.0%)
                   omega =  77.1%
  ----------------------------------------------------------------------------


  Excited state 8 (singlet, B2)                                    [converged]
  ----------------------------------------------------------------------------
  Term symbol:  8 (1) B2                                    R^2 =  1.60914e-06

  Total energy:                                            -78.5389167561 a.u.
  Excitation energy:                                               7.458346 eV

  Osc. strength:                                                      0.000070
  Trans. dip. moment [a.u.]:           [  -0.000000,    0.019639,    0.000000]
  <i|r^2|0> [a.u.]:                    [  -0.000000,    0.000000,   -0.000000]

  Dip. moment [a.u.]:                  [  -0.000000,   -0.000000,   -1.137394]
  Total dipole [Debye]:                                               2.890966
  <r^2> [a.u.]:                        [  42.460894,   30.506610,  503.730488]
  Total <r^2> [a.u.]:                                               576.697993

  V1^2 = 0.0033, V2^2 = 0.9967

  Important amplitudes:
      occ i      occ j       vir a       vir b          v   
    ---------------------------------------------------------
     6 (A1) A   1 (B2) B    7 (A1) A    8 (A1) B     -0.1725
     6 (A1) A   1 (B2) B    7 (A1) A    7 (A1) B     -0.1681
    ---------------------------------------------------------

  Density matrix analysis:
  ------------------------
  NOs
    Occupation of frontier NOs:
       0.9425   0.9888
    Number of electrons: 18.000000
    Number of unpaired electrons: n_u =  3.90785, n_u,nl =  3.84910
    NO participation ratio (PR_NO):  4.901415
  
  
  Mulliken Population Analysis
  Atom      Charge (e)              h+              e-           Del q
  --------------------------------------------------------------------
   1 C       -0.668200        0.503082       -0.995636       -0.492554
   2 C       -0.695818        0.483093       -1.004103       -0.521010
   3 H        0.085120        0.003046        0.000828        0.003874
   4 H        0.097128        0.002819        0.000644        0.003463
   5 H        0.085120        0.003046        0.000828        0.003874
   6 H        0.097128        0.002819        0.000644        0.003463
   7 H       -0.000479        0.999011       -0.000122        0.998889
  --------------------------------------------------------------------
  Sum:       -1.000000        1.996916       -1.996916       -0.000000
  
  Multipole moment analysis of the density matrix
    Molecular charge:                      -1.000000
    Number of electrons:                   18.000000
      Center of electronic charge [Ang]: [  0.000000,   0.000000,   0.033438]
    Total nuclear charge:                  17.000000
      Center of nuclear charge [Ang]:    [ -0.000000,   0.000000,  -0.000000]
    Dipole moment [D]:                     2.890966
      Cartesian components [D]:          [ -0.000000,  -0.000000,  -2.890966]
    RMS size of the density [Ang]:         2.995105
      Cartesian components [Ang]:        [  0.812755,   0.688909,   2.799194]
  
  Exciton analysis of the difference density matrix
    <r_h> [Ang]:                  [ -0.000000,  -0.000000,  -4.701414]
    <r_e> [Ang]:                  [  0.000000,   0.000000,   0.603041]
    |<r_e - r_h>| [Ang]:            5.304455
    Hole size [Ang]:                5.468847
      Cartesian components [Ang]: [  0.580705,   0.762346,   5.384226]
    Electron size [Ang]:            3.971403
      Cartesian components [Ang]: [  1.666422,   1.670692,   3.194350]

  Transition density matrix analysis:
  -----------------------------------
  
  CT numbers (Mulliken)
    omega =     0.0033
    <Phe> =    -0.0022
  
  Exciton analysis of the transition density matrix
    Trans. dipole moment [D]:             0.024959
      Cartesian components [D]:         [ -0.000000,   0.024959,   0.000000]
    <r_h> [Ang]:                        [ -0.000000,  -0.000000,  -6.726801]
    <r_e> [Ang]:                        [  0.000000,   0.000000,   2.013970]
    |<r_e - r_h>| [Ang]:                  8.740771
    Hole size [Ang]:                      5.078524
      Cartesian components [Ang]:       [  0.605990,   0.719177,   4.990688]
    Electron size [Ang]:                  3.013828
      Cartesian components [Ang]:       [  1.448258,   2.156141,   1.528647]
    RMS electron-hole separation [Ang]:  10.277198
      Cartesian components [Ang]:       [  1.569696,   2.270694,   9.899535]
    Covariance(r_h, r_e) [Ang^2]:         2.827429
    Correlation coefficient:              0.184729
    Center-of-mass size [Ang]:            3.183136
      Cartesian components [Ang]:       [  0.785080,   1.137571,   2.867392]

  Decomposition into state-averaged NTOs
                   omega =   0.3%
  ----------------------------------------------------------------------------


  Excited state 9 (singlet, B2)                                    [converged]
  ----------------------------------------------------------------------------
  Term symbol:  9 (1) B2                                    R^2 =  5.66425e-06

  Total energy:                                            -78.5362922918 a.u.
  Excitation energy:                                               7.529762 eV

  Osc. strength:                                                      0.000688
  Trans. dip. moment [a.u.]:           [  -0.000000,    0.061068,    0.000000]
  <i|r^2|0> [a.u.]:                    [  -0.000000,    0.000000,    0.000000]

  Dip. moment [a.u.]:                  [  -0.000000,   -0.000000,   -1.149846]
  Total dipole [Debye]:                                               2.922619
  <r^2> [a.u.]:                        [  42.094172,   31.138163,  494.162776]
  Total <r^2> [a.u.]:                                               567.395111

  V1^2 = 0.0679, V2^2 = 0.9321

  Important amplitudes:
      occ i      occ j       vir a       vir b          v   
    ---------------------------------------------------------
     6 (A1) A   1 (B2) A    7 (A1) A    8 (A1) A      0.1843
     6 (A1) A               6 (B2) A                 -0.1715
    ---------------------------------------------------------

  Density matrix analysis:
  ------------------------
  NOs
    Occupation of frontier NOs:
       0.8649   1.0047
    Number of electrons: 18.000000
    Number of unpaired electrons: n_u =  4.19777, n_u,nl =  3.96681
    NO participation ratio (PR_NO):  5.264097
  
  
  Mulliken Population Analysis
  Atom      Charge (e)              h+              e-           Del q
  --------------------------------------------------------------------
   1 C       -0.725768        0.476793       -1.026915       -0.550122
   2 C       -0.684633        0.456567       -0.966391       -0.509825
   3 H        0.098442        0.002410        0.014786        0.017196
   4 H        0.109574        0.002024        0.013885        0.015909
   5 H        0.098442        0.002410        0.014786        0.017196
   6 H        0.109574        0.002024        0.013885        0.015909
   7 H       -0.005631        0.996771       -0.003035        0.993736
  --------------------------------------------------------------------
  Sum:       -1.000000        1.939000       -1.939000        0.000000
  
  Multipole moment analysis of the density matrix
    Molecular charge:                      -1.000000
    Number of electrons:                   18.000000
      Center of electronic charge [Ang]: [  0.000000,   0.000000,   0.033804]
    Total nuclear charge:                  17.000000
      Center of nuclear charge [Ang]:    [ -0.000000,   0.000000,  -0.000000]
    Dipole moment [D]:                     2.922618
      Cartesian components [D]:          [ -0.000000,  -0.000000,  -2.922618]
    RMS size of the density [Ang]:         2.970842
      Cartesian components [Ang]:        [  0.809237,   0.696003,   2.772475]
  
  Exciton analysis of the difference density matrix
    <r_h> [Ang]:                  [ -0.000000,  -0.000000,  -4.848711]
    <r_e> [Ang]:                  [  0.000000,   0.000000,   0.617582]
    |<r_e - r_h>| [Ang]:            5.466293
    Hole size [Ang]:                5.467828
      Cartesian components [Ang]: [  0.588196,   0.760684,   5.382614]
    Electron size [Ang]:            3.838589
      Cartesian components [Ang]: [  1.675001,   1.716362,   2.997206]

  Transition density matrix analysis:
  -----------------------------------
  
  CT numbers (Mulliken)
    omega =     0.0670
    <Phe> =    -0.0011
  
  Exciton analysis of the transition density matrix
    Trans. dipole moment [D]:             0.077610
      Cartesian components [D]:         [ -0.000000,   0.077610,   0.000000]
    <r_h> [Ang]:                        [ -0.000000,  -0.000000,  -8.903351]
    <r_e> [Ang]:                        [  0.000000,   0.000000,   0.822401]
    |<r_e - r_h>| [Ang]:                  9.725751
    Hole size [Ang]:                      3.479743
      Cartesian components [Ang]:       [  0.631006,   0.670390,   3.355745]
    Electron size [Ang]:                  3.262429
      Cartesian components [Ang]:       [  1.265656,   2.071646,   2.179413]
    RMS electron-hole separation [Ang]:  10.652461
      Cartesian components [Ang]:       [  1.414143,   2.176533,  10.331400]
    Covariance(r_h, r_e) [Ang^2]:         1.933688
    Correlation coefficient:              0.170333
    Center-of-mass size [Ang]:            2.579701
      Cartesian components [Ang]:       [  0.707161,   1.089149,   2.229021]

  Decomposition into state-averaged NTOs
    H- 0 -> L+ 5:  0.1452 (  4.2%)
    H- 0 -> L+ 2:  0.0893 (  1.6%)
                   omega =   6.7%
  ----------------------------------------------------------------------------


  Excited state 10 (singlet, B2)                                    [converged]
  ----------------------------------------------------------------------------
  Term symbol:  10 (1) B2                                   R^2 =  2.41399e-06

  Total energy:                                            -78.5327487641 a.u.
  Excitation energy:                                               7.626186 eV

  Osc. strength:                                                      0.111858
  Trans. dip. moment [a.u.]:           [  -0.000000,    0.773750,    0.000000]
  <i|r^2|0> [a.u.]:                    [  -0.000000,    0.000000,   -0.000000]

  Dip. moment [a.u.]:                  [  -0.000000,    0.000000,   16.006308]
  Total dipole [Debye]:                                              40.683985
  <r^2> [a.u.]:                        [  31.610145,   20.330854,  811.631916]
  Total <r^2> [a.u.]:                                               863.572914

  V1^2 = 0.9292, V2^2 = 0.0708

  Important amplitudes:
      occ i      occ j       vir a       vir b          v   
    ---------------------------------------------------------
     1 (B2) A               9 (A1) A                 -0.4956
     1 (B2) A               7 (A1) A                 -0.4174
    ---------------------------------------------------------

  Density matrix analysis:
  ------------------------
  NOs
    Occupation of frontier NOs:
       0.9806   0.9831
    Number of electrons: 18.000000
    Number of unpaired electrons: n_u =  2.33908, n_u,nl =  2.02880
    NO participation ratio (PR_NO):  2.826502
  
  
  Mulliken Population Analysis
  Atom      Charge (e)              h+              e-           Del q
  --------------------------------------------------------------------
   1 C       -0.100799        0.626385       -0.551538        0.074847
   2 C       -0.604071        0.412155       -0.841418       -0.429262
   3 H        0.173059        0.107849       -0.016036        0.091813
   4 H        0.175328        0.069319        0.012345        0.081663
   5 H        0.173059        0.107849       -0.016036        0.091813
   6 H        0.175328        0.069319        0.012345        0.081663
   7 H       -0.991904        0.047264       -0.039801        0.007463
  --------------------------------------------------------------------
  Sum:       -1.000000        1.440141       -1.440141        0.000000
  
  Multipole moment analysis of the density matrix
    Molecular charge:                      -1.000000
    Number of electrons:                   18.000000
      Center of electronic charge [Ang]: [  0.000000,  -0.000000,  -0.470565]
    Total nuclear charge:                  17.000000
      Center of nuclear charge [Ang]:    [ -0.000000,   0.000000,  -0.000000]
    Dipole moment [D]:                     40.683973
      Cartesian components [D]:          [ -0.000000,   0.000000,  40.683973]
    RMS size of the density [Ang]:         3.635009
      Cartesian components [Ang]:        [  0.701258,   0.562397,   3.522107]
  
  Exciton analysis of the difference density matrix
    <r_h> [Ang]:                  [ -0.000000,   0.000000,   0.376177]
    <r_e> [Ang]:                  [  0.000000,  -0.000000,   1.431972]
    |<r_e - r_h>| [Ang]:            1.055795
    Hole size [Ang]:                2.526367
      Cartesian components [Ang]: [  0.805726,   0.897551,   2.219851]
    Electron size [Ang]:            3.241767
      Cartesian components [Ang]: [  1.386469,   1.375294,   2.587533]

  Transition density matrix analysis:
  -----------------------------------
  
  CT numbers (Mulliken)
    omega =     0.8988
    <Phe> =    -0.0113
  
  Exciton analysis of the transition density matrix
    Trans. dipole moment [D]:             0.983338
      Cartesian components [D]:         [ -0.000000,   0.983338,   0.000000]
    <r_h> [Ang]:                        [  0.000000,  -0.000000,   0.648612]
    <r_e> [Ang]:                        [  0.000000,   0.000000,   2.255945]
    |<r_e - r_h>| [Ang]:                  1.607332
    Hole size [Ang]:                      1.264889
      Cartesian components [Ang]:       [  0.509085,   0.861836,   0.773315]
    Electron size [Ang]:                  2.743659
      Cartesian components [Ang]:       [  1.567533,   1.567177,   1.616929]
    RMS electron-hole separation [Ang]:   3.412030
      Cartesian components [Ang]:       [  1.647334,   1.777579,   2.401761]
    Covariance(r_h, r_e) [Ang^2]:         0.034588
    Correlation coefficient:              0.009966
    Center-of-mass size [Ang]:            1.516310
      Cartesian components [Ang]:       [  0.824461,   0.899698,   0.900002]

  Decomposition into state-averaged NTOs
    H- 1 -> L+ 4: -0.6699 ( 89.8%)
                   omega =  89.9%
  ----------------------------------------------------------------------------


--------------------------------------------------------------------------------
  Time of ADC calculation:  CPU 472.79 s  wall 119.12 s
================================================================================
 
 --------------------------------------------------------------
             Orbital Energies (a.u.) and Symmetries
 --------------------------------------------------------------
 
 Alpha MOs, Restricted
 -- Occupied --                  
-11.187 -11.185  -0.992  -0.732  -0.611  -0.517  -0.465  -0.327
  1 A1    2 A1    3 A1    4 A1    1 B1    5 A1    2 B1    1 B2                 
  0.022
  6 A1                                                                         
 -- Virtual --                   
  0.099   0.103   0.110   0.130   0.131   0.138   0.163   0.201
  7 A1    3 B1    2 B2    3 B2    4 B1    8 A1    9 A1    4 B2                 
  0.247   0.278   0.293   0.299   0.306   0.306   0.321   0.386
 10 A1    5 B1   11 A1    6 B1   12 A1    5 B2   13 A1    6 B2                 
  0.391   0.405   0.578   0.632   0.825   0.906   0.921   0.948
  7 B1   14 A1    8 B1   15 A1   16 A1    9 B1   17 A1   10 B1                 
  0.978   1.017   1.058   1.064   1.082   1.084   1.119   1.164
 18 A1    7 B2   19 A1    8 B2   20 A1   21 A1   11 B1    1 A2                 
  1.334   1.335   1.335   1.407   1.663   1.667   1.761   1.910
  2 A2   22 A1    9 B2   12 B1   23 A1   13 B1   14 B1   10 B2                 
  1.967   1.967   1.967   1.981   1.991   2.067   2.073   2.119
 24 A1   15 B1   11 B2   25 A1   12 B2    3 A2   26 A1   16 B1                 
  2.225   2.372   2.462   2.503   2.622   2.627   2.851   2.860
 13 B2   27 A1    4 A2   28 A1   29 A1   17 B1   18 B1   30 A1                 
  3.287   3.390
 31 A1   19 B1                                                                 
 
 Beta MOs, Restricted
 -- Occupied --                  
-11.187 -11.185  -0.992  -0.732  -0.611  -0.517  -0.465  -0.327
  1 A1    2 A1    3 A1    4 A1    1 B1    5 A1    2 B1    1 B2                 
  0.022
  6 A1                                                                         
 -- Virtual --                   
  0.099   0.103   0.110   0.130   0.131   0.138   0.163   0.201
  7 A1    3 B1    2 B2    3 B2    4 B1    8 A1    9 A1    4 B2                 
  0.247   0.278   0.293   0.299   0.306   0.306   0.321   0.386
 10 A1    5 B1   11 A1    6 B1   12 A1    5 B2   13 A1    6 B2                 
  0.391   0.405   0.578   0.632   0.825   0.906   0.921   0.948
  7 B1   14 A1    8 B1   15 A1   16 A1    9 B1   17 A1   10 B1                 
  0.978   1.017   1.058   1.064   1.082   1.084   1.119   1.164
 18 A1    7 B2   19 A1    8 B2   20 A1   21 A1   11 B1    1 A2                 
  1.334   1.335   1.335   1.407   1.663   1.667   1.761   1.910
  2 A2   22 A1    9 B2   12 B1   23 A1   13 B1   14 B1   10 B2                 
  1.967   1.967   1.967   1.981   1.991   2.067   2.073   2.119
 24 A1   15 B1   11 B2   25 A1   12 B2    3 A2   26 A1   16 B1                 
  2.225   2.372   2.462   2.503   2.622   2.627   2.851   2.860
 13 B2   27 A1    4 A2   28 A1   29 A1   17 B1   18 B1   30 A1                 
  3.287   3.390
 31 A1   19 B1                                                                 
 --------------------------------------------------------------
 
          Ground-State Mulliken Net Atomic Charges

     Atom                 Charge (a.u.)
  ----------------------------------------
      1 C                    -0.165085
      2 C                    -0.156277
      3 H                     0.073948
      4 H                     0.086433
      5 H                     0.073948
      6 H                     0.086433
      7 H                    -0.999400
  ----------------------------------------
  Sum of atomic charges =    -1.000000

 -----------------------------------------------------------------
                    Cartesian Multipole Moments
 -----------------------------------------------------------------
    Charge (ESU x 10^10)
                -4.8032
    Dipole Moment (Debye)
         X       0.0000      Y      -0.0000      Z      47.9735
       Tot      47.9735
    Quadrupole Moments (Debye-Ang)
        XX     -15.9315     XY       0.0000     YY     -20.0913
        XZ      -0.0000     YZ       0.0000     ZZ    -500.7821
    Octopole Moments (Debye-Ang^2)
       XXX       0.0000    XXY       0.0000    XYY       0.0000
       YYY       0.0000    XXZ      31.9702    XYZ       0.0000
       YYZ      29.3932    XZZ       0.0000    YZZ       0.0000
       ZZZ    4948.0809
    Hexadecapole Moments (Debye-Ang^3)
      XXXX     -32.9061   XXXY       0.0000   XXYY     -10.9475
      XYYY       0.0000   YYYY     -27.4693   XXXZ      -0.0000
      XXYZ       0.0000   XYYZ      -0.0000   YYYZ       0.0000
      XXZZ    -418.5062   XYZZ       0.0000   YYZZ    -422.4275
      XZZZ      -0.0000   YZZZ       0.0000   ZZZZ  -51216.7813
 -----------------------------------------------------------------
 Total job time:  201.73s(wall), 519.69s(cpu) 
 Sat Mar 26 15:40:27 2022

        *************************************************************
        *                                                           *
        *  Thank you very much for using Q-Chem.  Have a nice day.  *
        *                                                           *
        *************************************************************


