/src/tsommerfeld/qchem/exe/qcprog.exe .cap.inp.10304.qcin.1 /src/jdavis/qchem.scratch/qchem10304/

                  Welcome to Q-Chem
     A Quantum Leap Into The Future Of Chemistry


 Q-Chem 5.4 (devel), Q-Chem, Inc., Pleasanton, CA (2021)

 E. Epifanovsky,  A. T. B. Gilbert,  Xintian Feng,  Joonho Lee,  Yuezhi Mao,  
 N. Mardirossian,  P. Pokhilko,  A. White,  M. Wormit,  M. P. Coons,  
 A. L. Dempwolff,  Zhengting Gan,  D. Hait,  P. R. Horn,  L. D. Jacobson,  
 I. Kaliman,  J. Kussmann,  A. W. Lange,  Ka Un Lao,  D. S. Levine,  Jie Liu,  
 S. C. McKenzie,  A. F. Morrison,  K. Nanda,  F. Plasser,  D. R. Rehn,  
 M. L. Vidal,  Zhi-Qiang You,  Ying Zhu,  B. Alam,  B. Albrecht,  
 A. Aldossary,  E. Alguire,  J. H. Andersen,  D. Barton,  K. Begam,  A. Behn,  
 Y. A. Bernard,  E. J. Berquist,  H. Burton,  A. Carreras,  K. Carter-Fenk,  
 R. Chakraborty,  A. D. Chien,  K. D. Closser,  V. Cofer-Shabica,  
 S. Dasgupta,  Jia Deng,  M. de Wergifosse,  M. Diedenhofen,  Hainam Do,  
 S. Ehlert,  Po-Tung Fang,  S. Fatehi,  Qingguo Feng,  T. Friedhoff,  
 J. Gayvert,  Qinghui Ge,  G. Gidofalvi,  M. Goldey,  J. Gomes,  
 C. Gonzalez-Espinoza,  S. Gulania,  A. Gunina,  M. W. D. Hanson-Heine,  
 P. H. P. Harbach,  A. W. Hauser,  M. F. Herbst,  M. Hernandez Vera,  
 M. Hodecker,  Z. C. Holden,  S. Houck,  Xunkun Huang,  Kerwin Hui,  
 B. C. Huynh,  M. Ivanov,  Hyunjun Ji,  Hanjie Jiang,  B. Kaduk,  S. Kaehler,  
 K. Khistyaev,  Jaehoon Kim,  P. Klunzinger,  Z. Koczor-Benda,  
 Joong Hoon Koh,  D. Kosenkov,  L. Koulias,  T. Kowalczyk,  C. M. Krauter,  
 K. Kue,  A. Kunitsa,  T. Kus,  A. Landau,  K. V. Lawler,  D. Lefrancois,  
 S. Lehtola,  Rain Li,  Yi-Pei Li,  Jiashu Liang,  M. Liebenthal,  
 Hung-Hsuan Lin,  You-Sheng Lin,  Fenglai Liu,  Kuan-Yu Liu,  
 M. Loipersberger,  A. Luenser,  A. Manjanath,  P. Manohar,  E. Mansoor,  
 S. F. Manzer,  Shan-Ping Mao,  A. V. Marenich,  T. Markovich,  S. Mason,  
 S. A. Maurer,  P. F. McLaughlin,  M. F. S. J. Menger,  J.-M. Mewes,  
 S. A. Mewes,  P. Morgante,  J. W. Mullinax,  K. J. Oosterbaan,  G. Paran,  
 Alexander C. Paul,  Suranjan K. Paul,  F. Pavosevic,  Zheng Pei,  S. Prager,  
 E. I. Proynov,  E. Ramos,  B. Rana,  A. E. Rask,  A. Rettig,  R. M. Richard,  
 F. Rob,  E. Rossomme,  T. Scheele,  M. Scheurer,  M. Schneider,  
 N. Sergueev,  S. M. Sharada,  W. Skomorowski,  D. W. Small,  C. J. Stein,  
 Yu-Chuan Su,  E. J. Sundstrom,  Zhen Tao,  J. Thirman,  T. Tsuchimochi,  
 N. M. Tubman,  S. P. Veccham,  O. Vydrov,  J. Wenzel,  J. Witte,  A. Yamada,  
 Kun Yao,  S. Yeganeh,  S. R. Yost,  A. Zech,  Igor Ying Zhang,  Xing Zhang,  
 Yu Zhang,  D. Zuev,  A. Aspuru-Guzik,  A. T. Bell,  N. A. Besley,  
 K. B. Bravaya,  B. R. Brooks,  D. Casanova,  Jeng-Da Chai,  S. Coriani,  
 C. J. Cramer,  A. E. DePrince, III,  R. A. DiStasio Jr.,  A. Dreuw,  
 B. D. Dunietz,  T. R. Furlani,  W. A. Goddard III,  S. Grimme,  
 S. Hammes-Schiffer,  T. Head-Gordon,  W. J. Hehre,  Chao-Ping Hsu,  
 T.-C. Jagau,  Yousung Jung,  A. Klamt,  Jing Kong,  D. S. Lambrecht,  
 WanZhen Liang,  N. J. Mayhall,  C. W. McCurdy,  J. B. Neaton,  
 C. Ochsenfeld,  J. A. Parkhill,  R. Peverati,  V. A. Rassolov,  Yihan Shao,  
 L. V. Slipchenko,  T. Stauch,  R. P. Steele,  J. E. Subotnik,  
 A. J. W. Thom,  A. Tkatchenko,  D. G. Truhlar,  T. Van Voorhis,  
 T. A. Wesolowski,  K. B. Whaley,  H. L. Woodcock III,  P. M. Zimmerman,  
 S. Faraji,  P. M. W. Gill,  M. Head-Gordon,  J. M. Herbert,  A. I. Krylov

 Additional authors for Version 5.4.1: 
 S. Kotaru,  Shaozhi Li,  Xiangyuan Li,  F. Matz,  A. Molle,  Haisheng Ren,  
 Yingli Su,  Hung-Yi Tsai,  C. Utku,  Fang Wang

 Contributors to earlier versions of Q-Chem not listed above: 
 R. D. Adamson,  B. Austin,  R. Baer,  J. Baker,  G. J. O. Beran,  
 K. Brandhorst,  S. T. Brown,  E. F. C. Byrd,  A. K. Chakraborty,  
 G. K. L. Chan,  Chun-Min Chang,  Yunqing Chen,  C.-L. Cheng,  
 Siu Hung Chien,  D. M. Chipman,  D. L. Crittenden,  H. Dachsel,  
 R. J. Doerksen,  A. D. Dutoi,  R. G. Edgar,  J. Fosso-Tande,  
 L. Fusti-Molnar,  D. Ghosh,  A. Ghysels,  A. Golubeva-Zadorozhnaya,  
 J. Gonthier,  M. S. Gordon,  S. R. Gwaltney,  G. Hawkins,  J. E. Herr,  
 A. Heyden,  S. Hirata,  E. G. Hohenstein,  G. Kedziora,  F. J. Keil,  
 C. Kelley,  Jihan Kim,  R. A. King,  R. Z. Khaliullin,  P. P. Korambath,  
 W. Kurlancheek,  A. Laurent,  A. M. Lee,  M. S. Lee,  S. V. Levchenko,  
 Ching Yeh Lin,  D. Liotard,  E. Livshits,  R. C. Lochan,  I. Lotan,  
 L. A. Martinez-Martinez,  P. E. Maslen,  N. Nair,  D. P. O'Neill,  
 D. Neuhauser,  E. Neuscamman,  C. M. Oana,  R. Olivares-Amaya,  R. Olson,  
 T. M. Perrine,  B. Peters,  P. A. Pieniazek,  A. Prociuk,  Y. M. Rhee,  
 J. Ritchie,  M. A. Rohrdanz,  E. Rosta,  N. J. Russ,  H. F. Schaefer III,  
 M. W. Schmidt,  N. E. Schultz,  S. Sharma,  N. Shenvi,  C. D. Sherrill,  
 A. C. Simmonett,  A. Sodt,  T. Stein,  D. Stuck,  K. S. Thanthiriwatte,  
 V. Vanovschi,  L. Vogt,  Tao Wang,  A. Warshel,  M. A. Watson,  
 C. F. Williams,  Q. Wu,  X. Xu,  Jun Yang,  W. Zhang,  Yan Zhao

 Please cite Q-Chem as follows:
 Y. Shao et al., Mol. Phys. 113, 184-215 (2015)
 DOI: 10.1080/00268976.2014.952696

 Q-Chem 5.4.1 for Intel X86 EM64T Linux

 Parts of Q-Chem use Armadillo 9.900.5 (Nocturnal Misbehaviour).
 http://arma.sourceforge.net/

 Q-Chem begins on Thu Apr 28 20:27:58 2022  

 Host: node02
0

     Scratch files written to /src/jdavis/qchem.scratch/qchem10304//
 Processing $rem in /src/tsommerfeld/qchem/config/preferences:
 Processing $rem in /home/jdavis/.qchemrc:

 Checking the input file for inconsistencies... 	...done.

--------------------------------------------------------------
User input:
--------------------------------------------------------------
$comment
	H_Ethylene CAP-ADC(2) optz
	Basis: C: jun-TZ+4p1d, H: TZ
$end

$molecule
-1 1
C        -0.6645000000    0.0000000000   -0.1764707059
C         0.6645000000    0.0000000000   -0.1764707059
H        -1.1590800000    0.0000000000    0.7858782941
H         1.1590800000    0.0000000000    0.7858782941
H        -1.1590800000    0.0000000000   -1.1388187059
H         1.1590800000    0.0000000000   -1.1388187059
H         0.0000000000    0.0000000000    2.8235292941
$end

$rem
	basis gen
	method adc(2)
        EE_STATES [0,10,0,0]
	scf_convergence 8
	thresh 14
	adc_cap 1
	cap_type 2
	cap_x 1500
	cap_x_end 5000
	cap_x_step 500
	xc_grid 000250000974
	adc_print 3
	adc_davidson_conv 5
	adc_nguess_singles 100
	adc_nguess_doubles 50
	adc_davidson_maxsubspace 400
	adc_davidson_maxiter 40
	adc_davidson_thresh 14
	mem_total 95000
	threads 12
$end

$basis
C     1
S    8   1.00
   8236.0000000              0.0005310
   1235.0000000              0.0041080
    280.8000000              0.0210870
     79.2700000              0.0818530
     25.5900000              0.2348170
      8.9970000              0.4344010
      3.3190000              0.3461290
      0.3643000             -0.0089830
S    1   1.00
      0.9059000              1.0000000
S    8   1.00
   8236.0000000             -0.0001130
   1235.0000000             -0.0008780
    280.8000000             -0.0045400
     79.2700000             -0.0181330
     25.5900000             -0.0557600
      8.9970000             -0.1268950
      3.3190000             -0.1703520
      0.3643000              0.5986840
S    1   1.00
      0.1285000              1.0000000
S    1   1.00
      0.0440200              1.0000000
P    3   1.00
     18.7100000              0.0140310
      4.1330000              0.0868660
      1.2000000              0.2902160
P    1   1.00
      0.3827000              1.0000000
P    1   1.00
      0.1209000              1.0000000
P    1   1.00
      0.0356900              1.0000000
P    1   1.0
      0.0237933 1.0
P    1   1.0
      0.0158622 1.0
P    1   1.0
      0.0105748 1.0
P    1   1.0
      0.0070498 1.0
D    1   1.00
      1.0970000              1.0000000
D    1   1.00
      0.3180000              1.0000000
D    1   1.00
      0.1000000              1.0000000
D    1   1.00
      0.0500000 1.0
F    1   1.00
      0.7610000              1.0000000
****
C     2
S    8   1.00
   8236.0000000              0.0005310
   1235.0000000              0.0041080
    280.8000000              0.0210870
     79.2700000              0.0818530
     25.5900000              0.2348170
      8.9970000              0.4344010
      3.3190000              0.3461290
      0.3643000             -0.0089830
S    1   1.00
      0.9059000              1.0000000
S    8   1.00
   8236.0000000             -0.0001130
   1235.0000000             -0.0008780
    280.8000000             -0.0045400
     79.2700000             -0.0181330
     25.5900000             -0.0557600
      8.9970000             -0.1268950
      3.3190000             -0.1703520
      0.3643000              0.5986840
S    1   1.00
      0.1285000              1.0000000
S    1   1.00
      0.0440200              1.0000000
P    3   1.00
     18.7100000              0.0140310
      4.1330000              0.0868660
      1.2000000              0.2902160
P    1   1.00
      0.3827000              1.0000000
P    1   1.00
      0.1209000              1.0000000
P    1   1.00
      0.0356900              1.0000000
P    1   1.0
      0.0237933 1.0
P    1   1.0
      0.0158622 1.0
P    1   1.0
      0.0105748 1.0
P    1   1.0
      0.0070498 1.0
D    1   1.00
      1.0970000              1.0000000
D    1   1.00
      0.3180000              1.0000000
D    1   1.00
      0.1000000              1.0000000
D    1   1.00
      0.0500000 1.0
F    1   1.00
      0.7610000              1.0000000
****
H     3
cc-pVTZ
****
H     4
cc-pVTZ
****
H     5
cc-pVTZ
****
H     6
cc-pVTZ
****
H     7
aug-cc-pVTZ
****
$end
--------------------------------------------------------------
 ----------------------------------------------------------------
             Standard Nuclear Orientation (Angstroms)
    I     Atom           X                Y                Z
 ----------------------------------------------------------------
    1      C      -0.6645000000    -0.0000000000    -0.1764707059
    2      C       0.6645000000     0.0000000000    -0.1764707059
    3      H      -1.1590800000    -0.0000000000     0.7858782941
    4      H       1.1590800000     0.0000000000     0.7858782941
    5      H      -1.1590800000    -0.0000000000    -1.1388187059
    6      H       1.1590800000     0.0000000000    -1.1388187059
    7      H       0.0000000000     0.0000000000     2.8235292941
 ----------------------------------------------------------------
 Molecular Point Group                 C2v   NOp =  4
 Largest Abelian Subgroup              C2v   NOp =  4
 Nuclear Repulsion Energy =          36.36366470 hartrees
 There are        9 alpha and        9 beta electrons
 Requested basis set is non-standard
 There are 66 shells and 182 basis functions
 Total memory of 95000 MB is distributed as follows: 
   MEM_STATIC is set to 192 MB
   QALLOC/CCMAN JOB total memory use is  94808 MB
 Warning: actual memory use might exceed 95000 MB

 Total QAlloc Memory Limit  95000 MB
 Mega-Array Size       188 MB
 MEM_STATIC part       192 MB

                       Distance Matrix (Angstroms)
             C (  1)   C (  2)   H (  3)   H (  4)   H (  5)   H (  6)
   C (  2)  1.329000
   H (  3)  1.082000  2.061931
   H (  4)  2.061931  1.082000  2.318160
   H (  5)  1.082000  2.061931  1.924697  3.013026
   H (  6)  2.061931  1.082000  3.013026  1.924697  2.318160
   H (  7)  3.072712  3.072712  2.344246  2.344246  4.128398  4.128398

 
 A cutoff of  1.0D-14 yielded   2195 shell pairs
 There are     16791 function pairs (     20536 Cartesian)
 Smallest overlap matrix eigenvalue = 2.34E-06

 Scale SEOQF with 1.000000e-02/1.000000e-02/1.000000e-02

 Standard Electronic Orientation quadrupole field applied
 ================ Generating on-the-fly SAD Guess ================
Attempting to make child job directory: /src/jdavis/qchem.scratch/qchem10304//Frg1/
Attempting to make child job directory: /src/jdavis/qchem.scratch/qchem10304//Frg2/
Creating input file /src/jdavis/qchem.scratch/qchem10304/Frg1.input
using default PutDataFrgm: nothing
calling putenv with: QCSCRATCH=/src/jdavis/qchem.scratch/qchem10304/ 
Spawning Job For Fragment 0
Done Job For Fragment 0
calling putenv with: QCSCRATCH=/src/jdavis/qchem.scratch 
calling putenv with: QCTHREADS=1 
Creating input file /src/jdavis/qchem.scratch/qchem10304/Frg2.input
using default PutDataFrgm: nothing
calling putenv with: QCSCRATCH=/src/jdavis/qchem.scratch/qchem10304/ 
Spawning Job For Fragment 1
Done Job For Fragment 1
calling putenv with: QCSCRATCH=/src/jdavis/qchem.scratch 
calling putenv with: QCTHREADS=1 
 Time for running child jobs:  CPU 2.11 s  wall 53.81 s
 ============= Method Specific SAD Guess Constructed =============
 Guess from on-the-fly superposition of atomic densities
 Warning: Energy on first SCF cycle will be non-variational
 A restricted Hartree-Fock SCF calculation will be
 performed using Pulay DIIS extrapolation
 SCF converges when DIIS error is below 1.0E-08
 using 12 threads for integral computing
 -------------------------------------------------------
 OpenMP Integral computing Module                
 Release: version 1.0, May 2013, Q-Chem Inc. Pittsburgh 
 -------------------------------------------------------
 ---------------------------------------
  Cycle       Energy         DIIS Error
 ---------------------------------------
    1     -78.8219591933      2.74E-02
    2     -78.4893313759      2.66E-03
    3     -78.5430859731      7.30E-04
    4     -78.5462608656      2.36E-04
    5     -78.5466653484      4.93E-05
    6     -78.5466974658      1.22E-05
    7     -78.5467004367      3.49E-06
    8     -78.5467008106      6.74E-07
    9     -78.5467008262      1.41E-07
   10     -78.5467008304      3.28E-08
   11     -78.5467008293      6.03E-09 Convergence criterion met
 ---------------------------------------
 SCF time:  CPU 44.02 s  wall 3.68 s
 SCF   energy in the final basis set = -78.54670083
 Total energy in the final basis set = -78.54670083
================================================================================
|                                                                              |
|                                 A D C  M A N                                 |
|                                                                              |
 ------------------------------------------------------------------------------ 
|                                                                              |
| Components:                                                                  |
|                                                                              |
| - libvmm - 1.3-trunk                                                         |
|   Authors:                                                                   |
|   Evgeny Epifanovsky, Ilya Kaliman                                           |
|                                                                              |
| - libtensor - 2.5-trunk                                                      |
|   Authors:                                                                   |
|   Evgeny Epifanovsky, Michael Wormit, Dmitry Zuev, Sam Manzer,               |
|   Ilya Kaliman                                                               |
|                                                                              |
| - libwfa - 1.1-trunk                                                         |
|   Authors:                                                                   |
|   Felix Plasser, Stefanie Mewes (Baeppler), Benjamin Thomitzni,              |
|   Michael Wormit, Feng Chen, Anna I. Krylov, Pavel Pokhilko                  |
|                                                                              |
| - libadc - 1.1-trunk                                                         |
|   Authors:                                                                   |
|   Michael Wormit, Adrian L. Dempwolff, Philipp H. P. Harbach,                |
|   Caroline Krauter, Dirk Rehn, Matthias Schneider, Jan Wenzel                |
|                                                                              |
| - adcman - 2.6-trunk                                                         |
|   Authors:                                                                   |
|   Michael Wormit, Adrian L. Dempwolff, Philipp H. P. Harbach,                |
|   Caroline Krauter, Daniel Lefrancois, Jan-Michael Mewes, Dirk Rehn,         |
|   Matthias Schneider, Jan Wenzel, Andreas Dreuw                              |
|                                                                              |
| Authors of earlier versions of ADCMAN:                                       |
| Andreas Dreuw, Jan Hendrik Starcke, Dirk Rehn, Michael Wormit                |
|                                                                              |
================================================================================

  Import QC data ...  CPU 0.00 s  wall 0.00 s
 
 Alpha MOs, Restricted
 -- Occupied --                  
-11.066 -11.064  -0.878  -0.622  -0.498  -0.409  -0.352  -0.218
  1 A1    1 B1    2 A1    2 B1    3 A1    4 A1    3 B1    1 B2                 
 -0.048
  5 A1                                                                         
 -- Virtual --                   
  0.056   0.062   0.063   0.063   0.067   0.076   0.092   0.103
  4 B1    2 B2    6 A1    1 A2    5 B1    7 A1    6 B1    3 B2                 
  0.105   0.105   0.112   0.114   0.142   0.145   0.160   0.162
  8 A1    2 A2    7 B1    9 A1    8 B1   10 A1    4 B2    3 A2                 
  0.164   0.172   0.204   0.215   0.235   0.236   0.243   0.254
 11 A1    9 B1   12 A1   10 B1    4 A2   13 A1    5 B2   11 B1                 
  0.259   0.282   0.285   0.303   0.304   0.306   0.313   0.316
 14 A1   12 B1    6 B2   15 A1   13 B1    5 A2    7 B2    6 A2                 
  0.338   0.346   0.360   0.371   0.379   0.402   0.423   0.424
 14 B1   16 A1   17 A1    7 A2   15 B1   18 A1    8 B2   16 B1                 
  0.447   0.471   0.475   0.479   0.526   0.538   0.546   0.580
 19 A1   20 A1    8 A2   17 B1   21 A1   18 B1    9 B2   22 A1                 
  0.615   0.618   0.630   0.638   0.644   0.647   0.705   0.732
 23 A1   19 B1   20 B1   24 A1    9 A2   10 B2   21 B1   22 B1                 
  0.767   0.772   0.850   0.887   0.907   0.921   0.947   0.953
 10 A2   25 A1   23 B1   26 A1   11 B2   27 A1   24 B1   28 A1                 
  0.980   0.988   1.013   1.025   1.111   1.119   1.157   1.191
 29 A1   25 B1   11 A2   30 A1   12 B2   26 B1   27 B1   13 B2                 
  1.251   1.276   1.297   1.297   1.298   1.366   1.372   1.388
 14 B2   28 B1   12 A2   31 A1   29 B1   13 A2   32 A1   15 B2                 
  1.390   1.427   1.443   1.533   1.598   1.657   1.703   1.720
 33 A1   16 B2   30 B1   34 A1   31 B1   14 A2   35 A1   36 A1                 
  1.818   1.833   1.843   1.905   2.025   2.175   2.189   2.261
 32 B1   37 A1   15 A2   33 B1   34 B1   38 A1   35 B1   36 B1                 
  2.737   2.891   2.901   2.922   2.940   2.967   3.057   3.061
 17 B2   39 A1   40 A1   41 A1   16 A2   42 A1   43 A1   37 B1                 
  3.078   3.157   3.163   3.234   3.265   3.303   3.339   3.391
 18 B2   19 B2   38 B1   39 B1   20 B2   44 A1   45 A1   17 A2                 
  3.426   3.427   3.469   3.622   3.636   3.643   3.664   3.679
 21 B2   18 A2   46 A1   40 B1   47 A1   19 A2   20 A2   41 B1                 
  3.688   3.706   3.774   3.811   3.824   3.830   3.837   3.839
 42 B1   43 B1   22 B2   23 B2   48 A1   21 A2   24 B2   49 A1                 
  3.875   3.879   3.969   3.989   4.142   4.168   4.189   4.197
 50 A1   44 B1   51 A1   45 B1   22 A2   46 B1   47 B1   52 A1                 
  4.207   4.239   4.280   4.309   4.340   4.380   4.452   4.461
 25 B2   53 A1   23 A2   26 B2   48 B1   54 A1   49 B1   27 B2                 
  4.519   4.524   4.534   4.581   4.778   4.803   4.828   4.920
 24 A2   50 B1   28 B2   55 A1   51 B1   56 A1   25 A2   57 A1                 
  4.959   5.015   5.110   5.230   5.264   5.338   5.388   5.491
 52 B1   26 A2   29 B2   58 A1   53 B1   59 A1   30 B2   54 B1                 
  5.533   5.590   5.651   5.705   5.854   5.898   6.277   6.350
 60 A1   27 A2   55 B1   28 A2   61 A1   62 A1   56 B1   57 B1                 
  6.487   6.830   7.062  13.095  15.538
 63 A1   58 B1   59 B1   64 A1   60 B1                                         
 
 Beta MOs, Restricted
 -- Occupied --                  
-11.066 -11.064  -0.878  -0.622  -0.498  -0.409  -0.352  -0.218
  1 A1    1 B1    2 A1    2 B1    3 A1    4 A1    3 B1    1 B2                 
 -0.048
  5 A1                                                                         
 -- Virtual --                   
  0.056   0.062   0.063   0.063   0.067   0.076   0.092   0.103
  4 B1    2 B2    6 A1    1 A2    5 B1    7 A1    6 B1    3 B2                 
  0.105   0.105   0.112   0.114   0.142   0.145   0.160   0.162
  8 A1    2 A2    7 B1    9 A1    8 B1   10 A1    4 B2    3 A2                 
  0.164   0.172   0.204   0.215   0.235   0.236   0.243   0.254
 11 A1    9 B1   12 A1   10 B1    4 A2   13 A1    5 B2   11 B1                 
  0.259   0.282   0.285   0.303   0.304   0.306   0.313   0.316
 14 A1   12 B1    6 B2   15 A1   13 B1    5 A2    7 B2    6 A2                 
  0.338   0.346   0.360   0.371   0.379   0.402   0.423   0.424
 14 B1   16 A1   17 A1    7 A2   15 B1   18 A1    8 B2   16 B1                 
  0.447   0.471   0.475   0.479   0.526   0.538   0.546   0.580
 19 A1   20 A1    8 A2   17 B1   21 A1   18 B1    9 B2   22 A1                 
  0.615   0.618   0.630   0.638   0.644   0.647   0.705   0.732
 23 A1   19 B1   20 B1   24 A1    9 A2   10 B2   21 B1   22 B1                 
  0.767   0.772   0.850   0.887   0.907   0.921   0.947   0.953
 10 A2   25 A1   23 B1   26 A1   11 B2   27 A1   24 B1   28 A1                 
  0.980   0.988   1.013   1.025   1.111   1.119   1.157   1.191
 29 A1   25 B1   11 A2   30 A1   12 B2   26 B1   27 B1   13 B2                 
  1.251   1.276   1.297   1.297   1.298   1.366   1.372   1.388
 14 B2   28 B1   12 A2   31 A1   29 B1   13 A2   32 A1   15 B2                 
  1.390   1.427   1.443   1.533   1.598   1.657   1.703   1.720
 33 A1   16 B2   30 B1   34 A1   31 B1   14 A2   35 A1   36 A1                 
  1.818   1.833   1.843   1.905   2.025   2.175   2.189   2.261
 32 B1   37 A1   15 A2   33 B1   34 B1   38 A1   35 B1   36 B1                 
  2.737   2.891   2.901   2.922   2.940   2.967   3.057   3.061
 17 B2   39 A1   40 A1   41 A1   16 A2   42 A1   43 A1   37 B1                 
  3.078   3.157   3.163   3.234   3.265   3.303   3.339   3.391
 18 B2   19 B2   38 B1   39 B1   20 B2   44 A1   45 A1   17 A2                 
  3.426   3.427   3.469   3.622   3.636   3.643   3.664   3.679
 21 B2   18 A2   46 A1   40 B1   47 A1   19 A2   20 A2   41 B1                 
  3.688   3.706   3.774   3.811   3.824   3.830   3.837   3.839
 42 B1   43 B1   22 B2   23 B2   48 A1   21 A2   24 B2   49 A1                 
  3.875   3.879   3.969   3.989   4.142   4.168   4.189   4.197
 50 A1   44 B1   51 A1   45 B1   22 A2   46 B1   47 B1   52 A1                 
  4.207   4.239   4.280   4.309   4.340   4.380   4.452   4.461
 25 B2   53 A1   23 A2   26 B2   48 B1   54 A1   49 B1   27 B2                 
  4.519   4.524   4.534   4.581   4.778   4.803   4.828   4.920
 24 A2   50 B1   28 B2   55 A1   51 B1   56 A1   25 A2   57 A1                 
  4.959   5.015   5.110   5.230   5.264   5.338   5.388   5.491
 52 B1   26 A2   29 B2   58 A1   53 B1   59 A1   30 B2   54 B1                 
  5.533   5.590   5.651   5.705   5.854   5.898   6.277   6.350
 60 A1   27 A2   55 B1   28 A2   61 A1   62 A1   56 B1   57 B1                 
  6.487   6.830   7.062  13.095  15.538
 63 A1   58 B1   59 B1   64 A1   60 B1                                         
  Import AO data ...  CPU 0.04 s  wall 0.04 s
  Using point group: C2v
  Irreducible representations in point group: A1 A2 B1 B2
  Molecular orbitals: 
  Occupied MOs:
  Block   0:   1 ( A1) A   2 ( A1) A   3 ( A1) A   4 ( A1) A   5 ( A1) A
                  -11.07     -0.8783     -0.4977     -0.4088    -0.04796
  Block   1:   1 ( B1) A   2 ( B1) A   3 ( B1) A
                  -11.06     -0.6221     -0.3524
  Block   2:   1 ( B2) A
                 -0.2178
  Block   3:   1 ( A1) B   2 ( A1) B   3 ( A1) B   4 ( A1) B   5 ( A1) B
                  -11.07     -0.8783     -0.4977     -0.4088    -0.04796
  Block   4:   1 ( B1) B   2 ( B1) B   3 ( B1) B
                  -11.06     -0.6221     -0.3524
  Block   5:   1 ( B2) B
                 -0.2178
  Virtual MOs:
  Block   0:   6 ( A1) A   7 ( A1) A   8 ( A1) A   9 ( A1) A  10 ( A1) A
                 0.06267     0.07601      0.1046      0.1142      0.1453
              11 ( A1) A  12 ( A1) A  13 ( A1) A  14 ( A1) A  15 ( A1) A
                  0.1643      0.2043      0.2365      0.2585      0.3027
              16 ( A1) A  17 ( A1) A  18 ( A1) A  19 ( A1) A
                  0.3456      0.3596      0.4022      0.4465
  Block   1:  20 ( A1) A  21 ( A1) A  22 ( A1) A  23 ( A1) A  24 ( A1) A
                  0.4706      0.5262      0.5798      0.6147      0.6384
              25 ( A1) A  26 ( A1) A  27 ( A1) A  28 ( A1) A  29 ( A1) A
                  0.7717       0.887      0.9213      0.9533      0.9803
              30 ( A1) A  31 ( A1) A  32 ( A1) A  33 ( A1) A  34 ( A1) A
                   1.025       1.297       1.372        1.39       1.533
              35 ( A1) A
                   1.703
  Block   2:  36 ( A1) A  37 ( A1) A  38 ( A1) A  39 ( A1) A  40 ( A1) A
                    1.72       1.833       2.175       2.891       2.901
              41 ( A1) A  42 ( A1) A  43 ( A1) A  44 ( A1) A  45 ( A1) A
                   2.922       2.967       3.057       3.303       3.339
              46 ( A1) A  47 ( A1) A  48 ( A1) A  49 ( A1) A
                   3.469       3.636       3.824       3.839
  Block   3:  50 ( A1) A  51 ( A1) A  52 ( A1) A  53 ( A1) A  54 ( A1) A
                   3.875       3.969       4.197       4.239        4.38
              55 ( A1) A  56 ( A1) A  57 ( A1) A  58 ( A1) A  59 ( A1) A
                   4.581       4.803        4.92        5.23       5.338
              60 ( A1) A  61 ( A1) A  62 ( A1) A  63 ( A1) A  64 ( A1) A
                   5.533       5.854       5.898       6.487       13.09
  Block   4:   1 ( A2) A   2 ( A2) A   3 ( A2) A   4 ( A2) A   5 ( A2) A
                 0.06281      0.1046      0.1622      0.2354      0.3059
               6 ( A2) A   7 ( A2) A   8 ( A2) A   9 ( A2) A  10 ( A2) A
                  0.3163      0.3715      0.4747      0.6438      0.7673
              11 ( A2) A  12 ( A2) A  13 ( A2) A  14 ( A2) A
                   1.013       1.297       1.366       1.657
  Block   5:  15 ( A2) A  16 ( A2) A  17 ( A2) A  18 ( A2) A  19 ( A2) A
                   1.843        2.94       3.391       3.427       3.643
              20 ( A2) A  21 ( A2) A  22 ( A2) A  23 ( A2) A  24 ( A2) A
                   3.664        3.83       4.142        4.28       4.519
              25 ( A2) A  26 ( A2) A  27 ( A2) A  28 ( A2) A
                   4.828       5.015        5.59       5.705
  Block   6:   4 ( B1) A   5 ( B1) A   6 ( B1) A   7 ( B1) A   8 ( B1) A
                 0.05649     0.06681     0.09235      0.1122      0.1421
               9 ( B1) A  10 ( B1) A  11 ( B1) A  12 ( B1) A  13 ( B1) A
                   0.172      0.2151      0.2544      0.2821      0.3042
              14 ( B1) A  15 ( B1) A  16 ( B1) A  17 ( B1) A
                  0.3377      0.3787      0.4238      0.4791
  Block   7:  18 ( B1) A  19 ( B1) A  20 ( B1) A  21 ( B1) A  22 ( B1) A
                  0.5385       0.618      0.6299      0.7054      0.7321
              23 ( B1) A  24 ( B1) A  25 ( B1) A  26 ( B1) A  27 ( B1) A
                    0.85      0.9474      0.9884       1.119       1.157
              28 ( B1) A  29 ( B1) A  30 ( B1) A  31 ( B1) A
                   1.276       1.298       1.443       1.598
  Block   8:  32 ( B1) A  33 ( B1) A  34 ( B1) A  35 ( B1) A  36 ( B1) A
                   1.818       1.905       2.025       2.189       2.261
              37 ( B1) A  38 ( B1) A  39 ( B1) A  40 ( B1) A  41 ( B1) A
                   3.061       3.163       3.234       3.622       3.679
              42 ( B1) A  43 ( B1) A  44 ( B1) A  45 ( B1) A
                   3.688       3.706       3.879       3.989
  Block   9:  46 ( B1) A  47 ( B1) A  48 ( B1) A  49 ( B1) A  50 ( B1) A
                   4.168       4.189        4.34       4.452       4.524
              51 ( B1) A  52 ( B1) A  53 ( B1) A  54 ( B1) A  55 ( B1) A
                   4.778       4.959       5.264       5.491       5.651
              56 ( B1) A  57 ( B1) A  58 ( B1) A  59 ( B1) A  60 ( B1) A
                   6.277        6.35        6.83       7.062       15.54
  Block  10:   2 ( B2) A   3 ( B2) A   4 ( B2) A   5 ( B2) A   6 ( B2) A
                  0.0622      0.1035      0.1602      0.2434      0.2848
               7 ( B2) A   8 ( B2) A   9 ( B2) A  10 ( B2) A  11 ( B2) A
                  0.3129      0.4226      0.5461      0.6469      0.9066
              12 ( B2) A  13 ( B2) A  14 ( B2) A  15 ( B2) A
                   1.111       1.191       1.251       1.388
  Block  11:  16 ( B2) A  17 ( B2) A  18 ( B2) A  19 ( B2) A  20 ( B2) A
                   1.427       2.737       3.078       3.157       3.265
              21 ( B2) A  22 ( B2) A  23 ( B2) A  24 ( B2) A  25 ( B2) A
                   3.426       3.774       3.811       3.837       4.207
              26 ( B2) A  27 ( B2) A  28 ( B2) A  29 ( B2) A  30 ( B2) A
                   4.309       4.461       4.534        5.11       5.388
  Block  12:   6 ( A1) B   7 ( A1) B   8 ( A1) B   9 ( A1) B  10 ( A1) B
                 0.06267     0.07601      0.1046      0.1142      0.1453
              11 ( A1) B  12 ( A1) B  13 ( A1) B  14 ( A1) B  15 ( A1) B
                  0.1643      0.2043      0.2365      0.2585      0.3027
              16 ( A1) B  17 ( A1) B  18 ( A1) B  19 ( A1) B
                  0.3456      0.3596      0.4022      0.4465
  Block  13:  20 ( A1) B  21 ( A1) B  22 ( A1) B  23 ( A1) B  24 ( A1) B
                  0.4706      0.5262      0.5798      0.6147      0.6384
              25 ( A1) B  26 ( A1) B  27 ( A1) B  28 ( A1) B  29 ( A1) B
                  0.7717       0.887      0.9213      0.9533      0.9803
              30 ( A1) B  31 ( A1) B  32 ( A1) B  33 ( A1) B  34 ( A1) B
                   1.025       1.297       1.372        1.39       1.533
              35 ( A1) B
                   1.703
  Block  14:  36 ( A1) B  37 ( A1) B  38 ( A1) B  39 ( A1) B  40 ( A1) B
                    1.72       1.833       2.175       2.891       2.901
              41 ( A1) B  42 ( A1) B  43 ( A1) B  44 ( A1) B  45 ( A1) B
                   2.922       2.967       3.057       3.303       3.339
              46 ( A1) B  47 ( A1) B  48 ( A1) B  49 ( A1) B
                   3.469       3.636       3.824       3.839
  Block  15:  50 ( A1) B  51 ( A1) B  52 ( A1) B  53 ( A1) B  54 ( A1) B
                   3.875       3.969       4.197       4.239        4.38
              55 ( A1) B  56 ( A1) B  57 ( A1) B  58 ( A1) B  59 ( A1) B
                   4.581       4.803        4.92        5.23       5.338
              60 ( A1) B  61 ( A1) B  62 ( A1) B  63 ( A1) B  64 ( A1) B
                   5.533       5.854       5.898       6.487       13.09
  Block  16:   1 ( A2) B   2 ( A2) B   3 ( A2) B   4 ( A2) B   5 ( A2) B
                 0.06281      0.1046      0.1622      0.2354      0.3059
               6 ( A2) B   7 ( A2) B   8 ( A2) B   9 ( A2) B  10 ( A2) B
                  0.3163      0.3715      0.4747      0.6438      0.7673
              11 ( A2) B  12 ( A2) B  13 ( A2) B  14 ( A2) B
                   1.013       1.297       1.366       1.657
  Block  17:  15 ( A2) B  16 ( A2) B  17 ( A2) B  18 ( A2) B  19 ( A2) B
                   1.843        2.94       3.391       3.427       3.643
              20 ( A2) B  21 ( A2) B  22 ( A2) B  23 ( A2) B  24 ( A2) B
                   3.664        3.83       4.142        4.28       4.519
              25 ( A2) B  26 ( A2) B  27 ( A2) B  28 ( A2) B
                   4.828       5.015        5.59       5.705
  Block  18:   4 ( B1) B   5 ( B1) B   6 ( B1) B   7 ( B1) B   8 ( B1) B
                 0.05649     0.06681     0.09235      0.1122      0.1421
               9 ( B1) B  10 ( B1) B  11 ( B1) B  12 ( B1) B  13 ( B1) B
                   0.172      0.2151      0.2544      0.2821      0.3042
              14 ( B1) B  15 ( B1) B  16 ( B1) B  17 ( B1) B
                  0.3377      0.3787      0.4238      0.4791
  Block  19:  18 ( B1) B  19 ( B1) B  20 ( B1) B  21 ( B1) B  22 ( B1) B
                  0.5385       0.618      0.6299      0.7054      0.7321
              23 ( B1) B  24 ( B1) B  25 ( B1) B  26 ( B1) B  27 ( B1) B
                    0.85      0.9474      0.9884       1.119       1.157
              28 ( B1) B  29 ( B1) B  30 ( B1) B  31 ( B1) B
                   1.276       1.298       1.443       1.598
  Block  20:  32 ( B1) B  33 ( B1) B  34 ( B1) B  35 ( B1) B  36 ( B1) B
                   1.818       1.905       2.025       2.189       2.261
              37 ( B1) B  38 ( B1) B  39 ( B1) B  40 ( B1) B  41 ( B1) B
                   3.061       3.163       3.234       3.622       3.679
              42 ( B1) B  43 ( B1) B  44 ( B1) B  45 ( B1) B
                   3.688       3.706       3.879       3.989
  Block  21:  46 ( B1) B  47 ( B1) B  48 ( B1) B  49 ( B1) B  50 ( B1) B
                   4.168       4.189        4.34       4.452       4.524
              51 ( B1) B  52 ( B1) B  53 ( B1) B  54 ( B1) B  55 ( B1) B
                   4.778       4.959       5.264       5.491       5.651
              56 ( B1) B  57 ( B1) B  58 ( B1) B  59 ( B1) B  60 ( B1) B
                   6.277        6.35        6.83       7.062       15.54
  Block  22:   2 ( B2) B   3 ( B2) B   4 ( B2) B   5 ( B2) B   6 ( B2) B
                  0.0622      0.1035      0.1602      0.2434      0.2848
               7 ( B2) B   8 ( B2) B   9 ( B2) B  10 ( B2) B  11 ( B2) B
                  0.3129      0.4226      0.5461      0.6469      0.9066
              12 ( B2) B  13 ( B2) B  14 ( B2) B  15 ( B2) B
                   1.111       1.191       1.251       1.388
  Block  23:  16 ( B2) B  17 ( B2) B  18 ( B2) B  19 ( B2) B  20 ( B2) B
                   1.427       2.737       3.078       3.157       3.265
              21 ( B2) B  22 ( B2) B  23 ( B2) B  24 ( B2) B  25 ( B2) B
                   3.426       3.774       3.811       3.837       4.207
              26 ( B2) B  27 ( B2) B  28 ( B2) B  29 ( B2) B  30 ( B2) B
                   4.309       4.461       4.534        5.11       5.388
  Import MO data ...  CPU 0.10 s  wall 0.03 s
  Import HF data ...  CPU 2.21 s  wall 0.38 s
  Import 2e integrals ...  CPU 91.98 s  wall 8.20 s
  Import CAP matrix ...  CPU 109.03 s  wall 9.09 s

--------------------------------------------------------------------------------
                                   HF Summary                                   
--------------------------------------------------------------------------------
  Energy:                                                  -78.5467008293 a.u.
  Dip. moment [a.u.]:                  [   0.000000,   -0.000000,   -4.661276]
  Total dipole [Debye]:                                              11.847785
  <r^2> [a.u.]:                        [  55.311515,   18.441770,   85.740359]
  Total <r^2> [a.u.]:                                               159.493645
--------------------------------------------------------------------------------
  HF properties ...  CPU 1.68 s  wall 0.09 s
  MP(1) calculation ...  CPU 2.14 s  wall 0.76 s
  N^6 prerequesite intermediates ...  CPU 7.80 s  wall 0.77 s

--------------------------------------------------------------------------------
                                 MP(2) Summary                                  
--------------------------------------------------------------------------------
  MP energy contribution:                                   -0.4001845037 a.u.
  Total energy:                                            -78.9468853331 a.u.
  Dip. moment [a.u.]:                  [   0.000000,   -0.000000,   -4.584733]
  Total dipole [Debye]:                                              11.653231
  <r^2> [a.u.]:                        [  56.088411,   18.639663,   85.372626]
  Total <r^2> [a.u.]:                                               160.100701
--------------------------------------------------------------------------------
  MP(2) calculation ...  CPU 2.65 s  wall 1.00 s
  Start ADC(2)-s ...  CPU 0.13 s  wall 0.02 s
  ADC(2) intermediates ...  CPU 0.28 s  wall 0.05 s
  Starting Davidson for singlet states of irrep A2 ... 
--------------------------------------------------------------------------------
   It NVec Conv  Avg. Norm  Max. Norm  Conv. states           Remark
--------------------------------------------------------------------------------
       150    0  4.179e-02  2.975e-01  0.0735 n n n n n n n n Guess.
    1  160    0  1.382e-02  8.596e-02  0.0444 n n n n n n n n 
    2  170    0  3.746e-03  3.289e-02  0.0444 n n n n n n n n 
    3  180    1  1.626e-03  1.561e-02  0.0444 n n n n n y n n 
    4  190    3  3.847e-04  3.793e-03  0.0444 y n n n n y n n 
    5  200    6  3.821e-05  3.755e-04  0.0444 y y y n n y n y 
    6  210    8  6.257e-06  6.132e-05  0.0444 y y y y y y n y 
    7  220    9  1.234e-06  1.216e-05  0.0444 y y y y y y n y 
    8  230   10  1.614e-07  1.591e-06  0.0444 y y y y y y y y Converged.
--------------------------------------------------------------------------------
  Davidson Summary: 
 ------------------------------------------------------------
  State  0: excitation energy =   0.0444 a.u.   (converged)
  State  1: excitation energy =   0.0714 a.u.   (converged)
  State  2: excitation energy =   0.1057 a.u.   (converged)
  State  3: excitation energy =   0.1357 a.u.   (converged)
  State  4: excitation energy =   0.2020 a.u.   (converged)
  State  5: excitation energy =   0.2146 a.u.   (converged)
  State  6: excitation energy =   0.2210 a.u.   (converged)
  State  7: excitation energy =   0.2215 a.u.   (converged)
  State  8: excitation energy =   0.2221 a.u.   (converged)
  State  9: excitation energy =   0.2249 a.u.   (converged)
 ------------------------------------------------------------

  Singlet states of irrep A2 ...  CPU 812.03 s  wall 141.64 s
  TDMs ...  CPU 14.14 s  wall 2.47 s
  SDMs ...  CPU 24.79 s  wall 4.29 s
  Transition properties ...  CPU 1.44 s  wall 0.22 s
  Properties ...  CPU 9.31 s  wall 1.46 s
  ISR TDMS ...  CPU 146.32 s  wall 25.41 s
  ISR transition properties ...  CPU 14.63 s  wall 1.94 s
  Sum-over-states TPA ...  CPU 0.00 s  wall 0.00 s

--------------------------------------------------------------------------------
                             Excited State Summary
--------------------------------------------------------------------------------
--------------------------------------------------------------------------------

  Excited state 1 (singlet, A2)                                    [converged]
  ----------------------------------------------------------------------------
  Term symbol:  1 (1) A2                                    R^2 =  3.49426e-10

  Total energy:                                            -78.9024895593 a.u.
  Excitation energy:                                               1.208070 eV

  Osc. strength:                                                      0.000000
  Trans. dip. moment [a.u.]:           [   0.000000,   -0.000000,    0.000000]
  <i|r^2|0> [a.u.]:                    [  -0.000000,   -0.000000,   -0.000000]
  Two-photon absorption cross-section (SoS) [a.u.]:                   0.000000
  Two-photon absorption matrix (SoS) [a.u.]:
                                       |   -0.000000    0.000000    0.000000 |
                                       |    0.000000    0.000000   -0.000000 |
                                       |    0.000000   -0.000000    0.000000 |

  Dip. moment [a.u.]:                  [  -0.000000,   -0.000000,    0.539569]
  Total dipole [Debye]:                                               1.371447
  <r^2> [a.u.]:                        [ 243.395243,  206.470196,  118.037402]
  Total <r^2> [a.u.]:                                               567.902842

  V1^2 = 0.8979, V2^2 = 0.1021

  Important amplitudes:
      occ i      occ j       vir a       vir b          v   
    ---------------------------------------------------------
     5 (A1) A               1 (A2) A                  0.6516
     5 (A1) A               2 (A2) A                  0.1530
     5 (A1) A   5 (A1) B    9 (A1) A    1 (A2) B      0.0533
     5 (A1) A   5 (A1) B   12 (A1) A    1 (A2) B      0.0502
     5 (A1) A   5 (A1) B   16 (A1) A    1 (A2) B      0.0322
     5 (A1) A   5 (A1) B   25 (A1) A    1 (A2) B      0.0317
     5 (A1) A   5 (A1) B   11 (A1) A    1 (A2) B      0.0308
     5 (A1) A   5 (A1) B   17 (A1) A    1 (A2) B      0.0307
     5 (A1) A   5 (A1) B    7 (A1) A    1 (A2) B      0.0292
     5 (A1) A               3 (A2) A                  0.0286
     5 (A1) A   5 (A1) B   15 (A1) A    1 (A2) B      0.0201
     5 (A1) A   5 (A1) B   18 (A1) A    1 (A2) B      0.0165
     5 (A1) A   5 (A1) B   29 (A1) A    1 (A2) B      0.0114
     5 (A1) A   5 (A1) B   12 (A1) A    2 (A2) B      0.0105
     5 (A1) A   5 (A1) B    9 (A1) A    2 (A2) B      0.0103
     5 (A1) A   5 (A1) B   21 (A1) A    1 (A2) B     -0.0103
     5 (A1) A   5 (A1) B    6 (A1) A    1 (A2) B      0.0089
     5 (A1) A   5 (A1) B    8 (A1) A    1 (A2) B      0.0083
     5 (A1) A               4 (A2) A                  0.0080
     5 (A1) A               6 (A2) A                  0.0075
     5 (A1) A   5 (A1) B   25 (A1) A    2 (A2) B      0.0071
     5 (A1) A   5 (A1) B   16 (A1) A    2 (A2) B      0.0069
     5 (A1) A   5 (A1) B   19 (A1) A    1 (A2) B     -0.0069
     5 (A1) A   1 (B2) B    1 (A2) A    9 (B2) B     -0.0068
     5 (A1) A   1 (B2) A    1 (A2) A    9 (B2) A     -0.0067
     5 (A1) A   5 (A1) B   17 (A1) A    2 (A2) B      0.0067
     5 (A1) A   5 (A1) B   11 (A1) A    2 (A2) B      0.0062
     5 (A1) A   3 (B1) A    1 (A2) A   18 (B1) A     -0.0058
     3 (A1) A   5 (A1) A   20 (A1) A    1 (A2) A     -0.0058
     5 (A1) A   3 (B1) B    1 (A2) A   18 (B1) B     -0.0057
     3 (A1) A   5 (A1) B   20 (A1) A    1 (A2) B     -0.0057
     5 (A1) A   5 (A1) B    7 (A1) A    2 (A2) B      0.0052
     4 (A1) A   5 (A1) A   21 (A1) A    1 (A2) A      0.0052
     4 (A1) A   5 (A1) B   21 (A1) A    1 (A2) B      0.0049
     5 (A1) A   5 (A1) B   22 (A1) A    1 (A2) B      0.0048
     5 (A1) A   1 (B2) B    1 (A2) A    5 (B2) B      0.0047
     5 (A1) A   1 (B2) A    1 (A2) A    5 (B2) A      0.0046
     5 (A1) A   5 (A1) B   15 (A1) A    2 (A2) B      0.0044
     5 (A1) A   5 (A1) B   14 (A1) A    1 (A2) B     -0.0040
     3 (A1) A   5 (A1) A   19 (A1) A    1 (A2) A      0.0038
    ---------------------------------------------------------
  ----------------------------------------------------------------------------


  Excited state 2 (singlet, A2)                                    [converged]
  ----------------------------------------------------------------------------
  Term symbol:  2 (1) A2                                    R^2 =  1.65947e-09

  Total energy:                                            -78.8754921821 a.u.
  Excitation energy:                                               1.942706 eV

  Osc. strength:                                                      0.000000
  Trans. dip. moment [a.u.]:           [   0.000000,    0.000000,   -0.000000]
  <i|r^2|0> [a.u.]:                    [  -0.000000,    0.000000,    0.000000]
  Two-photon absorption cross-section (SoS) [a.u.]:                   0.000000
  Two-photon absorption matrix (SoS) [a.u.]:
                                       |   -0.000000   -0.000000    0.000000 |
                                       |   -0.000000   -0.000000    0.000000 |
                                       |    0.000000    0.000000   -0.000001 |

  Dip. moment [a.u.]:                  [  -0.000000,   -0.000000,    0.535224]
  Total dipole [Debye]:                                               1.360403
  <r^2> [a.u.]:                        [ 180.964570,  143.524129,   97.103223]
  Total <r^2> [a.u.]:                                               421.591921

  V1^2 = 0.9052, V2^2 = 0.0948

  Important amplitudes:
      occ i      occ j       vir a       vir b          v   
    ---------------------------------------------------------
     5 (A1) A               2 (A2) A                 -0.6209
     5 (A1) A               3 (A2) A                 -0.1964
     5 (A1) A               1 (A2) A                  0.1516
     5 (A1) A               4 (A2) A                 -0.0593
     5 (A1) A   5 (A1) B    9 (A1) A    2 (A2) B     -0.0471
     5 (A1) A   5 (A1) B   12 (A1) A    2 (A2) B     -0.0459
     5 (A1) A               6 (A2) A                 -0.0393
     5 (A1) A   5 (A1) B   16 (A1) A    2 (A2) B     -0.0297
     5 (A1) A   5 (A1) B   25 (A1) A    2 (A2) B     -0.0296
     5 (A1) A   5 (A1) B   17 (A1) A    2 (A2) B     -0.0284
     5 (A1) A   5 (A1) B   11 (A1) A    2 (A2) B     -0.0277
     5 (A1) A   5 (A1) B    7 (A1) A    2 (A2) B     -0.0249
     5 (A1) A               5 (A2) A                 -0.0207
     5 (A1) A   5 (A1) B   15 (A1) A    2 (A2) B     -0.0188
     5 (A1) A   5 (A1) B   18 (A1) A    2 (A2) B     -0.0155
     5 (A1) A   5 (A1) B    9 (A1) A    1 (A2) B      0.0142
     5 (A1) A   5 (A1) B   12 (A1) A    1 (A2) B      0.0127
     5 (A1) A   5 (A1) B   12 (A1) A    3 (A2) B     -0.0126
     5 (A1) A   5 (A1) B    9 (A1) A    3 (A2) B     -0.0111
     5 (A1) A   5 (A1) B   29 (A1) A    2 (A2) B     -0.0108
     5 (A1) A   5 (A1) B   21 (A1) A    2 (A2) B      0.0096
     5 (A1) A   5 (A1) B   25 (A1) A    3 (A2) B     -0.0087
     5 (A1) A   5 (A1) B   16 (A1) A    3 (A2) B     -0.0085
     5 (A1) A   5 (A1) B    7 (A1) A    1 (A2) B      0.0084
     5 (A1) A   5 (A1) B   17 (A1) A    3 (A2) B     -0.0081
     5 (A1) A   5 (A1) B   11 (A1) A    1 (A2) B      0.0079
     5 (A1) A   5 (A1) B   16 (A1) A    1 (A2) B      0.0079
     5 (A1) A   5 (A1) B    6 (A1) A    2 (A2) B     -0.0078
     5 (A1) A   5 (A1) B   25 (A1) A    1 (A2) B      0.0076
     5 (A1) A   5 (A1) B   17 (A1) A    1 (A2) B      0.0075
     5 (A1) A   5 (A1) B    8 (A1) A    2 (A2) B     -0.0075
     5 (A1) A   5 (A1) B   11 (A1) A    3 (A2) B     -0.0071
     5 (A1) A   5 (A1) B   19 (A1) A    2 (A2) B      0.0067
     5 (A1) A   1 (B2) B    2 (A2) A    9 (B2) B      0.0064
     5 (A1) A   1 (B2) A    2 (A2) A    9 (B2) A      0.0063
     5 (A1) A   5 (A1) B    7 (A1) A    3 (A2) B     -0.0056
     5 (A1) A   5 (A1) B   15 (A1) A    3 (A2) B     -0.0056
     3 (A1) A   5 (A1) A   20 (A1) A    2 (A2) A      0.0055
     5 (A1) A   3 (B1) A    2 (A2) A   18 (B1) A      0.0055
     5 (A1) A   3 (B1) B    2 (A2) A   18 (B1) B      0.0054
    ---------------------------------------------------------
  ----------------------------------------------------------------------------


  Excited state 3 (singlet, A2)                                    [converged]
  ----------------------------------------------------------------------------
  Term symbol:  3 (1) A2                                    R^2 =  9.83659e-09

  Total energy:                                            -78.8411534725 a.u.
  Excitation energy:                                               2.877110 eV

  Osc. strength:                                                      0.000000
  Trans. dip. moment [a.u.]:           [   0.000000,   -0.000000,   -0.000000]
  <i|r^2|0> [a.u.]:                    [  -0.000000,    0.000000,    0.000000]
  Two-photon absorption cross-section (SoS) [a.u.]:                   0.000000
  Two-photon absorption matrix (SoS) [a.u.]:
                                       |    0.000000   -0.000000    0.000000 |
                                       |   -0.000000   -0.000000   -0.000000 |
                                       |    0.000000   -0.000000   -0.000000 |

  Dip. moment [a.u.]:                  [  -0.000000,   -0.000000,    0.521507]
  Total dipole [Debye]:                                               1.325538
  <r^2> [a.u.]:                        [ 115.873092,   80.304970,   76.732639]
  Total <r^2> [a.u.]:                                               272.910700

  V1^2 = 0.9125, V2^2 = 0.0875

  Important amplitudes:
      occ i      occ j       vir a       vir b          v   
    ---------------------------------------------------------
     5 (A1) A               3 (A2) A                  0.5007
     5 (A1) A               4 (A2) A                  0.3272
     5 (A1) A               2 (A2) A                 -0.1960
     5 (A1) A               5 (A2) A                  0.1856
     5 (A1) A               6 (A2) A                  0.1476
     5 (A1) A               8 (A2) A                 -0.0479
     5 (A1) A   5 (A1) B   12 (A1) A    3 (A2) B      0.0346
     5 (A1) A   5 (A1) B    9 (A1) A    3 (A2) B      0.0329
     5 (A1) A               7 (A2) A                  0.0252
     5 (A1) A   5 (A1) B   16 (A1) A    3 (A2) B      0.0232
     5 (A1) A   5 (A1) B   25 (A1) A    3 (A2) B      0.0231
     5 (A1) A   5 (A1) B   17 (A1) A    3 (A2) B      0.0217
     5 (A1) A   5 (A1) B   11 (A1) A    3 (A2) B      0.0200
     5 (A1) A   5 (A1) B    9 (A1) A    2 (A2) B     -0.0182
     5 (A1) A   5 (A1) B   12 (A1) A    4 (A2) B      0.0179
     5 (A1) A               1 (A2) A                  0.0177
     5 (A1) A   5 (A1) B    7 (A1) A    3 (A2) B      0.0171
     5 (A1) A   5 (A1) B   12 (A1) A    2 (A2) B     -0.0159
     5 (A1) A   5 (A1) B   15 (A1) A    3 (A2) B      0.0147
     5 (A1) A   5 (A1) B    9 (A1) A    4 (A2) B      0.0144
     5 (A1) A   5 (A1) B   25 (A1) A    4 (A2) B      0.0139
     5 (A1) A   5 (A1) B   16 (A1) A    4 (A2) B      0.0136
     5 (A1) A               9 (A2) A                  0.0129
     5 (A1) A   5 (A1) B   18 (A1) A    3 (A2) B      0.0123
     5 (A1) A              10 (A2) A                 -0.0122
     5 (A1) A   5 (A1) B   17 (A1) A    4 (A2) B      0.0115
     5 (A1) A   5 (A1) B    7 (A1) A    2 (A2) B     -0.0101
     5 (A1) A   5 (A1) B   11 (A1) A    2 (A2) B     -0.0101
     5 (A1) A   5 (A1) B   16 (A1) A    2 (A2) B     -0.0100
     5 (A1) A   5 (A1) B   25 (A1) A    2 (A2) B     -0.0098
     5 (A1) A   5 (A1) B   17 (A1) A    2 (A2) B     -0.0097
     5 (A1) A              11 (A2) A                  0.0092
     5 (A1) A   5 (A1) B   11 (A1) A    4 (A2) B      0.0091
     5 (A1) A   5 (A1) B   15 (A1) A    4 (A2) B      0.0089
     5 (A1) A   5 (A1) B   29 (A1) A    3 (A2) B      0.0086
     5 (A1) A   5 (A1) B   21 (A1) A    3 (A2) B     -0.0076
     5 (A1) A   5 (A1) B   12 (A1) A    5 (A2) B      0.0076
     5 (A1) A   5 (A1) B   25 (A1) A    5 (A2) B      0.0075
     5 (A1) A   5 (A1) B   18 (A1) A    4 (A2) B      0.0075
     5 (A1) A   5 (A1) B    7 (A1) A    4 (A2) B      0.0071
    ---------------------------------------------------------
  ----------------------------------------------------------------------------


  Excited state 4 (singlet, A2)                                    [converged]
  ----------------------------------------------------------------------------
  Term symbol:  4 (1) A2                                    R^2 =  1.50921e-08

  Total energy:                                            -78.8112006719 a.u.
  Excitation energy:                                               3.692167 eV

  Osc. strength:                                                      0.000000
  Trans. dip. moment [a.u.]:           [  -0.000000,    0.000000,   -0.000000]
  <i|r^2|0> [a.u.]:                    [  -0.000000,   -0.000000,    0.000000]
  Two-photon absorption cross-section (SoS) [a.u.]:                   0.000000
  Two-photon absorption matrix (SoS) [a.u.]:
                                       |    0.000000    0.000000   -0.000000 |
                                       |    0.000000   -0.000000    0.000000 |
                                       |   -0.000000    0.000000   -0.000000 |

  Dip. moment [a.u.]:                  [   0.000000,   -0.000000,    0.519118]
  Total dipole [Debye]:                                               1.319467
  <r^2> [a.u.]:                        [ 110.229584,   74.542276,   75.150533]
  Total <r^2> [a.u.]:                                               259.922393

  V1^2 = 0.9092, V2^2 = 0.0908

  Important amplitudes:
      occ i      occ j       vir a       vir b          v   
    ---------------------------------------------------------
     5 (A1) A               3 (A2) A                  0.3952
     5 (A1) A               4 (A2) A                 -0.3569
     5 (A1) A               5 (A2) A                 -0.3506
     5 (A1) A               6 (A2) A                 -0.1568
     5 (A1) A               7 (A2) A                 -0.1024
     5 (A1) A               8 (A2) A                  0.0855
     5 (A1) A               2 (A2) A                 -0.0647
     5 (A1) A   5 (A1) B    9 (A1) A    3 (A2) B      0.0314
     5 (A1) A   5 (A1) B   12 (A1) A    3 (A2) B      0.0302
     5 (A1) A               9 (A2) A                 -0.0215
     5 (A1) A              10 (A2) A                  0.0208
     5 (A1) A   5 (A1) B   12 (A1) A    4 (A2) B     -0.0207
     5 (A1) A   5 (A1) B   16 (A1) A    3 (A2) B      0.0190
     5 (A1) A   5 (A1) B   25 (A1) A    3 (A2) B      0.0190
     5 (A1) A   5 (A1) B   17 (A1) A    3 (A2) B      0.0189
     5 (A1) A   5 (A1) B   11 (A1) A    3 (A2) B      0.0187
     5 (A1) A   5 (A1) B    9 (A1) A    4 (A2) B     -0.0184
     5 (A1) A              11 (A2) A                 -0.0173
     5 (A1) A   5 (A1) B    7 (A1) A    3 (A2) B      0.0167
     5 (A1) A   5 (A1) B   12 (A1) A    5 (A2) B     -0.0165
     5 (A1) A   5 (A1) B   25 (A1) A    4 (A2) B     -0.0158
     5 (A1) A   5 (A1) B   16 (A1) A    4 (A2) B     -0.0154
     5 (A1) A   5 (A1) B   25 (A1) A    5 (A2) B     -0.0145
     5 (A1) A   5 (A1) B   16 (A1) A    5 (A2) B     -0.0135
     5 (A1) A   5 (A1) B   17 (A1) A    4 (A2) B     -0.0131
     5 (A1) A   5 (A1) B    9 (A1) A    5 (A2) B     -0.0128
     5 (A1) A   5 (A1) B   15 (A1) A    3 (A2) B      0.0120
     5 (A1) A   5 (A1) B   11 (A1) A    4 (A2) B     -0.0111
     5 (A1) A   5 (A1) B   17 (A1) A    5 (A2) B     -0.0109
     5 (A1) A   5 (A1) B   18 (A1) A    3 (A2) B      0.0099
     5 (A1) A   5 (A1) B   15 (A1) A    4 (A2) B     -0.0098
     5 (A1) A   5 (A1) B    7 (A1) A    4 (A2) B     -0.0094
     5 (A1) A   5 (A1) B   15 (A1) A    5 (A2) B     -0.0088
     3 (A1) A               5 (A2) A                  0.0086
     5 (A1) A   5 (A1) B   18 (A1) A    4 (A2) B     -0.0082
     5 (A1) A   5 (A1) B   11 (A1) A    5 (A2) B     -0.0081
     5 (A1) A   5 (A1) B   19 (A1) A    5 (A2) B      0.0080
     4 (A1) A               5 (A2) A                  0.0077
     5 (A1) A   5 (A1) B   18 (A1) A    5 (A2) B     -0.0074
     5 (A1) A   5 (A1) B    9 (A1) A    2 (A2) B     -0.0070
    ---------------------------------------------------------
  ----------------------------------------------------------------------------


  Excited state 5 (singlet, A2)                                    [converged]
  ----------------------------------------------------------------------------
  Term symbol:  5 (1) A2                                    R^2 =  4.91658e-08

  Total energy:                                            -78.7449231818 a.u.
  Excitation energy:                                               5.495670 eV

  Osc. strength:                                                      0.000000
  Trans. dip. moment [a.u.]:           [   0.000000,   -0.000000,    0.000000]
  <i|r^2|0> [a.u.]:                    [  -0.000000,   -0.000000,    0.000000]
  Two-photon absorption cross-section (SoS) [a.u.]:                   0.000000
  Two-photon absorption matrix (SoS) [a.u.]:
                                       |   -0.000000    0.000000    0.000000 |
                                       |    0.000000   -0.000000   -0.000000 |
                                       |    0.000000   -0.000000    0.000000 |

  Dip. moment [a.u.]:                  [  -0.000000,   -0.000000,    0.540606]
  Total dipole [Debye]:                                               1.374084
  <r^2> [a.u.]:                        [ 117.118038,   76.009649,   75.104509]
  Total <r^2> [a.u.]:                                               268.232196

  V1^2 = 0.9101, V2^2 = 0.0899

  Important amplitudes:
      occ i      occ j       vir a       vir b          v   
    ---------------------------------------------------------
     5 (A1) A               4 (A2) A                 -0.4565
     5 (A1) A               5 (A2) A                  0.4412
     5 (A1) A               8 (A2) A                 -0.1382
     5 (A1) A               7 (A2) A                  0.1316
     5 (A1) A               6 (A2) A                  0.0899
     5 (A1) A               3 (A2) A                  0.0798
     5 (A1) A   5 (A1) B   12 (A1) A    4 (A2) B     -0.0346
     5 (A1) A   5 (A1) B    9 (A1) A    4 (A2) B     -0.0343
     5 (A1) A   5 (A1) B   12 (A1) A    5 (A2) B      0.0257
     5 (A1) A              10 (A2) A                 -0.0232
     5 (A1) A   5 (A1) B    9 (A1) A    5 (A2) B      0.0225
     5 (A1) A   5 (A1) B   16 (A1) A    4 (A2) B     -0.0220
     5 (A1) A   5 (A1) B   25 (A1) A    4 (A2) B     -0.0215
     5 (A1) A   5 (A1) B   17 (A1) A    4 (A2) B     -0.0212
     5 (A1) A   5 (A1) B   11 (A1) A    4 (A2) B     -0.0206
     5 (A1) A   5 (A1) B   25 (A1) A    5 (A2) B      0.0195
     5 (A1) A   5 (A1) B   16 (A1) A    5 (A2) B      0.0188
     5 (A1) A   5 (A1) B    7 (A1) A    4 (A2) B     -0.0180
     5 (A1) A   5 (A1) B   17 (A1) A    5 (A2) B      0.0164
     5 (A1) A   5 (A1) B   15 (A1) A    4 (A2) B     -0.0143
     5 (A1) A   5 (A1) B   11 (A1) A    5 (A2) B      0.0140
     5 (A1) A              11 (A2) A                  0.0139
     5 (A1) A   5 (A1) B   15 (A1) A    5 (A2) B      0.0124
     5 (A1) A   5 (A1) B   18 (A1) A    4 (A2) B     -0.0116
     5 (A1) A   5 (A1) B    7 (A1) A    5 (A2) B      0.0115
     5 (A1) A               9 (A2) A                  0.0108
     5 (A1) A   5 (A1) B   18 (A1) A    5 (A2) B      0.0101
     5 (A1) A   5 (A1) B    9 (A1) A    3 (A2) B      0.0100
     5 (A1) A   5 (A1) B   29 (A1) A    4 (A2) B     -0.0081
     5 (A1) A   5 (A1) B   19 (A1) A    5 (A2) B     -0.0074
     5 (A1) A   5 (A1) B   21 (A1) A    5 (A2) B     -0.0071
     5 (A1) A   5 (A1) B   29 (A1) A    5 (A2) B      0.0071
     5 (A1) A   5 (A1) B   12 (A1) A    3 (A2) B      0.0069
     5 (A1) A   5 (A1) B   12 (A1) A    7 (A2) B      0.0067
     5 (A1) A   5 (A1) B   21 (A1) A    4 (A2) B      0.0066
     3 (A1) A               5 (A2) A                 -0.0064
     5 (A1) A   5 (A1) B    7 (A1) A    3 (A2) B      0.0059
     5 (A1) A   5 (A1) B    6 (A1) A    4 (A2) B     -0.0057
     4 (A1) A               5 (A2) A                 -0.0057
     5 (A1) A   5 (A1) B    8 (A1) A    4 (A2) B     -0.0056
    ---------------------------------------------------------
  ----------------------------------------------------------------------------


  Excited state 6 (singlet, A2)                                    [converged]
  ----------------------------------------------------------------------------
  Term symbol:  6 (1) A2                                    R^2 =  8.04705e-10

  Total energy:                                            -78.7322722964 a.u.
  Excitation energy:                                               5.839918 eV

  Osc. strength:                                                      0.000000
  Trans. dip. moment [a.u.]:           [   0.000000,   -0.000000,   -0.000000]
  <i|r^2|0> [a.u.]:                    [   0.000000,    0.000000,    0.000000]
  Two-photon absorption cross-section (SoS) [a.u.]:                   0.000000
  Two-photon absorption matrix (SoS) [a.u.]:
                                       |   -0.000000    0.000000    0.000000 |
                                       |    0.000000   -0.000000   -0.000000 |
                                       |    0.000000   -0.000000   -0.000000 |

  Dip. moment [a.u.]:                  [   0.000000,    0.000000,   15.490217]
  Total dipole [Debye]:                                              39.372212
  <r^2> [a.u.]:                        [ 406.871407,  373.716997,  252.632600]
  Total <r^2> [a.u.]:                                              1033.221004

  V1^2 = 0.0000, V2^2 = 1.0000

  Important amplitudes:
      occ i      occ j       vir a       vir b          v   
    ---------------------------------------------------------
     5 (A1) A   5 (A1) B    4 (B1) A    2 (B2) B     -0.3535
     5 (A1) A               4 (A2) A                 -0.0016
     5 (A1) A               1 (A2) A                 -0.0015
     5 (A1) A               5 (A2) A                  0.0014
     1 (B2) A               4 (B1) A                  0.0010
     5 (A1) A               3 (A2) A                  0.0007
     5 (A1) A   5 (A1) B    7 (A1) A    1 (A2) B     -0.0006
     5 (A1) A               7 (A2) A                  0.0006
     5 (A1) A               8 (A2) A                 -0.0006
     5 (A1) A   5 (A1) B    6 (A1) A    1 (A2) B     -0.0005
     5 (A1) A   5 (A1) B    9 (A1) A    1 (A2) B     -0.0005
     1 (B2) A               6 (B1) A                  0.0004
     5 (A1) A               2 (A2) A                 -0.0004
     5 (A1) A   5 (A1) B   12 (A1) A    1 (A2) B     -0.0002
     5 (A1) A   5 (A1) B   11 (A1) A    1 (A2) B     -0.0002
     1 (B2) A               8 (B1) A                  0.0002
     5 (A1) A   5 (A1) B    9 (A1) A    4 (A2) B     -0.0001
     5 (A1) A   5 (A1) B   12 (A1) A    4 (A2) B     -0.0001
     5 (A1) A   5 (A1) B   16 (A1) A    1 (A2) B     -0.0001
     5 (A1) A   5 (A1) B   17 (A1) A    1 (A2) B     -0.0001
     5 (A1) A   5 (A1) B    9 (A1) A    3 (A2) B      0.0001
     5 (A1) A   5 (A1) B   25 (A1) A    1 (A2) B     -0.0001
     5 (A1) A   5 (A1) B    8 (A1) A    1 (A2) B     -0.0001
     5 (A1) A   5 (A1) B   12 (A1) A    5 (A2) B      0.0001
     5 (A1) A   5 (A1) B   16 (A1) A    4 (A2) B     -0.0001
     5 (A1) A   5 (A1) B   15 (A1) A    1 (A2) B     -0.0001
     5 (A1) A   5 (A1) B   25 (A1) A    4 (A2) B     -0.0001
     5 (A1) A   5 (A1) B   17 (A1) A    4 (A2) B     -0.0001
     5 (A1) A   5 (A1) B   11 (A1) A    4 (A2) B     -0.0001
     5 (A1) A   5 (A1) B    9 (A1) A    5 (A2) B      0.0001
     1 (B2) A              10 (B1) A                  0.0001
     5 (A1) A              10 (A2) A                 -0.0001
     5 (A1) A   5 (A1) B   12 (A1) A    3 (A2) B      0.0001
     5 (A1) A   5 (A1) B    7 (A1) A    4 (A2) B     -0.0001
     5 (A1) A   5 (A1) B    9 (A1) A    2 (A2) B     -0.0001
     5 (A1) A   5 (A1) B   25 (A1) A    5 (A2) B      0.0001
     5 (A1) A   5 (A1) B   16 (A1) A    5 (A2) B      0.0001
     5 (A1) A   5 (A1) B   18 (A1) A    1 (A2) B     -0.0001
     5 (A1) A   5 (A1) B    7 (A1) A    3 (A2) B      0.0001
     5 (A1) A   5 (A1) B   17 (A1) A    5 (A2) B      0.0001
    ---------------------------------------------------------
  ----------------------------------------------------------------------------


  Excited state 7 (singlet, A2)                                    [converged]
  ----------------------------------------------------------------------------
  Term symbol:  7 (1) A2                                    R^2 =  1.59085e-06

  Total energy:                                            -78.7258709272 a.u.
  Excitation energy:                                               6.014108 eV

  Osc. strength:                                                      0.000000
  Trans. dip. moment [a.u.]:           [   0.000000,   -0.000000,    0.000000]
  <i|r^2|0> [a.u.]:                    [  -0.000000,   -0.000000,   -0.000000]
  Two-photon absorption cross-section (SoS) [a.u.]:                   0.000000
  Two-photon absorption matrix (SoS) [a.u.]:
                                       |   -0.000000    0.000000   -0.000000 |
                                       |    0.000000   -0.000000   -0.000000 |
                                       |   -0.000000   -0.000000    0.000000 |

  Dip. moment [a.u.]:                  [  -0.000000,    0.000000,    1.483085]
  Total dipole [Debye]:                                               3.769627
  <r^2> [a.u.]:                        [ 210.255535,   66.700739,  154.924147]
  Total <r^2> [a.u.]:                                               431.880421

  V1^2 = 0.9275, V2^2 = 0.0725

  Important amplitudes:
      occ i      occ j       vir a       vir b          v   
    ---------------------------------------------------------
     1 (B2) A               4 (B1) A                  0.5474
     1 (B2) A               6 (B1) A                  0.3453
     1 (B2) A               8 (B1) A                  0.1748
     1 (B2) A              10 (B1) A                  0.0815
     1 (B2) A               5 (B1) A                  0.0485
     5 (A1) A               6 (A2) A                 -0.0476
     1 (B2) A               7 (B1) A                 -0.0331
     1 (B2) A              14 (B1) A                  0.0315
     1 (B2) A   1 (B2) B    4 (B1) A    8 (B2) B      0.0214
     1 (B2) A   1 (B2) B    4 (B1) A    5 (B2) B      0.0177
     5 (A1) A               5 (A2) A                  0.0159
     5 (A1) A   1 (B2) B    9 (A1) A    4 (B1) B      0.0135
     1 (B2) A   1 (B2) B    4 (B1) A    4 (B2) B      0.0131
     1 (B2) A   1 (B2) B    4 (B1) A   11 (B2) B      0.0129
     1 (B2) A   1 (B2) B    6 (B1) A    8 (B2) B      0.0128
     5 (A1) A               7 (A2) A                  0.0126
     5 (A1) A   1 (B2) A    9 (A1) A    4 (B1) A      0.0126
     3 (A1) A   1 (B2) B   21 (A1) A    4 (B1) B     -0.0125
     5 (A1) A   1 (B2) B   19 (A1) A    4 (B1) B      0.0119
     5 (A1) A   1 (B2) A   19 (A1) A    4 (B1) A      0.0115
     3 (A1) A   1 (B2) A   21 (A1) A    4 (B1) A     -0.0109
     1 (B2) A   1 (B2) B    6 (B1) A    5 (B2) B      0.0105
     4 (A1) A   1 (B2) B   23 (A1) A    4 (B1) B      0.0105
     4 (A1) A   1 (B2) A   23 (A1) A    4 (B1) A      0.0099
     3 (B1) A   1 (B2) B   16 (B1) A    4 (B1) B     -0.0097
     1 (B2) A              18 (B1) A                 -0.0097
     1 (B2) A               9 (B1) A                 -0.0094
     1 (B2) A              12 (B1) A                 -0.0093
     3 (B1) A   1 (B2) A    4 (B1) A   16 (B1) A      0.0093
     4 (A1) A   1 (B2) B   16 (A1) A    4 (B1) B      0.0087
     2 (B1) A   1 (B2) B   18 (B1) A    4 (B1) B     -0.0087
     4 (A1) A   1 (B2) A   16 (A1) A    4 (B1) A      0.0083
     1 (B2) A   1 (B2) B    6 (B1) A   11 (B2) B      0.0079
     3 (B1) A   1 (B2) B   20 (B1) A    4 (B1) B     -0.0078
     5 (A1) A   1 (B2) B   11 (A1) A    4 (B1) B      0.0077
     1 (B2) A              13 (B1) A                 -0.0077
     1 (B2) A   1 (B2) B    6 (B1) A    4 (B2) B      0.0076
     3 (A1) A   1 (B2) B   21 (A1) A    6 (B1) B     -0.0076
     5 (A1) A   1 (B2) A   11 (A1) A    4 (B1) A      0.0075
     1 (B2) A              17 (B1) A                  0.0074
    ---------------------------------------------------------
  ----------------------------------------------------------------------------


  Excited state 8 (singlet, A2)                                    [converged]
  ----------------------------------------------------------------------------
  Term symbol:  8 (1) A2                                    R^2 =  1.30355e-08

  Total energy:                                            -78.7253865901 a.u.
  Excitation energy:                                               6.027287 eV

  Osc. strength:                                                      0.000000
  Trans. dip. moment [a.u.]:           [  -0.000000,    0.000000,    0.000000]
  <i|r^2|0> [a.u.]:                    [  -0.000000,   -0.000000,   -0.000000]
  Two-photon absorption cross-section (SoS) [a.u.]:                   0.000000
  Two-photon absorption matrix (SoS) [a.u.]:
                                       |   -0.000000    0.000000   -0.000000 |
                                       |    0.000000   -0.000000    0.000000 |
                                       |   -0.000000    0.000000    0.000000 |

  Dip. moment [a.u.]:                  [   0.000000,   -0.000000,    8.312359]
  Total dipole [Debye]:                                              21.127912
  <r^2> [a.u.]:                        [ 377.043654,  322.343667,  350.376455]
  Total <r^2> [a.u.]:                                              1049.763775

  V1^2 = 0.0019, V2^2 = 0.9981

  Important amplitudes:
      occ i      occ j       vir a       vir b          v   
    ---------------------------------------------------------
     5 (A1) A   5 (A1) B    6 (A1) A    1 (A2) B      0.3530
     5 (A1) A               6 (A2) A                 -0.0253
     5 (A1) A               1 (A2) A                 -0.0140
     5 (A1) A   5 (A1) B    7 (A1) A    1 (A2) B     -0.0090
     5 (A1) A               5 (A2) A                  0.0070
     5 (A1) A               7 (A2) A                  0.0066
     5 (A1) A   5 (A1) B    9 (A1) A    1 (A2) B     -0.0051
     5 (A1) A               4 (A2) A                  0.0042
     1 (B2) A               4 (B1) A                 -0.0029
     5 (A1) A   5 (A1) B   12 (A1) A    1 (A2) B     -0.0024
     5 (A1) A               3 (A2) A                  0.0018
     5 (A1) A   5 (A1) B   11 (A1) A    1 (A2) B     -0.0018
     1 (B2) A               6 (B1) A                 -0.0016
     5 (A1) A   5 (A1) B   12 (A1) A    6 (A2) B     -0.0015
     5 (A1) A               9 (A2) A                 -0.0014
     5 (A1) A   5 (A1) B    9 (A1) A    6 (A2) B     -0.0013
     5 (A1) A   5 (A1) B   16 (A1) A    6 (A2) B     -0.0011
     5 (A1) A   5 (A1) B   16 (A1) A    1 (A2) B     -0.0011
     5 (A1) A   5 (A1) B   25 (A1) A    6 (A2) B     -0.0011
     5 (A1) A   5 (A1) B   17 (A1) A    1 (A2) B     -0.0011
     5 (A1) A   5 (A1) B   17 (A1) A    6 (A2) B     -0.0010
     5 (A1) A   5 (A1) B    8 (A1) A    1 (A2) B     -0.0009
     5 (A1) A   5 (A1) B   11 (A1) A    6 (A2) B     -0.0009
     5 (A1) A   5 (A1) B   25 (A1) A    1 (A2) B     -0.0008
     5 (A1) A   5 (A1) B   15 (A1) A    6 (A2) B     -0.0008
     5 (A1) A   5 (A1) B   15 (A1) A    1 (A2) B     -0.0007
     5 (A1) A               8 (A2) A                 -0.0007
     1 (B2) A               8 (B1) A                 -0.0007
     5 (A1) A               2 (A2) A                  0.0007
     5 (A1) A   5 (A1) B   18 (A1) A    6 (A2) B     -0.0007
     5 (A1) A   5 (A1) B    7 (A1) A    6 (A2) B     -0.0007
     3 (A1) A               1 (A2) A                  0.0006
     4 (A1) A               1 (A2) A                  0.0005
     5 (A1) A   5 (A1) B   18 (A1) A    1 (A2) B     -0.0005
     5 (A1) A   5 (A1) B    4 (B1) A    2 (B2) B     -0.0005
     5 (A1) A   5 (A1) B   12 (A1) A    5 (A2) B      0.0005
     5 (A1) A   5 (A1) B   29 (A1) A    6 (A2) B     -0.0004
     5 (A1) A   5 (A1) B   15 (B1) A    6 (B2) B     -0.0004
     5 (A1) A   5 (A1) B    9 (A1) A    5 (A2) B      0.0004
     5 (A1) A   5 (A1) B    9 (A1) A    4 (A2) B      0.0004
    ---------------------------------------------------------
  ----------------------------------------------------------------------------


  Excited state 9 (singlet, A2)                                    [converged]
  ----------------------------------------------------------------------------
  Term symbol:  9 (1) A2                                    R^2 =  2.65710e-07

  Total energy:                                            -78.7247750827 a.u.
  Excitation energy:                                               6.043927 eV

  Osc. strength:                                                      0.000000
  Trans. dip. moment [a.u.]:           [  -0.000000,    0.000000,    0.000000]
  <i|r^2|0> [a.u.]:                    [   0.000000,   -0.000000,   -0.000000]
  Two-photon absorption cross-section (SoS) [a.u.]:                   0.000000
  Two-photon absorption matrix (SoS) [a.u.]:
                                       |    0.000000   -0.000000   -0.000000 |
                                       |   -0.000000   -0.000000    0.000000 |
                                       |   -0.000000    0.000000    0.000000 |

  Dip. moment [a.u.]:                  [  -0.000000,    0.000000,    0.521230]
  Total dipole [Debye]:                                               1.324834
  <r^2> [a.u.]:                        [  69.839524,   32.180870,   72.929070]
  Total <r^2> [a.u.]:                                               174.949464

  V1^2 = 0.9234, V2^2 = 0.0766

  Important amplitudes:
      occ i      occ j       vir a       vir b          v   
    ---------------------------------------------------------
     5 (A1) A               6 (A2) A                 -0.6245
     5 (A1) A               5 (A2) A                  0.1751
     5 (A1) A               7 (A2) A                  0.1569
     5 (A1) A               4 (A2) A                  0.1006
     1 (B2) A               4 (B1) A                 -0.0452
     5 (A1) A               3 (A2) A                  0.0426
     5 (A1) A   5 (A1) B   12 (A1) A    6 (A2) B     -0.0380
     5 (A1) A               9 (A2) A                 -0.0351
     5 (A1) A   5 (A1) B    9 (A1) A    6 (A2) B     -0.0326
     5 (A1) A   5 (A1) B   16 (A1) A    6 (A2) B     -0.0280
     5 (A1) A   5 (A1) B   25 (A1) A    6 (A2) B     -0.0272
     5 (A1) A   5 (A1) B   17 (A1) A    6 (A2) B     -0.0255
     1 (B2) A               6 (B1) A                 -0.0242
     5 (A1) A   5 (A1) B   11 (A1) A    6 (A2) B     -0.0210
     5 (A1) A               8 (A2) A                 -0.0187
     5 (A1) A   5 (A1) B   15 (A1) A    6 (A2) B     -0.0186
     5 (A1) A   5 (A1) B   18 (A1) A    6 (A2) B     -0.0162
     5 (A1) A   5 (A1) B    7 (A1) A    6 (A2) B     -0.0161
     5 (A1) A   5 (A1) B    6 (A1) A    1 (A2) B     -0.0144
     5 (A1) A   5 (A1) B   12 (A1) A    5 (A2) B      0.0115
     5 (A1) A   5 (A1) B   29 (A1) A    6 (A2) B     -0.0108
     5 (A1) A   5 (A1) B   15 (B1) A    6 (B2) B     -0.0104
     5 (A1) A   5 (A1) B    9 (A1) A    5 (A2) B      0.0101
     1 (B2) A               8 (B1) A                 -0.0096
     5 (A1) A   5 (A1) B    9 (A1) A    4 (A2) B      0.0089
     5 (A1) A   5 (A1) B   21 (A1) A    6 (A2) B      0.0087
     5 (A1) A               2 (A2) A                  0.0085
     5 (A1) A   5 (A1) B   19 (A1) A    6 (A2) B      0.0083
     5 (A1) A   5 (A1) B   12 (A1) A    4 (A2) B      0.0083
     5 (A1) A   5 (A1) B   12 (A1) A    7 (A2) B      0.0081
     5 (A1) A   5 (A1) B   16 (A1) A    5 (A2) B      0.0081
     5 (A1) A   5 (A1) B   25 (A1) A    5 (A2) B      0.0079
     5 (A1) A   5 (A1) B   17 (A1) A    5 (A2) B      0.0075
     5 (A1) A   5 (A1) B    9 (B1) A    6 (B2) B      0.0070
     5 (A1) A   5 (A1) B   16 (A1) A    7 (A2) B      0.0067
     5 (A1) A   5 (A1) B   17 (A1) A    7 (A2) B      0.0066
     5 (A1) A   5 (A1) B   11 (A1) A    5 (A2) B      0.0065
     5 (A1) A   5 (A1) B   25 (A1) A    7 (A2) B      0.0064
     5 (A1) A   5 (A1) B    9 (A1) A    7 (A2) B      0.0061
     5 (A1) A   5 (A1) B    9 (A1) A    3 (A2) B      0.0061
    ---------------------------------------------------------
  ----------------------------------------------------------------------------


  Excited state 10 (singlet, A2)                                    [converged]
  ----------------------------------------------------------------------------
  Term symbol:  10 (1) A2                                   R^2 =  1.52665e-09

  Total energy:                                            -78.7219550195 a.u.
  Excitation energy:                                               6.120665 eV

  Osc. strength:                                                      0.000000
  Trans. dip. moment [a.u.]:           [  -0.000000,    0.000000,   -0.000000]
  <i|r^2|0> [a.u.]:                    [  -0.000000,    0.000000,    0.000000]
  Two-photon absorption cross-section (SoS) [a.u.]:                   0.000000
  Two-photon absorption matrix (SoS) [a.u.]:
                                       |    0.000000   -0.000000   -0.000000 |
                                       |   -0.000000   -0.000000    0.000000 |
                                       |   -0.000000    0.000000    0.000000 |

  Dip. moment [a.u.]:                  [  -0.000000,   -0.000000,   -2.559046]
  Total dipole [Debye]:                                               6.504448
  <r^2> [a.u.]:                        [ 388.330542,  367.620219,  297.619428]
  Total <r^2> [a.u.]:                                              1053.570188

  V1^2 = 0.0000, V2^2 = 1.0000

  Important amplitudes:
      occ i      occ j       vir a       vir b          v   
    ---------------------------------------------------------
     5 (A1) A   5 (A1) B    5 (B1) A    2 (B2) B      0.3535
     5 (A1) A               6 (A2) A                 -0.0027
     5 (A1) A               4 (A2) A                  0.0007
     1 (B2) A               5 (B1) A                 -0.0007
     5 (A1) A               5 (A2) A                  0.0006
     5 (A1) A               7 (A2) A                  0.0005
     5 (A1) A               1 (A2) A                  0.0002
     5 (A1) A   5 (A1) B    7 (A1) A    1 (A2) B      0.0002
     5 (A1) A   5 (A1) B   12 (A1) A    6 (A2) B     -0.0002
     5 (A1) A               9 (A2) A                 -0.0002
     5 (A1) A   5 (A1) B    6 (A1) A    1 (A2) B     -0.0002
     5 (A1) A   5 (A1) B    9 (A1) A    6 (A2) B     -0.0001
     5 (A1) A   5 (A1) B   16 (A1) A    6 (A2) B     -0.0001
     5 (A1) A   5 (A1) B   25 (A1) A    6 (A2) B     -0.0001
     5 (A1) A               2 (A2) A                 -0.0001
     1 (B2) A               4 (B1) A                  0.0001
     5 (A1) A   5 (A1) B   17 (A1) A    6 (A2) B     -0.0001
     1 (B2) A               7 (B1) A                  0.0001
     5 (A1) A   5 (A1) B   11 (A1) A    6 (A2) B     -0.0001
     5 (A1) A   5 (A1) B    9 (A1) A    1 (A2) B      0.0001
     5 (A1) A   5 (A1) B   15 (A1) A    6 (A2) B     -0.0001
     5 (A1) A   5 (A1) B    7 (A1) A    6 (A2) B     -0.0001
     5 (A1) A   5 (A1) B   18 (A1) A    6 (A2) B     -0.0001
     1 (B2) A               6 (B1) A                  0.0001
     5 (A1) A   5 (A1) B    9 (A1) A    4 (A2) B      0.0001
     5 (A1) A   5 (A1) B   12 (A1) A    4 (A2) B      0.0001
     5 (A1) A   5 (A1) B   29 (A1) A    6 (A2) B     -0.0000
     3 (B1) A               2 (B2) A                  0.0000
     5 (A1) A   5 (A1) B   15 (B1) A    6 (B2) B     -0.0000
     1 (B2) A               8 (B1) A                  0.0000
     5 (A1) A   5 (A1) B   12 (A1) A    1 (A2) B      0.0000
     5 (A1) A   5 (A1) B   21 (A1) A    6 (A2) B      0.0000
     5 (A1) A   5 (A1) B   12 (A1) A    5 (A2) B      0.0000
     5 (A1) A   5 (A1) B   16 (A1) A    4 (A2) B      0.0000
     5 (A1) A   5 (A1) B   19 (A1) A    6 (A2) B      0.0000
     5 (A1) A   5 (A1) B   25 (A1) A    4 (A2) B      0.0000
     5 (A1) A               3 (A2) A                  0.0000
     5 (A1) A   5 (A1) B   17 (A1) A    4 (A2) B      0.0000
     5 (A1) A   5 (A1) B   11 (A1) A    4 (A2) B      0.0000
[...]
0.00000000000000000e+00 0.00000000000000000e+00 0.00000000000000000e+00 0.00000000000000000e+00 0.00000000000000000e+00 0.00000000000000000e+00 0.00000000000000000e+00 0.00000000000000000e+00 0.00000000000000000e+00 0.00000000000000000e+00
0.00000000000000000e+00 0.00000000000000000e+00 0.00000000000000000e+00 0.00000000000000000e+00 0.00000000000000000e+00 0.00000000000000000e+00 0.00000000000000000e+00 0.00000000000000000e+00 0.00000000000000000e+00 0.00000000000000000e+00
0.00000000000000000e+00 0.00000000000000000e+00 0.00000000000000000e+00 0.00000000000000000e+00 0.00000000000000000e+00 0.00000000000000000e+00 0.00000000000000000e+00 0.00000000000000000e+00 0.00000000000000000e+00 0.00000000000000000e+00
0.00000000000000000e+00 0.00000000000000000e+00 0.00000000000000000e+00 0.00000000000000000e+00 0.00000000000000000e+00 0.00000000000000000e+00 0.00000000000000000e+00 0.00000000000000000e+00 0.00000000000000000e+00 0.00000000000000000e+00
0.00000000000000000e+00 0.00000000000000000e+00 0.00000000000000000e+00 0.00000000000000000e+00 0.00000000000000000e+00 0.00000000000000000e+00 0.00000000000000000e+00 0.00000000000000000e+00 0.00000000000000000e+00 0.00000000000000000e+00
0.00000000000000000e+00 0.00000000000000000e+00 0.00000000000000000e+00 0.00000000000000000e+00 0.00000000000000000e+00 0.00000000000000000e+00 0.00000000000000000e+00 0.00000000000000000e+00 0.00000000000000000e+00 0.00000000000000000e+00
0.00000000000000000e+00 0.00000000000000000e+00 0.00000000000000000e+00 0.00000000000000000e+00 0.00000000000000000e+00 0.00000000000000000e+00 0.00000000000000000e+00 0.00000000000000000e+00 0.00000000000000000e+00 0.00000000000000000e+00
0.00000000000000000e+00 0.00000000000000000e+00 0.00000000000000000e+00 0.00000000000000000e+00 0.00000000000000000e+00 0.00000000000000000e+00 0.00000000000000000e+00 0.00000000000000000e+00 0.00000000000000000e+00 0.00000000000000000e+00
0.00000000000000000e+00 0.00000000000000000e+00 0.00000000000000000e+00 0.00000000000000000e+00 0.00000000000000000e+00 0.00000000000000000e+00 0.00000000000000000e+00 0.00000000000000000e+00 0.00000000000000000e+00 0.00000000000000000e+00

************************************************************
************************************************************
The imaginary part of the CAP subspace matrix, onset=4500:
************************************************************
-3.77653101037219017e+01 2.47292925150062644e+01 2.32739367522839622e+01 1.66254229317901689e+01 5.27605407665426185e+00 -8.08863463477071110e-02 4.22216284434744939e-03 -9.92559085646846917e-01 -3.33219229826806698e-02 -1.14616980131764211e-02
2.47292925150062644e+01 -3.80429231541886850e+01 -1.81541775843205500e+01 -4.56427502287457187e+00 8.90929579819779782e+00 -4.43202440609560735e-03 5.26385872723699258e-02 -3.08857363361048964e-01 2.08761590476482933e-01 1.49680136241487592e-02
2.32739367522839622e+01 -1.81541775843205500e+01 -2.58648449797735580e+01 -2.16457655568239176e+01 -6.16519000302933939e+00 -2.24530875905263813e-02 -1.25682324061783379e-02 -4.07230930606605757e-02 -3.17382104055659031e-02 1.39787494913145571e-02
1.66254229317901689e+01 -4.56427502287457187e+00 -2.16457655568239176e+01 -2.49323128499958173e+01 -1.57912419166547338e+01 -3.92909547612651441e-02 -6.49416691974067095e-02 -9.80008674450115295e-03 -1.05718467505058006e-01 8.93272324838525859e-03
5.27605407665426185e+00 8.90929579819779782e+00 -6.16519000302933939e+00 -1.57912419166547338e+01 -2.37335631826662521e+01 1.49836675216078796e-01 4.09929647987441852e-03 -1.21869970929074107e-02 -8.40599859953731487e-02 -3.04780096534173484e-02
-8.08863463477071110e-02 -4.43202440609560735e-03 -2.24530875905263813e-02 -3.92909547612651441e-02 1.49836675216078796e-01 -7.60140749190262852e+01 3.15919854461255839e-02 7.98827243979396973e-03 -6.34538619749458466e-03 1.12536940080974368e+00
4.22216284434744939e-03 5.26385872723699258e-02 -1.25682324061783379e-02 -6.49416691974067095e-02 4.09929647987441852e-03 3.15919854461255839e-02 -4.38961424727307445e+01 8.58994023533686257e-02 3.31446064836627219e+00 2.94689245533683308e-02
-9.92559085646846917e-01 -3.08857363361048964e-01 -4.07230930606605757e-02 -9.80008674450115295e-03 -1.21869970929074107e-02 7.98827243979396973e-03 8.58994023533686257e-02 -6.88973217817221553e+01 2.64183798489924726e+00 1.40727040235689577e-02
-3.33219229826806698e-02 2.08761590476482933e-01 -3.17382104055659031e-02 -1.05718467505058006e-01 -8.40599859953731487e-02 -6.34538619749458466e-03 3.31446064836627219e+00 2.64183798489924726e+00 -2.88334943880738681e+00 3.28917128199413489e-01
-1.14616980131764211e-02 1.49680136241487592e-02 1.39787494913145571e-02 8.93272324838525859e-03 -3.04780096534173484e-02 1.12536940080974368e+00 2.94689245533683308e-02 1.40727040235689577e-02 3.28917128199413489e-01 -7.52195895820099594e+01

************************************************************
************************************************************
The real part of the CAP subspace matrix, onset=5000:
************************************************************
0.00000000000000000e+00 0.00000000000000000e+00 0.00000000000000000e+00 0.00000000000000000e+00 0.00000000000000000e+00 0.00000000000000000e+00 0.00000000000000000e+00 0.00000000000000000e+00 0.00000000000000000e+00 0.00000000000000000e+00
0.00000000000000000e+00 0.00000000000000000e+00 0.00000000000000000e+00 0.00000000000000000e+00 0.00000000000000000e+00 0.00000000000000000e+00 0.00000000000000000e+00 0.00000000000000000e+00 0.00000000000000000e+00 0.00000000000000000e+00
0.00000000000000000e+00 0.00000000000000000e+00 0.00000000000000000e+00 0.00000000000000000e+00 0.00000000000000000e+00 0.00000000000000000e+00 0.00000000000000000e+00 0.00000000000000000e+00 0.00000000000000000e+00 0.00000000000000000e+00
0.00000000000000000e+00 0.00000000000000000e+00 0.00000000000000000e+00 0.00000000000000000e+00 0.00000000000000000e+00 0.00000000000000000e+00 0.00000000000000000e+00 0.00000000000000000e+00 0.00000000000000000e+00 0.00000000000000000e+00
0.00000000000000000e+00 0.00000000000000000e+00 0.00000000000000000e+00 0.00000000000000000e+00 0.00000000000000000e+00 0.00000000000000000e+00 0.00000000000000000e+00 0.00000000000000000e+00 0.00000000000000000e+00 0.00000000000000000e+00
0.00000000000000000e+00 0.00000000000000000e+00 0.00000000000000000e+00 0.00000000000000000e+00 0.00000000000000000e+00 0.00000000000000000e+00 0.00000000000000000e+00 0.00000000000000000e+00 0.00000000000000000e+00 0.00000000000000000e+00
0.00000000000000000e+00 0.00000000000000000e+00 0.00000000000000000e+00 0.00000000000000000e+00 0.00000000000000000e+00 0.00000000000000000e+00 0.00000000000000000e+00 0.00000000000000000e+00 0.00000000000000000e+00 0.00000000000000000e+00
0.00000000000000000e+00 0.00000000000000000e+00 0.00000000000000000e+00 0.00000000000000000e+00 0.00000000000000000e+00 0.00000000000000000e+00 0.00000000000000000e+00 0.00000000000000000e+00 0.00000000000000000e+00 0.00000000000000000e+00
0.00000000000000000e+00 0.00000000000000000e+00 0.00000000000000000e+00 0.00000000000000000e+00 0.00000000000000000e+00 0.00000000000000000e+00 0.00000000000000000e+00 0.00000000000000000e+00 0.00000000000000000e+00 0.00000000000000000e+00
0.00000000000000000e+00 0.00000000000000000e+00 0.00000000000000000e+00 0.00000000000000000e+00 0.00000000000000000e+00 0.00000000000000000e+00 0.00000000000000000e+00 0.00000000000000000e+00 0.00000000000000000e+00 0.00000000000000000e+00

************************************************************
************************************************************
The imaginary part of the CAP subspace matrix, onset=5000:
************************************************************
-3.43430248712245714e+01 2.19057589558714483e+01 2.12774439210265811e+01 1.54739687524944127e+01 5.13209574796194978e+00 -7.38787088429411626e-02 5.33064295707861169e-03 -8.84045333334155359e-01 -2.69284837276720611e-02 -8.84576927025338203e-03
2.19057589558714483e+01 -3.34817339074293585e+01 -1.68829286463846771e+01 -4.90514066768909629e+00 7.71019773151641719e+00 -6.22040256062060017e-03 4.62121061611720438e-02 -2.75499798903333537e-01 1.81243152346070663e-01 1.38575276958378159e-02
2.12774439210265811e+01 -1.68829286463846771e+01 -2.30275791055033459e+01 -1.93633479682346099e+01 -6.06287641785463904e+00 -2.17351525194195774e-02 -1.28294744836476900e-02 -3.59635594551636489e-02 -1.93402857669882008e-02 1.28306247473929484e-02
1.54739687524944127e+01 -4.90514066768909629e+00 -1.93633479682346099e+01 -2.20703150540386090e+01 -1.42761561464823892e+01 -3.49730084442141514e-02 -5.78452507055535331e-02 -8.32597937481163036e-03 -8.90338620002862347e-02 7.98346039401385751e-03
5.13209574796194978e+00 7.71019773151641719e+00 -6.06287641785463904e+00 -1.42761561464823892e+01 -2.06389195723226990e+01 1.41346498733368769e-01 2.04742929696017902e-03 -1.09400808994118449e-02 -8.36603958814619020e-02 -2.86143201632735669e-02
-7.38787088429411626e-02 -6.22040256062060017e-03 -2.17351525194195774e-02 -3.49730084442141514e-02 1.41346498733368769e-01 -6.96573603580618652e+01 3.15733758746206822e-02 6.71224367266641357e-03 -4.90354289678138731e-03 1.02233938473948505e+00
5.33064295707861169e-03 4.62121061611720438e-02 -1.28294744836476900e-02 -5.78452507055535331e-02 2.04742929696017902e-03 3.15733758746206822e-02 -3.90155070804040776e+01 7.57350495418296910e-02 3.00214337623266481e+00 2.72183913653570760e-02
-8.84045333334155359e-01 -2.75499798903333537e-01 -3.59635594551636489e-02 -8.32597937481163036e-03 -1.09400808994118449e-02 6.71224367266641357e-03 7.57350495418296910e-02 -6.27955826506017800e+01 2.43753078365627474e+00 1.25646321148292460e-02
-2.69284837276720611e-02 1.81243152346070663e-01 -1.93402857669882008e-02 -8.90338620002862347e-02 -8.36603958814619020e-02 -4.90354289678138731e-03 3.00214337623266481e+00 2.43753078365627474e+00 -1.94039172749266187e+00 3.03044843169268940e-01
-8.84576927025338203e-03 1.38575276958378159e-02 1.28306247473929484e-02 7.98346039401385751e-03 -2.86143201632735669e-02 1.02233938473948505e+00 2.72183913653570760e-02 1.25646321148292460e-02 3.03044843169268940e-01 -6.89665264342564228e+01

************************************************************
  Printing results (es2es) ...  CPU 0.02 s  wall 0.09 s
  Time of ADC calculation:  CPU 1241.37 s  wall 198.47 s
--------------------------------------------------------------------------------
================================================================================
 
 --------------------------------------------------------------
             Orbital Energies (a.u.) and Symmetries
 --------------------------------------------------------------
 
 Alpha MOs, Restricted
 -- Occupied --                  
-11.066 -11.064  -0.878  -0.622  -0.498  -0.409  -0.352  -0.218
  1 A1    1 B1    2 A1    2 B1    3 A1    4 A1    3 B1    1 B2                 
 -0.048
  5 A1                                                                         
 -- Virtual --                   
  0.056   0.062   0.063   0.063   0.067   0.076   0.092   0.103
  4 B1    2 B2    6 A1    1 A2    5 B1    7 A1    6 B1    3 B2                 
  0.105   0.105   0.112   0.114   0.142   0.145   0.160   0.162
  8 A1    2 A2    7 B1    9 A1    8 B1   10 A1    4 B2    3 A2                 
  0.164   0.172   0.204   0.215   0.235   0.236   0.243   0.254
 11 A1    9 B1   12 A1   10 B1    4 A2   13 A1    5 B2   11 B1                 
  0.259   0.282   0.285   0.303   0.304   0.306   0.313   0.316
 14 A1   12 B1    6 B2   15 A1   13 B1    5 A2    7 B2    6 A2                 
  0.338   0.346   0.360   0.371   0.379   0.402   0.423   0.424
 14 B1   16 A1   17 A1    7 A2   15 B1   18 A1    8 B2   16 B1                 
  0.447   0.471   0.475   0.479   0.526   0.538   0.546   0.580
 19 A1   20 A1    8 A2   17 B1   21 A1   18 B1    9 B2   22 A1                 
  0.615   0.618   0.630   0.638   0.644   0.647   0.705   0.732
 23 A1   19 B1   20 B1   24 A1    9 A2   10 B2   21 B1   22 B1                 
  0.767   0.772   0.850   0.887   0.907   0.921   0.947   0.953
 10 A2   25 A1   23 B1   26 A1   11 B2   27 A1   24 B1   28 A1                 
  0.980   0.988   1.013   1.025   1.111   1.119   1.157   1.191
 29 A1   25 B1   11 A2   30 A1   12 B2   26 B1   27 B1   13 B2                 
  1.251   1.276   1.297   1.297   1.298   1.366   1.372   1.388
 14 B2   28 B1   12 A2   31 A1   29 B1   13 A2   32 A1   15 B2                 
  1.390   1.427   1.443   1.533   1.598   1.657   1.703   1.720
 33 A1   16 B2   30 B1   34 A1   31 B1   14 A2   35 A1   36 A1                 
  1.818   1.833   1.843   1.905   2.025   2.175   2.189   2.261
 32 B1   37 A1   15 A2   33 B1   34 B1   38 A1   35 B1   36 B1                 
  2.737   2.891   2.901   2.922   2.940   2.967   3.057   3.061
 17 B2   39 A1   40 A1   41 A1   16 A2   42 A1   43 A1   37 B1                 
  3.078   3.157   3.163   3.234   3.265   3.303   3.339   3.391
 18 B2   19 B2   38 B1   39 B1   20 B2   44 A1   45 A1   17 A2                 
  3.426   3.427   3.469   3.622   3.636   3.643   3.664   3.679
 21 B2   18 A2   46 A1   40 B1   47 A1   19 A2   20 A2   41 B1                 
  3.688   3.706   3.774   3.811   3.824   3.830   3.837   3.839
 42 B1   43 B1   22 B2   23 B2   48 A1   21 A2   24 B2   49 A1                 
  3.875   3.879   3.969   3.989   4.142   4.168   4.189   4.197
 50 A1   44 B1   51 A1   45 B1   22 A2   46 B1   47 B1   52 A1                 
  4.207   4.239   4.280   4.309   4.340   4.380   4.452   4.461
 25 B2   53 A1   23 A2   26 B2   48 B1   54 A1   49 B1   27 B2                 
  4.519   4.524   4.534   4.581   4.778   4.803   4.828   4.920
 24 A2   50 B1   28 B2   55 A1   51 B1   56 A1   25 A2   57 A1                 
  4.959   5.015   5.110   5.230   5.264   5.338   5.388   5.491
 52 B1   26 A2   29 B2   58 A1   53 B1   59 A1   30 B2   54 B1                 
  5.533   5.590   5.651   5.705   5.854   5.898   6.277   6.350
 60 A1   27 A2   55 B1   28 A2   61 A1   62 A1   56 B1   57 B1                 
  6.487   6.830   7.062  13.095  15.538
 63 A1   58 B1   59 B1   64 A1   60 B1                                         
 
 Beta MOs, Restricted
 -- Occupied --                  
-11.066 -11.064  -0.878  -0.622  -0.498  -0.409  -0.352  -0.218
  1 A1    1 B1    2 A1    2 B1    3 A1    4 A1    3 B1    1 B2                 
 -0.048
  5 A1                                                                         
 -- Virtual --                   
  0.056   0.062   0.063   0.063   0.067   0.076   0.092   0.103
  4 B1    2 B2    6 A1    1 A2    5 B1    7 A1    6 B1    3 B2                 
  0.105   0.105   0.112   0.114   0.142   0.145   0.160   0.162
  8 A1    2 A2    7 B1    9 A1    8 B1   10 A1    4 B2    3 A2                 
  0.164   0.172   0.204   0.215   0.235   0.236   0.243   0.254
 11 A1    9 B1   12 A1   10 B1    4 A2   13 A1    5 B2   11 B1                 
  0.259   0.282   0.285   0.303   0.304   0.306   0.313   0.316
 14 A1   12 B1    6 B2   15 A1   13 B1    5 A2    7 B2    6 A2                 
  0.338   0.346   0.360   0.371   0.379   0.402   0.423   0.424
 14 B1   16 A1   17 A1    7 A2   15 B1   18 A1    8 B2   16 B1                 
  0.447   0.471   0.475   0.479   0.526   0.538   0.546   0.580
 19 A1   20 A1    8 A2   17 B1   21 A1   18 B1    9 B2   22 A1                 
  0.615   0.618   0.630   0.638   0.644   0.647   0.705   0.732
 23 A1   19 B1   20 B1   24 A1    9 A2   10 B2   21 B1   22 B1                 
  0.767   0.772   0.850   0.887   0.907   0.921   0.947   0.953
 10 A2   25 A1   23 B1   26 A1   11 B2   27 A1   24 B1   28 A1                 
  0.980   0.988   1.013   1.025   1.111   1.119   1.157   1.191
 29 A1   25 B1   11 A2   30 A1   12 B2   26 B1   27 B1   13 B2                 
  1.251   1.276   1.297   1.297   1.298   1.366   1.372   1.388
 14 B2   28 B1   12 A2   31 A1   29 B1   13 A2   32 A1   15 B2                 
  1.390   1.427   1.443   1.533   1.598   1.657   1.703   1.720
 33 A1   16 B2   30 B1   34 A1   31 B1   14 A2   35 A1   36 A1                 
  1.818   1.833   1.843   1.905   2.025   2.175   2.189   2.261
 32 B1   37 A1   15 A2   33 B1   34 B1   38 A1   35 B1   36 B1                 
  2.737   2.891   2.901   2.922   2.940   2.967   3.057   3.061
 17 B2   39 A1   40 A1   41 A1   16 A2   42 A1   43 A1   37 B1                 
  3.078   3.157   3.163   3.234   3.265   3.303   3.339   3.391
 18 B2   19 B2   38 B1   39 B1   20 B2   44 A1   45 A1   17 A2                 
  3.426   3.427   3.469   3.622   3.636   3.643   3.664   3.679
 21 B2   18 A2   46 A1   40 B1   47 A1   19 A2   20 A2   41 B1                 
  3.688   3.706   3.774   3.811   3.824   3.830   3.837   3.839
 42 B1   43 B1   22 B2   23 B2   48 A1   21 A2   24 B2   49 A1                 
  3.875   3.879   3.969   3.989   4.142   4.168   4.189   4.197
 50 A1   44 B1   51 A1   45 B1   22 A2   46 B1   47 B1   52 A1                 
  4.207   4.239   4.280   4.309   4.340   4.380   4.452   4.461
 25 B2   53 A1   23 A2   26 B2   48 B1   54 A1   49 B1   27 B2                 
  4.519   4.524   4.534   4.581   4.778   4.803   4.828   4.920
 24 A2   50 B1   28 B2   55 A1   51 B1   56 A1   25 A2   57 A1                 
  4.959   5.015   5.110   5.230   5.264   5.338   5.388   5.491
 52 B1   26 A2   29 B2   58 A1   53 B1   59 A1   30 B2   54 B1                 
  5.533   5.590   5.651   5.705   5.854   5.898   6.277   6.350
 60 A1   27 A2   55 B1   28 A2   61 A1   62 A1   56 B1   57 B1                 
  6.487   6.830   7.062  13.095  15.538
 63 A1   58 B1   59 B1   64 A1   60 B1                                         
 --------------------------------------------------------------
 
          Ground-State Mulliken Net Atomic Charges

     Atom                 Charge (a.u.)
  ----------------------------------------
      1 C                    -0.574973
      2 C                    -0.574973
      3 H                     0.211334
      4 H                     0.211334
      5 H                     0.143848
      6 H                     0.143848
      7 H                    -0.560417
  ----------------------------------------
  Sum of atomic charges =    -1.000000

 -----------------------------------------------------------------
                    Cartesian Multipole Moments
 -----------------------------------------------------------------
    Charge (ESU x 10^10)
                -4.8032
    Dipole Moment (Debye)
         X       0.0000      Y      -0.0000      Z     -11.8478
       Tot      11.8478
    Quadrupole Moments (Debye-Ang)
        XX     -23.1333     XY       0.0000     YY     -24.8048
        XZ      -0.0000     YZ       0.0000     ZZ     -56.8445
    Octopole Moments (Debye-Ang^2)
       XXX       0.0000    XXY       0.0000    XYY       0.0000
       YYY      -0.0000    XXZ     -13.1202    XYZ      -0.0000
       YYZ     -17.4666    XZZ      -0.0000    YZZ      -0.0000
       ZZZ    -143.8727
    Hexadecapole Moments (Debye-Ang^3)
      XXXX    -370.6764   XXXY       0.0000   XXYY     -61.5859
      XYYY       0.0000   YYYY    -103.4166   XXXZ      -0.0000
      XXYZ      -0.0000   XYYZ      -0.0000   YYYZ      -0.0000
      XXZZ    -115.0111   XYZZ       0.0000   YYZZ     -90.5893
      XZZZ      -0.0000   YZZZ      -0.0000   ZZZZ    -669.6890
 -----------------------------------------------------------------
 Total job time:  281.87s(wall), 1320.20s(cpu) 
 Thu Apr 28 20:32:40 2022

        *************************************************************
        *                                                           *
        *  Thank you very much for using Q-Chem.  Have a nice day.  *
        *                                                           *
        *************************************************************


